<event>
 6    1  0.4630212E-004  0.2782690E+04  0.7818608E-02  0.8308663E-01
         -2   -1    0    0    0  501 -0.00000000000E+00  0.00000000000E+00  0.16174180023E+04  0.16174180023E+04  0.00000000000E+00 0. -1.
          2   -1    0    0  501    0  0.00000000000E+00 -0.00000000000E+00 -0.11968710806E+04  0.11968710806E+04  0.00000000000E+00 0.  1.
         23    2    1    2    0    0 -0.11384638791E+04  0.35788974508E+03 -0.50874010443E+03  0.13017549674E+04  0.10753802834E+03 0.  0.
         13    1    3    3    0    0 -0.80495376177E+03  0.20599294083E+03 -0.33012928756E+03  0.89407437988E+03  0.00000000000E+00 0. -1.
        -13    1    3    3    0    0 -0.33351011736E+03  0.15189680425E+03 -0.17861081687E+03  0.40768058750E+03  0.00000000000E+00 0.  1.
         22    1    1    2    0    0  0.11384638791E+04 -0.35788974508E+03  0.92928702618E+03  0.15125341156E+04  0.00000000000E+00 0. -1.
<mgrwt>
<rscale>  0 0.27826899E+04</rscale>
<asrwt>0</asrwt>
<pdfrwt beam="1">  1        2 0.18413401E+00 0.27826899E+04</pdfrwt>
<pdfrwt beam="2">  1       -2 0.24883354E+00 0.27826899E+04</pdfrwt>
<totfact> 0.10829571E+00</totfact>
</mgrwt>
</event>
<event>
 6    1  0.4630212E-004  0.2550383E+04  0.7818608E-02  0.8385253E-01
          2   -1    0    0  501    0  0.00000000000E+00  0.00000000000E+00  0.15222735667E+04  0.15222735667E+04  0.00000000000E+00 0.  1.
         -2   -1    0    0    0  501 -0.00000000000E+00 -0.00000000000E+00 -0.10682137689E+04  0.10682137689E+04  0.00000000000E+00 0. -1.
         23    2    1    2    0    0  0.30402235757E+03  0.10175628754E+04 -0.48661022317E+03  0.11717823319E+04  0.91763417569E+02 0.  0.
         13    1    3    3    0    0  0.18403610731E+03  0.46040204636E+03 -0.21478055155E+03  0.54034250103E+03  0.00000000000E+00 0. -1.
        -13    1    3    3    0    0  0.11998625026E+03  0.55716082905E+03 -0.27182967162E+03  0.63143983090E+03  0.00000000000E+00 0.  1.
         22    1    1    2    0    0 -0.30402235757E+03 -0.10175628754E+04  0.94067002094E+03  0.14187050037E+04  0.00000000000E+00 0.  1.
<mgrwt>
<rscale>  0 0.25503832E+04</rscale>
<asrwt>0</asrwt>
<pdfrwt beam="1">  1        2 0.23419594E+00 0.25503832E+04</pdfrwt>
<pdfrwt beam="2">  1       -2 0.16434058E+00 0.25503832E+04</pdfrwt>
<totfact> 0.25642846E+00</totfact>
</mgrwt>
</event>
<event>
 6    1  0.4630212E-004  0.2940908E+04  0.7818608E-02  0.8260809E-01
         -2   -1    0    0    0  501 -0.00000000000E+00  0.00000000000E+00  0.91811695206E+03  0.91811695206E+03  0.00000000000E+00 0. -1.
          2   -1    0    0  501    0  0.00000000000E+00 -0.00000000000E+00 -0.23550761336E+04  0.23550761336E+04  0.00000000000E+00 0.  1.
         23    2    1    2    0    0  0.14138477233E+04  0.39413974088E+03 -0.65346484043E+03  0.16094097756E+04  0.94191337567E+02 0.  0.
         11    1    3    3    0    0  0.79550129785E+03  0.19127145874E+03 -0.40372852083E+03  0.91236166313E+03  0.00000000000E+00 0.  1.
        -11    1    3    3    0    0  0.61834642549E+03  0.20286828214E+03 -0.24973631960E+03  0.69704811250E+03  0.00000000000E+00 0. -1.
         22    1    1    2    0    0 -0.14138477233E+04 -0.39413974088E+03 -0.78349434106E+03  0.16637833100E+04  0.00000000000E+00 0. -1.
<mgrwt>
<rscale>  0 0.29409082E+04</rscale>
<asrwt>0</asrwt>
<pdfrwt beam="1">  1        2 0.36231940E+00 0.29409082E+04</pdfrwt>
<pdfrwt beam="2">  1       -2 0.14124876E+00 0.29409082E+04</pdfrwt>
<totfact> 0.12731252E+00</totfact>
</mgrwt>
</event>
<event>
 6    1  0.4630212E-004  0.2108153E+04  0.7818608E-02  0.8557660E-01
         -2   -1    0    0    0  501 -0.00000000000E+00  0.00000000000E+00  0.54294192630E+03  0.54294192630E+03  0.00000000000E+00 0. -1.
          2   -1    0    0  501    0  0.00000000000E+00 -0.00000000000E+00 -0.20464021988E+04  0.20464021988E+04  0.00000000000E+00 0.  1.
         23    2    1    2    0    0  0.98477399319E+03  0.98582869053E+02 -0.31467714927E+03  0.10425074454E+04  0.91113476585E+02 0.  0.
         11    1    3    3    0    0  0.68857511894E+03  0.73798172861E+02 -0.17610704790E+03  0.71455969454E+03  0.00000000000E+00 0. -1.
        -11    1    3    3    0    0  0.29619887425E+03  0.24784696192E+02 -0.13857010136E+03  0.32794775081E+03  0.00000000000E+00 0.  1.
         22    1    1    2    0    0 -0.98477399319E+03 -0.98582869053E+02 -0.11887831232E+04  0.15468366798E+04  0.00000000000E+00 0.  1.
<mgrwt>
<rscale>  0 0.21081533E+04</rscale>
<asrwt>0</asrwt>
<pdfrwt beam="1">  1        2 0.31483111E+00 0.21081533E+04</pdfrwt>
<pdfrwt beam="2">  1       -2 0.83529527E-01 0.21081533E+04</pdfrwt>
<totfact> 0.72675534E+00</totfact>
</mgrwt>
</event>
<event>
 6    1  0.4630212E-004  0.1276751E+04  0.7818608E-02  0.9048208E-01
         -2   -1    0    0    0  501 -0.00000000000E+00  0.00000000000E+00  0.85333433261E+03  0.85333433261E+03  0.00000000000E+00 0. -1.
          2   -1    0    0  501    0  0.00000000000E+00 -0.00000000000E+00 -0.47756559692E+03  0.47756559692E+03  0.00000000000E+00 0.  1.
         23    2    1    2    0    0 -0.25898475990E+03  0.22656849823E+03  0.74524719646E+03  0.82600318442E+03  0.92094986813E+02 0.  0.
         13    1    3    3    0    0 -0.11202813953E+03  0.11235445149E+03  0.44829252566E+03  0.47554181244E+03  0.00000000000E+00 0. -1.
        -13    1    3    3    0    0 -0.14695662036E+03  0.11421404674E+03  0.29695467080E+03  0.35046137198E+03  0.00000000000E+00 0.  1.
         22    1    1    2    0    0  0.25898475990E+03 -0.22656849823E+03 -0.36947846076E+03  0.50489674510E+03  0.00000000000E+00 0.  1.
<mgrwt>
<rscale>  0 0.12767508E+04</rscale>
<asrwt>0</asrwt>
<pdfrwt beam="1">  1        2 0.73471630E-01 0.12767508E+04</pdfrwt>
<pdfrwt beam="2">  1       -2 0.13128221E+00 0.12767508E+04</pdfrwt>
<totfact> 0.26995171E+01</totfact>
</mgrwt>
</event>
<event>
 6    1  0.4630212E-004  0.1275061E+04  0.7818608E-02  0.9049580E-01
          2   -1    0    0  501    0  0.00000000000E+00  0.00000000000E+00  0.20515541170E+04  0.20515541170E+04  0.00000000000E+00 0.  1.
         -2   -1    0    0    0  501 -0.00000000000E+00 -0.00000000000E+00 -0.19811558888E+03  0.19811558888E+03  0.00000000000E+00 0. -1.
         23    2    1    2    0    0 -0.20141334007E+03  0.36286526562E+03  0.82540224796E+02  0.43079111309E+03  0.80805692002E+02 0.  0.
         13    1    3    3    0    0 -0.87927365002E+02  0.16774040078E+03 -0.29651023830E+01  0.18941186711E+03  0.00000000000E+00 0. -1.
        -13    1    3    3    0    0 -0.11348597507E+03  0.19512486484E+03  0.85505327179E+02  0.24137924599E+03  0.00000000000E+00 0.  1.
         22    1    1    2    0    0  0.20141334007E+03 -0.36286526562E+03  0.17708983033E+04  0.18188785928E+04  0.00000000000E+00 0.  1.
<mgrwt>
<rscale>  0 0.12750606E+04</rscale>
<asrwt>0</asrwt>
<pdfrwt beam="1">  1        2 0.31562370E+00 0.12750606E+04</pdfrwt>
<pdfrwt beam="2">  1       -2 0.30479323E-01 0.12750606E+04</pdfrwt>
<totfact> 0.61201053E+01</totfact>
</mgrwt>
</event>
<event>
 6    1  0.4630212E-004  0.3465290E+04  0.7818608E-02  0.8122065E-01
          2   -1    0    0  501    0  0.00000000000E+00  0.00000000000E+00  0.35901432872E+04  0.35901432872E+04  0.00000000000E+00 0.  1.
         -2   -1    0    0    0  501 -0.00000000000E+00 -0.00000000000E+00 -0.83619456695E+03  0.83619456695E+03  0.00000000000E+00 0. -1.
         23    2    1    2    0    0  0.23358272078E+03 -0.13666767985E+04  0.53290640246E+02  0.13905644067E+04  0.91995205504E+02 0.  0.
         11    1    3    3    0    0  0.17776441172E+03 -0.10132573283E+04 -0.57208314866E+00  0.10287326799E+04  0.00000000000E+00 0. -1.
        -11    1    3    3    0    0  0.55818309067E+02 -0.35341947023E+03  0.53862723395E+02  0.36183172682E+03  0.00000000000E+00 0.  1.
         22    1    1    2    0    0 -0.23358272078E+03  0.13666767985E+04  0.27006580800E+04  0.30357734474E+04  0.00000000000E+00 0.  1.
<mgrwt>
<rscale>  0 0.34652898E+04</rscale>
<asrwt>0</asrwt>
<pdfrwt beam="1">  1        2 0.55232973E+00 0.34652898E+04</pdfrwt>
<pdfrwt beam="2">  1       -2 0.12864532E+00 0.34652898E+04</pdfrwt>
<totfact> 0.25743805E-01</totfact>
</mgrwt>
</event>
<event>
 6    1  0.4630212E-004  0.2295220E+04  0.7818608E-02  0.8479808E-01
          2   -1    0    0  501    0  0.00000000000E+00  0.00000000000E+00  0.10337960048E+04  0.10337960048E+04  0.00000000000E+00 0.  1.
         -2   -1    0    0    0  501 -0.00000000000E+00 -0.00000000000E+00 -0.12739544852E+04  0.12739544852E+04  0.00000000000E+00 0. -1.
         23    2    1    2    0    0 -0.66629428642E+03 -0.49625874213E+03  0.67335094968E+03  0.10729548413E+04  0.87234023033E+02 0.  0.
         13    1    3    3    0    0 -0.48606439768E+03 -0.37857262398E+03  0.45136216394E+03  0.76374317238E+03  0.00000000000E+00 0.  1.
        -13    1    3    3    0    0 -0.18022988873E+03 -0.11768611814E+03  0.22198878575E+03  0.30921166892E+03  0.00000000000E+00 0. -1.
         22    1    1    2    0    0  0.66629428642E+03  0.49625874213E+03 -0.91350943010E+03  0.12347956487E+04  0.00000000000E+00 0. -1.
<mgrwt>
<rscale>  0 0.22952203E+04</rscale>
<asrwt>0</asrwt>
<pdfrwt beam="1">  1        2 0.15904554E+00 0.22952203E+04</pdfrwt>
<pdfrwt beam="2">  1       -2 0.19599300E+00 0.22952203E+04</pdfrwt>
<totfact> 0.30720841E+00</totfact>
</mgrwt>
</event>
<event>
 6    1  0.4630212E-004  0.2172701E+04  0.7818608E-02  0.8529877E-01
          2   -1    0    0  501    0  0.00000000000E+00  0.00000000000E+00  0.15174352995E+04  0.15174352995E+04  0.00000000000E+00 0.  1.
         -2   -1    0    0    0  501 -0.00000000000E+00 -0.00000000000E+00 -0.77773173237E+03  0.77773173237E+03  0.00000000000E+00 0. -1.
         23    2    1    2    0    0  0.32201546935E+03  0.32490453925E+03 -0.66824045670E+03  0.81477407850E+03  0.89747250116E+02 0.  0.
         13    1    3    3    0    0  0.66594828272E+02  0.11438979441E+03 -0.15219719741E+03  0.20170246185E+03  0.00000000000E+00 0. -1.
        -13    1    3    3    0    0  0.25542064108E+03  0.21051474484E+03 -0.51604325929E+03  0.61307161665E+03  0.00000000000E+00 0.  1.
         22    1    1    2    0    0 -0.32201546935E+03 -0.32490453925E+03  0.14079440239E+04  0.14803929534E+04  0.00000000000E+00 0.  1.
<mgrwt>
<rscale>  0 0.21727012E+04</rscale>
<asrwt>0</asrwt>
<pdfrwt beam="1">  1        2 0.23345158E+00 0.21727012E+04</pdfrwt>
<pdfrwt beam="2">  1       -2 0.11965104E+00 0.21727012E+04</pdfrwt>
<totfact> 0.60813061E+00</totfact>
</mgrwt>
</event>
<event>
 6    1  0.4630212E-004  0.1417825E+04  0.7818608E-02  0.8941016E-01
         -2   -1    0    0    0  501 -0.00000000000E+00  0.00000000000E+00  0.28290967964E+03  0.28290967964E+03  0.00000000000E+00 0. -1.
          2   -1    0    0  501    0  0.00000000000E+00 -0.00000000000E+00 -0.17763874045E+04  0.17763874045E+04  0.00000000000E+00 0.  1.
         23    2    1    2    0    0 -0.42401275227E+03  0.22577702683E+03 -0.15012830123E+04  0.15788566587E+04  0.90418945920E+02 0.  0.
         11    1    3    3    0    0 -0.32974042222E+03  0.15157283630E+03 -0.10127962745E+04  0.10758528545E+04  0.00000000000E+00 0. -1.
        -11    1    3    3    0    0 -0.94272330042E+02  0.74204190525E+02 -0.48848673775E+03  0.50300380422E+03  0.00000000000E+00 0.  1.
         22    1    1    2    0    0  0.42401275227E+03 -0.22577702683E+03  0.78052873939E+01  0.48044042548E+03  0.00000000000E+00 0. -1.
<mgrwt>
<rscale>  0 0.14178254E+04</rscale>
<asrwt>0</asrwt>
<pdfrwt beam="1">  1        2 0.27329037E+00 0.14178254E+04</pdfrwt>
<pdfrwt beam="2">  1       -2 0.43524566E-01 0.14178254E+04</pdfrwt>
<totfact> 0.43270945E+01</totfact>
</mgrwt>
</event>
<event>
 6    1  0.4630212E-004  0.3458278E+04  0.7818608E-02  0.8123749E-01
          2   -1    0    0  501    0  0.00000000000E+00  0.00000000000E+00  0.12033762646E+04  0.12033762646E+04  0.00000000000E+00 0.  1.
         -2   -1    0    0    0  501 -0.00000000000E+00 -0.00000000000E+00 -0.24846112944E+04  0.24846112944E+04  0.00000000000E+00 0. -1.
         23    2    1    2    0    0  0.21852421627E+03 -0.13381002266E+04 -0.17837862945E+04  0.22420197782E+04  0.80585929305E+02 0.  0.
         13    1    3    3    0    0  0.11506142393E+03 -0.72626997937E+03 -0.90113220337E+03  0.11630762925E+04  0.00000000000E+00 0.  1.
        -13    1    3    3    0    0  0.10346279234E+03 -0.61183024722E+03 -0.88265409108E+03  0.10789434857E+04  0.00000000000E+00 0. -1.
         22    1    1    2    0    0 -0.21852421627E+03  0.13381002266E+04  0.50255126463E+03  0.14459677808E+04  0.00000000000E+00 0.  1.
<mgrwt>
<rscale>  0 0.34582783E+04</rscale>
<asrwt>0</asrwt>
<pdfrwt beam="1">  1        2 0.18513481E+00 0.34582783E+04</pdfrwt>
<pdfrwt beam="2">  1       -2 0.38224789E+00 0.34582783E+04</pdfrwt>
<totfact> 0.15040859E-01</totfact>
</mgrwt>
</event>
<event>
 6    1  0.4630212E-004  0.5875486E+03  0.7818608E-02  0.9931581E-01
          2   -1    0    0  501    0  0.00000000000E+00  0.00000000000E+00  0.16611938112E+04  0.16611938112E+04  0.00000000000E+00 0.  1.
         -2   -1    0    0    0  501 -0.00000000000E+00 -0.00000000000E+00 -0.51952598410E+02  0.51952598410E+02  0.00000000000E+00 0. -1.
         23    2    1    2    0    0  0.17929290547E+03 -0.21520274553E+03  0.72137909966E+03  0.78214839695E+03  0.11362280490E+03 0.  0.
         13    1    3    3    0    0  0.11811316167E+03 -0.18668244081E+03  0.43448028909E+03  0.48741581250E+03  0.00000000000E+00 0. -1.
        -13    1    3    3    0    0  0.61179743798E+02 -0.28520304725E+02  0.28689881056E+03  0.29473258445E+03  0.00000000000E+00 0.  1.
         22    1    1    2    0    0 -0.17929290547E+03  0.21520274553E+03  0.88786211312E+03  0.93099801264E+03  0.00000000000E+00 0.  1.
<mgrwt>
<rscale>  0 0.58754859E+03</rscale>
<asrwt>0</asrwt>
<pdfrwt beam="1">  1        2 0.25556824E+00 0.58754859E+03</pdfrwt>
<pdfrwt beam="2">  1       -2 0.79927087E-02 0.58754859E+03</pdfrwt>
<totfact> 0.10394510E+03</totfact>
</mgrwt>
</event>
<event>
 6    1  0.4630212E-004  0.1649850E+04  0.7818608E-02  0.8790495E-01
          2   -1    0    0  501    0  0.00000000000E+00  0.00000000000E+00  0.31164414579E+04  0.31164414579E+04  0.00000000000E+00 0.  1.
         -2   -1    0    0    0  501 -0.00000000000E+00 -0.00000000000E+00 -0.21835844416E+03  0.21835844416E+03  0.00000000000E+00 0. -1.
         23    2    1    2    0    0  0.26408747629E+03  0.47046100471E+03  0.27082283607E+04  0.27628553756E+04  0.88279218909E+02 0.  0.
         11    1    3    3    0    0  0.18985570950E+03  0.30044399647E+03  0.15802170996E+04  0.16196906703E+04  0.00000000000E+00 0. -1.
        -11    1    3    3    0    0  0.74231766782E+02  0.17001700824E+03  0.11280112611E+04  0.11431647053E+04  0.00000000000E+00 0.  1.
         22    1    1    2    0    0 -0.26408747629E+03 -0.47046100471E+03  0.18985465301E+03  0.57194452646E+03  0.00000000000E+00 0. -1.
<mgrwt>
<rscale>  0 0.16498501E+04</rscale>
<asrwt>0</asrwt>
<pdfrwt beam="1">  1        2 0.47945250E+00 0.16498501E+04</pdfrwt>
<pdfrwt beam="2">  1       -2 0.33593609E-01 0.16498501E+04</pdfrwt>
<totfact> 0.11699828E+01</totfact>
</mgrwt>
</event>
<event>
 6    1  0.5177492E-004  0.2629357E+04  0.7818608E-02  0.8358297E-01
         -2   -1    0    0    0  501 -0.00000000000E+00  0.00000000000E+00  0.13424752146E+04  0.13424752146E+04  0.00000000000E+00 0. -1.
          2   -1    0    0  501    0  0.00000000000E+00 -0.00000000000E+00 -0.12874568891E+04  0.12874568891E+04  0.00000000000E+00 0.  1.
         23    2    1    2    0    0 -0.52087699876E+03  0.23166383539E+03 -0.11556235642E+04  0.12917860858E+04  0.90909234178E+02 0.  0.
         13    1    3    3    0    0 -0.38506862642E+03  0.18074671125E+03 -0.76832131926E+03  0.87821686975E+03  0.00000000000E+00 0. -1.
        -13    1    3    3    0    0 -0.13580837234E+03  0.50917124139E+02 -0.38730224492E+03  0.41356921603E+03  0.00000000000E+00 0.  1.
         22    1    1    2    0    0  0.52087699876E+03 -0.23166383539E+03  0.12106418896E+04  0.13381460179E+04  0.00000000000E+00 0. -1.
<mgrwt>
<rscale>  0 0.26293565E+04</rscale>
<asrwt>0</asrwt>
<pdfrwt beam="1">  1        2 0.19807029E+00 0.26293565E+04</pdfrwt>
<pdfrwt beam="2">  1       -2 0.20653465E+00 0.26293565E+04</pdfrwt>
<totfact> 0.17887367E+00</totfact>
</mgrwt>
</event>
<event>
 6    1  0.4630212E-004  0.1130273E+04  0.7818608E-02  0.9176178E-01
          2   -1    0    0  501    0  0.00000000000E+00  0.00000000000E+00  0.23455629227E+04  0.23455629227E+04  0.00000000000E+00 0.  1.
         -2   -1    0    0    0  501 -0.00000000000E+00 -0.00000000000E+00 -0.13616321556E+03  0.13616321556E+03  0.00000000000E+00 0. -1.
         23    2    1    2    0    0 -0.39226417428E+03 -0.51836510874E+02  0.19868134998E+04  0.20277406473E+04  0.88011609768E+02 0.  0.
         13    1    3    3    0    0 -0.11736876076E+03 -0.52427274652E+02  0.72792087588E+03  0.73918390585E+03  0.00000000000E+00 0. -1.
        -13    1    3    3    0    0 -0.27489541353E+03  0.59076377809E+00  0.12588926239E+04  0.12885567415E+04  0.00000000000E+00 0.  1.
         22    1    1    2    0    0  0.39226417428E+03  0.51836510874E+02  0.22258620731E+03  0.45398549093E+03  0.00000000000E+00 0. -1.
<mgrwt>
<rscale>  0 0.11302732E+04</rscale>
<asrwt>0</asrwt>
<pdfrwt beam="1">  1        2 0.36085580E+00 0.11302732E+04</pdfrwt>
<pdfrwt beam="2">  1       -2 0.20948189E-01 0.11302732E+04</pdfrwt>
<totfact> 0.83852553E+01</totfact>
</mgrwt>
</event>
<event>
 6    1  0.4630212E-004  0.3918888E+04  0.7818608E-02  0.8021112E-01
          2   -1    0    0  501    0  0.00000000000E+00  0.00000000000E+00  0.20148074193E+04  0.20148074193E+04  0.00000000000E+00 0.  1.
         -2   -1    0    0    0  501 -0.00000000000E+00 -0.00000000000E+00 -0.19056022298E+04  0.19056022298E+04  0.00000000000E+00 0. -1.
         23    2    1    2    0    0  0.90278498859E+03  0.12520633850E+04  0.12604337242E+04  0.19947901138E+04  0.88379687697E+02 0.  0.
         11    1    3    3    0    0  0.76788657607E+03  0.10837358890E+04  0.10460701252E+04  0.16906791469E+04  0.00000000000E+00 0. -1.
        -11    1    3    3    0    0  0.13489841252E+03  0.16832749597E+03  0.21436359901E+03  0.30411096689E+03  0.00000000000E+00 0.  1.
         22    1    1    2    0    0 -0.90278498859E+03 -0.12520633850E+04 -0.11512285347E+04  0.19256195353E+04  0.00000000000E+00 0. -1.
<mgrwt>
<rscale>  0 0.39188884E+04</rscale>
<asrwt>0</asrwt>
<pdfrwt beam="1">  1        2 0.30997037E+00 0.39188884E+04</pdfrwt>
<pdfrwt beam="2">  1       -2 0.29316958E+00 0.39188884E+04</pdfrwt>
<totfact> 0.18216625E-01</totfact>
</mgrwt>
</event>
<event>
 6    1  0.4630212E-004  0.3706142E+04  0.7818608E-02  0.8066602E-01
         -2   -1    0    0    0  501 -0.00000000000E+00  0.00000000000E+00  0.27967693744E+04  0.27967693744E+04  0.00000000000E+00 0. -1.
          2   -1    0    0  501    0  0.00000000000E+00 -0.00000000000E+00 -0.12277993132E+04  0.12277993132E+04  0.00000000000E+00 0.  1.
         23    2    1    2    0    0 -0.40960156847E+03  0.24733916811E+03  0.27277243268E+04  0.27709094208E+04  0.92243733275E+02 0.  0.
         13    1    3    3    0    0 -0.12626878138E+03  0.11383442124E+03  0.11374376529E+04  0.11500723867E+04  0.00000000000E+00 0.  1.
        -13    1    3    3    0    0 -0.28333278709E+03  0.13350474686E+03  0.15902866739E+04  0.16208370341E+04  0.00000000000E+00 0. -1.
         22    1    1    2    0    0  0.40960156847E+03 -0.24733916811E+03 -0.11587542656E+04  0.12536592667E+04  0.00000000000E+00 0.  1.
<mgrwt>
<rscale>  0 0.37061417E+04</rscale>
<asrwt>0</asrwt>
<pdfrwt beam="1">  1        2 0.18889220E+00 0.37061417E+04</pdfrwt>
<pdfrwt beam="2">  1       -2 0.43027221E+00 0.37061417E+04</pdfrwt>
<totfact> 0.69019290E-02</totfact>
</mgrwt>
</event>
<event>
 6    1  0.4630212E-004  0.8098039E+03  0.7818608E-02  0.9545934E-01
          2   -1    0    0  501    0  0.00000000000E+00  0.00000000000E+00  0.16455975416E+04  0.16455975416E+04  0.00000000000E+00 0.  1.
         -2   -1    0    0    0  501 -0.00000000000E+00 -0.00000000000E+00 -0.99626775588E+02  0.99626775588E+02  0.00000000000E+00 0. -1.
         23    2    1    2    0    0 -0.26198932394E+03 -0.20560576002E+03  0.30602505884E+03  0.46133277538E+03  0.90909067666E+02 0.  0.
         11    1    3    3    0    0 -0.15090339126E+03 -0.17190773686E+03  0.21325677299E+03  0.31273399993E+03  0.00000000000E+00 0. -1.
        -11    1    3    3    0    0 -0.11108593268E+03 -0.33698023163E+02  0.92768285853E+02  0.14859877545E+03  0.00000000000E+00 0.  1.
         22    1    1    2    0    0  0.26198932394E+03  0.20560576002E+03  0.12399457072E+04  0.12838915418E+04  0.00000000000E+00 0.  1.
<mgrwt>
<rscale>  0 0.80980387E+03</rscale>
<asrwt>0</asrwt>
<pdfrwt beam="1">  1        2 0.25316883E+00 0.80980387E+03</pdfrwt>
<pdfrwt beam="2">  1       -2 0.15327197E-01 0.80980387E+03</pdfrwt>
<totfact> 0.35933154E+02</totfact>
</mgrwt>
</event>
<event>
 6    1  0.4630212E-004  0.2038581E+04  0.7818608E-02  0.8588792E-01
         -2   -1    0    0    0  501 -0.00000000000E+00  0.00000000000E+00  0.75317147895E+03  0.75317147895E+03  0.00000000000E+00 0. -1.
          2   -1    0    0  501    0  0.00000000000E+00 -0.00000000000E+00 -0.13794380083E+04  0.13794380083E+04  0.00000000000E+00 0.  1.
         23    2    1    2    0    0 -0.45995720170E+03 -0.41351496538E+03 -0.11586867791E+04  0.13165049741E+04  0.89861229361E+02 0.  0.
         13    1    3    3    0    0 -0.38260752155E+03 -0.37957529902E+03 -0.96736914939E+03  0.11073703059E+04  0.00000000000E+00 0. -1.
        -13    1    3    3    0    0 -0.77349680151E+02 -0.33939666365E+02 -0.19131762975E+03  0.20913466816E+03  0.00000000000E+00 0.  1.
         22    1    1    2    0    0  0.45995720170E+03  0.41351496538E+03  0.53242024983E+03  0.81610451317E+03  0.00000000000E+00 0. -1.
<mgrwt>
<rscale>  0 0.20385812E+04</rscale>
<asrwt>0</asrwt>
<pdfrwt beam="1">  1        2 0.21222123E+00 0.20385812E+04</pdfrwt>
<pdfrwt beam="2">  1       -2 0.11587254E+00 0.20385812E+04</pdfrwt>
<totfact> 0.79729667E+00</totfact>
</mgrwt>
</event>
<event>
 6    1  0.4630212E-004  0.3068322E+04  0.7818608E-02  0.8224486E-01
          1   -1    0    0  501    0  0.00000000000E+00  0.00000000000E+00  0.17128187932E+04  0.17128187932E+04  0.00000000000E+00 0.  1.
         -1   -1    0    0    0  501 -0.00000000000E+00 -0.00000000000E+00 -0.13741385619E+04  0.13741385619E+04  0.00000000000E+00 0. -1.
         23    2    1    2    0    0 -0.13467937521E+04  0.64097656736E+03 -0.18586049229E+03  0.15058668007E+04  0.91576899139E+02 0.  0.
         11    1    3    3    0    0 -0.56086443558E+03  0.21729683228E+03 -0.77659316608E+02  0.60647984128E+03  0.00000000000E+00 0.  1.
        -11    1    3    3    0    0 -0.78592931650E+03  0.42367973508E+03 -0.10820117568E+03  0.89938695947E+03  0.00000000000E+00 0. -1.
         22    1    1    2    0    0  0.13467937521E+04 -0.64097656736E+03  0.52454072358E+03  0.15810905544E+04  0.00000000000E+00 0.  1.
<mgrwt>
<rscale>  0 0.30683222E+04</rscale>
<asrwt>0</asrwt>
<pdfrwt beam="1">  1        1 0.26351058E+00 0.30683222E+04</pdfrwt>
<pdfrwt beam="2">  1       -1 0.21140593E+00 0.30683222E+04</pdfrwt>
<totfact> 0.49706494E-01</totfact>
</mgrwt>
</event>
<event>
 6    1  0.4630212E-004  0.4662458E+04  0.7818608E-02  0.7882797E-01
          2   -1    0    0  501    0  0.00000000000E+00  0.00000000000E+00  0.33993777871E+04  0.33993777871E+04  0.00000000000E+00 0.  1.
         -2   -1    0    0    0  501 -0.00000000000E+00 -0.00000000000E+00 -0.15987126854E+04  0.15987126854E+04  0.00000000000E+00 0. -1.
         23    2    1    2    0    0 -0.29775953979E+03 -0.17189792991E+04 -0.75552827075E+03  0.19033085526E+04  0.90608520585E+02 0.  0.
         13    1    3    3    0    0 -0.65444798499E+02 -0.58793265968E+03 -0.28166184256E+03  0.65519556433E+03  0.00000000000E+00 0. -1.
        -13    1    3    3    0    0 -0.23231474129E+03 -0.11310466395E+04 -0.47386642819E+03  0.12481129882E+04  0.00000000000E+00 0.  1.
         22    1    1    2    0    0  0.29775953979E+03  0.17189792991E+04  0.25561933724E+04  0.30947819199E+04  0.00000000000E+00 0.  1.
<mgrwt>
<rscale>  0 0.46624579E+04</rscale>
<asrwt>0</asrwt>
<pdfrwt beam="1">  1        2 0.52298120E+00 0.46624579E+04</pdfrwt>
<pdfrwt beam="2">  1       -2 0.24595580E+00 0.46624579E+04</pdfrwt>
<totfact> 0.48494934E-02</totfact>
</mgrwt>
</event>
<event>
 6    1  0.4630212E-004  0.9303963E+03  0.7818608E-02  0.9388362E-01
          2   -1    0    0  501    0  0.00000000000E+00  0.00000000000E+00  0.27964240031E+03  0.27964240031E+03  0.00000000000E+00 0.  1.
         -2   -1    0    0    0  501 -0.00000000000E+00 -0.00000000000E+00 -0.77387883003E+03  0.77387883003E+03  0.00000000000E+00 0. -1.
         23    2    1    2    0    0 -0.43152943838E+03  0.94327180727E+02 -0.10070331894E+03  0.46192712753E+03  0.90112371459E+02 0.  0.
         13    1    3    3    0    0 -0.18048198120E+03  0.76968625959E+02 -0.70426825589E+02  0.20846547120E+03  0.00000000000E+00 0.  1.
        -13    1    3    3    0    0 -0.25104745718E+03  0.17358554768E+02 -0.30276493353E+02  0.25346165633E+03  0.00000000000E+00 0. -1.
         22    1    1    2    0    0  0.43152943838E+03 -0.94327180727E+02 -0.39353311078E+03  0.59159410282E+03  0.00000000000E+00 0.  1.
<mgrwt>
<rscale>  0 0.93039633E+03</rscale>
<asrwt>0</asrwt>
<pdfrwt beam="1">  1        2 0.43021909E-01 0.93039633E+03</pdfrwt>
<pdfrwt beam="2">  1       -2 0.11905828E+00 0.93039633E+03</pdfrwt>
<totfact> 0.64393147E+01</totfact>
</mgrwt>
</event>
<event>
 6    1  0.4630212E-004  0.5479179E+03  0.7818608E-02  0.1001977E+00
          2   -1    0    0  501    0  0.00000000000E+00  0.00000000000E+00  0.10019425117E+04  0.10019425117E+04  0.00000000000E+00 0.  1.
         -2   -1    0    0    0  501 -0.00000000000E+00 -0.00000000000E+00 -0.74908008913E+02  0.74908008913E+02  0.00000000000E+00 0. -1.
         23    2    1    2    0    0  0.11816494414E+03 -0.81267666660E+02  0.91736413652E+03  0.93311150830E+03  0.92589093783E+02 0.  0.
         11    1    3    3    0    0  0.14349925851E+02 -0.59260434369E+02  0.43197266163E+03  0.43625462731E+03  0.00000000000E+00 0.  1.
        -11    1    3    3    0    0  0.10381501828E+03 -0.22007232292E+02  0.48539147489E+03  0.49685688100E+03  0.00000000000E+00 0. -1.
         22    1    1    2    0    0 -0.11816494414E+03  0.81267666660E+02  0.96703662330E+01  0.14373901228E+03  0.00000000000E+00 0. -1.
<mgrwt>
<rscale>  0 0.54791794E+03</rscale>
<asrwt>0</asrwt>
<pdfrwt beam="1">  1        2 0.15414499E+00 0.54791794E+03</pdfrwt>
<pdfrwt beam="2">  1       -2 0.11524310E-01 0.54791794E+03</pdfrwt>
<totfact> 0.13769645E+03</totfact>
</mgrwt>
</event>
<event>
 6    1  0.4630212E-004  0.3253821E+04  0.7818608E-02  0.8174746E-01
         -2   -1    0    0    0  501 -0.00000000000E+00  0.00000000000E+00  0.59209989670E+03  0.59209989670E+03  0.00000000000E+00 0. -1.
          2   -1    0    0  501    0  0.00000000000E+00 -0.00000000000E+00 -0.44702561555E+04  0.44702561555E+04  0.00000000000E+00 0.  1.
         23    2    1    2    0    0  0.83409249858E+03  0.38677473292E+03 -0.40263383135E+04  0.41310865361E+04  0.95764107516E+02 0.  0.
         11    1    3    3    0    0  0.27589564924E+03  0.17822969706E+03 -0.14124500678E+04  0.14501377273E+04  0.00000000000E+00 0. -1.
        -11    1    3    3    0    0  0.55819684934E+03  0.20854503586E+03 -0.26138882457E+04  0.26809488089E+04  0.00000000000E+00 0.  1.
         22    1    1    2    0    0 -0.83409249858E+03 -0.38677473292E+03  0.14818205468E+03  0.93126951606E+03  0.00000000000E+00 0. -1.
<mgrwt>
<rscale>  0 0.32538213E+04</rscale>
<asrwt>0</asrwt>
<pdfrwt beam="1">  1        2 0.68773168E+00 0.32538213E+04</pdfrwt>
<pdfrwt beam="2">  1       -2 0.91092296E-01 0.32538213E+04</pdfrwt>
<totfact> 0.11300065E-01</totfact>
</mgrwt>
</event>
<event>
 6    1  0.4630212E-004  0.1915811E+04  0.7818608E-02  0.8647026E-01
         -3   -1    0    0    0  501 -0.00000000000E+00  0.00000000000E+00  0.26801500250E+03  0.26801500250E+03  0.00000000000E+00 0. -1.
          3   -1    0    0  501    0  0.00000000000E+00 -0.00000000000E+00 -0.34236252489E+04  0.34236252489E+04  0.00000000000E+00 0.  1.
         23    2    1    2    0    0  0.83785870209E+03 -0.45996288241E+03 -0.15757344099E+04  0.18451352510E+04  0.89510368058E+02 0.  0.
         11    1    3    3    0    0  0.71228932824E+03 -0.40434373527E+03 -0.14014716826E+04  0.16232599362E+04  0.00000000000E+00 0.  1.
        -11    1    3    3    0    0  0.12556937385E+03 -0.55619147141E+02 -0.17426272734E+03  0.22187531480E+03  0.00000000000E+00 0. -1.
         22    1    1    2    0    0 -0.83785870209E+03  0.45996288241E+03 -0.15798758365E+04  0.18465050004E+04  0.00000000000E+00 0.  1.
<mgrwt>
<rscale>  0 0.19158110E+04</rscale>
<asrwt>0</asrwt>
<pdfrwt beam="1">  1        3 0.52671160E+00 0.19158110E+04</pdfrwt>
<pdfrwt beam="2">  1       -3 0.41233075E-01 0.19158110E+04</pdfrwt>
<totfact> 0.36589165E-02</totfact>
</mgrwt>
</event>
<event>
 6    1  0.4630212E-004  0.1553534E+04  0.7818608E-02  0.8849614E-01
         -2   -1    0    0    0  501 -0.00000000000E+00  0.00000000000E+00  0.27967488076E+03  0.27967488076E+03  0.00000000000E+00 0.  1.
          2   -1    0    0  501    0  0.00000000000E+00 -0.00000000000E+00 -0.21573864025E+04  0.21573864025E+04  0.00000000000E+00 0. -1.
         23    2    1    2    0    0  0.33395828938E+03 -0.32650982656E+03  0.27412406453E+02  0.47552260465E+03  0.85049994838E+02 0.  0.
         13    1    3    3    0    0  0.72908767644E+02 -0.11472934574E+03  0.30681674437E+02  0.13935521634E+03  0.00000000000E+00 0.  1.
        -13    1    3    3    0    0  0.26104952174E+03 -0.21178048081E+03 -0.32692679840E+01  0.33616738831E+03  0.00000000000E+00 0. -1.
         22    1    1    2    0    0 -0.33395828938E+03  0.32650982656E+03 -0.19051239282E+04  0.19615386786E+04  0.00000000000E+00 0. -1.
<mgrwt>
<rscale>  0 0.15535338E+04</rscale>
<asrwt>0</asrwt>
<pdfrwt beam="1">  1        2 0.33190560E+00 0.15535338E+04</pdfrwt>
<pdfrwt beam="2">  1       -2 0.43026905E-01 0.15535338E+04</pdfrwt>
<totfact> 0.26912094E+01</totfact>
</mgrwt>
</event>
<event>
 6    1  0.4630212E-004  0.1904393E+04  0.7818608E-02  0.8652673E-01
         -2   -1    0    0    0  501 -0.00000000000E+00  0.00000000000E+00  0.41389875076E+03  0.41389875076E+03  0.00000000000E+00 0.  1.
          2   -1    0    0  501    0  0.00000000000E+00 -0.00000000000E+00 -0.21905795667E+04  0.21905795667E+04  0.00000000000E+00 0. -1.
         23    2    1    2    0    0 -0.62286005074E+03  0.81263525881E+02 -0.18651751950E+04  0.19701364076E+04  0.89445810773E+02 0.  0.
         13    1    3    3    0    0 -0.19789969333E+03  0.17403389837E+02 -0.72290813035E+03  0.74970883116E+03  0.00000000000E+00 0.  1.
        -13    1    3    3    0    0 -0.42496035741E+03  0.63860136044E+02 -0.11422670647E+04  0.12204275765E+04  0.00000000000E+00 0. -1.
         22    1    1    2    0    0  0.62286005074E+03 -0.81263525881E+02  0.88494379091E+02  0.63434190983E+03  0.00000000000E+00 0.  1.
<mgrwt>
<rscale>  0 0.19043930E+04</rscale>
<asrwt>0</asrwt>
<pdfrwt beam="1">  1        2 0.33701225E+00 0.19043930E+04</pdfrwt>
<pdfrwt beam="2">  1       -2 0.63676730E-01 0.19043930E+04</pdfrwt>
<totfact> 0.11168052E+01</totfact>
</mgrwt>
</event>
<event>
 6    1  0.4630212E-004  0.1995033E+04  0.7818608E-02  0.8608946E-01
         -2   -1    0    0    0  501 -0.00000000000E+00  0.00000000000E+00  0.25756417534E+04  0.25756417534E+04  0.00000000000E+00 0. -1.
          2   -1    0    0  501    0  0.00000000000E+00 -0.00000000000E+00 -0.38632670453E+03  0.38632670453E+03  0.00000000000E+00 0.  1.
         23    2    1    2    0    0  0.73487911261E+03  0.63894105288E+03  0.79025989875E+03  0.12573722324E+04  0.90450229003E+02 0.  0.
         11    1    3    3    0    0  0.13170169598E+03  0.14043522200E+03  0.19639879043E+03  0.27502704082E+03  0.00000000000E+00 0.  1.
        -11    1    3    3    0    0  0.60317741663E+03  0.49850583088E+03  0.59386110832E+03  0.98234519153E+03  0.00000000000E+00 0. -1.
         22    1    1    2    0    0 -0.73487911261E+03 -0.63894105288E+03  0.13990551502E+04  0.17045962256E+04  0.00000000000E+00 0.  1.
<mgrwt>
<rscale>  0 0.19950330E+04</rscale>
<asrwt>0</asrwt>
<pdfrwt beam="1">  1        2 0.59434879E-01 0.19950330E+04</pdfrwt>
<pdfrwt beam="2">  1       -2 0.39625257E+00 0.19950330E+04</pdfrwt>
<totfact> 0.60543462E-01</totfact>
</mgrwt>
</event>
<event>
 6    1  0.4630212E-004  0.2841196E+04  0.7818608E-02  0.8290591E-01
          2   -1    0    0  501    0  0.00000000000E+00  0.00000000000E+00  0.13291055770E+04  0.13291055770E+04  0.00000000000E+00 0.  1.
         -2   -1    0    0    0  501 -0.00000000000E+00 -0.00000000000E+00 -0.15183888407E+04  0.15183888407E+04  0.00000000000E+00 0. -1.
         23    2    1    2    0    0  0.40418243628E+03  0.38081596458E+03  0.12139194943E+04  0.13384012394E+04  0.96607961513E+02 0.  0.
         11    1    3    3    0    0  0.14216581143E+03  0.19008189482E+03  0.45541705820E+03  0.51356298696E+03  0.00000000000E+00 0. -1.
        -11    1    3    3    0    0  0.26201662485E+03  0.19073406976E+03  0.75850243613E+03  0.82483825243E+03  0.00000000000E+00 0.  1.
         22    1    1    2    0    0 -0.40418243628E+03 -0.38081596458E+03 -0.14032027581E+04  0.15090931783E+04  0.00000000000E+00 0. -1.
<mgrwt>
<rscale>  0 0.28411963E+04</rscale>
<asrwt>0</asrwt>
<pdfrwt beam="1">  1        2 0.20447778E+00 0.28411963E+04</pdfrwt>
<pdfrwt beam="2">  1       -2 0.23359828E+00 0.28411963E+04</pdfrwt>
<totfact> 0.11193815E+00</totfact>
</mgrwt>
</event>
<event>
 6    1  0.4630212E-004  0.2494202E+04  0.7818608E-02  0.8405054E-01
          2   -1    0    0  501    0  0.00000000000E+00  0.00000000000E+00  0.11064783377E+04  0.11064783377E+04  0.00000000000E+00 0.  1.
         -2   -1    0    0    0  501 -0.00000000000E+00 -0.00000000000E+00 -0.14055957395E+04  0.14055957395E+04  0.00000000000E+00 0. -1.
         23    2    1    2    0    0  0.62499020680E+03  0.98717122143E+03  0.28490910145E+03  0.12058555904E+04  0.88287766604E+02 0.  0.
         13    1    3    3    0    0  0.14502653480E+03  0.30088466537E+03  0.70402212299E+02  0.34135135732E+03  0.00000000000E+00 0.  1.
        -13    1    3    3    0    0  0.47996367200E+03  0.68628655606E+03  0.21450688915E+03  0.86450423305E+03  0.00000000000E+00 0. -1.
         22    1    1    2    0    0 -0.62499020680E+03 -0.98717122143E+03 -0.58402650320E+03  0.13062184869E+04  0.00000000000E+00 0. -1.
<mgrwt>
<rscale>  0 0.24942023E+04</rscale>
<asrwt>0</asrwt>
<pdfrwt beam="1">  1        2 0.17022744E+00 0.24942023E+04</pdfrwt>
<pdfrwt beam="2">  1       -2 0.21624550E+00 0.24942023E+04</pdfrwt>
<totfact> 0.20111084E+00</totfact>
</mgrwt>
</event>
<event>
 6    1  0.8822574E-004  0.2919615E+04  0.7818608E-02  0.8267065E-01
          2   -1    0    0  501    0  0.00000000000E+00  0.00000000000E+00  0.23096601151E+04  0.23096601151E+04  0.00000000000E+00 0.  1.
         -2   -1    0    0    0  501 -0.00000000000E+00 -0.00000000000E+00 -0.92266283738E+03  0.92266283738E+03  0.00000000000E+00 0. -1.
         23    2    1    2    0    0 -0.97477750488E+03  0.10701100946E+04  0.49762835836E+03  0.15334103964E+04  0.91578720467E+02 0.  0.
         13    1    3    3    0    0 -0.46122175167E+03  0.55965473860E+03  0.21897195740E+03  0.75755372666E+03  0.00000000000E+00 0.  1.
        -13    1    3    3    0    0 -0.51355575321E+03  0.51045535601E+03  0.27865640096E+03  0.77585666971E+03  0.00000000000E+00 0. -1.
         22    1    1    2    0    0  0.97477750488E+03 -0.10701100946E+04  0.88936891935E+03  0.16989125561E+04  0.00000000000E+00 0. -1.
<mgrwt>
<rscale>  0 0.29196147E+04</rscale>
<asrwt>0</asrwt>
<pdfrwt beam="1">  1        2 0.35533232E+00 0.29196147E+04</pdfrwt>
<pdfrwt beam="2">  1       -2 0.14194813E+00 0.29196147E+04</pdfrwt>
<totfact> 0.13363069E+00</totfact>
</mgrwt>
</event>
<event>
 6    1  0.4630212E-004  0.1039964E+04  0.7818608E-02  0.9265767E-01
          2   -1    0    0  501    0  0.00000000000E+00  0.00000000000E+00  0.34865461520E+03  0.34865461520E+03  0.00000000000E+00 0.  1.
         -2   -1    0    0    0  501 -0.00000000000E+00 -0.00000000000E+00 -0.77549905353E+03  0.77549905353E+03  0.00000000000E+00 0. -1.
         23    2    1    2    0    0  0.15671713495E+03  0.16541228411E+03 -0.71552935390E+03  0.75637593069E+03  0.90558313355E+02 0.  0.
         13    1    3    3    0    0  0.43318564987E+02  0.96928923985E+02 -0.23403816256E+03  0.25699333827E+03  0.00000000000E+00 0.  1.
        -13    1    3    3    0    0  0.11339856996E+03  0.68483360122E+02 -0.48149119133E+03  0.49938259242E+03  0.00000000000E+00 0. -1.
         22    1    1    2    0    0 -0.15671713495E+03 -0.16541228411E+03  0.28868491557E+03  0.36777773804E+03  0.00000000000E+00 0.  1.
<mgrwt>
<rscale>  0 0.10399641E+04</rscale>
<asrwt>0</asrwt>
<pdfrwt beam="1">  1        2 0.53639172E-01 0.10399641E+04</pdfrwt>
<pdfrwt beam="2">  1       -2 0.11930755E+00 0.10399641E+04</pdfrwt>
<totfact> 0.49789739E+01</totfact>
</mgrwt>
</event>
<event>
 6    1  0.4630212E-004  0.3035320E+04  0.7818608E-02  0.8233716E-01
          2   -1    0    0  501    0  0.00000000000E+00  0.00000000000E+00  0.14801761840E+04  0.14801761840E+04  0.00000000000E+00 0.  1.
         -2   -1    0    0    0  501 -0.00000000000E+00 -0.00000000000E+00 -0.15560932303E+04  0.15560932303E+04  0.00000000000E+00 0. -1.
         23    2    1    2    0    0 -0.74846115083E+03 -0.10670638241E+04 -0.81307917291E+03  0.15388625558E+04  0.90448467561E+02 0.  0.
         13    1    3    3    0    0 -0.63104644925E+03 -0.86285120729E+03 -0.63291025204E+03  0.12422991645E+04  0.00000000000E+00 0. -1.
        -13    1    3    3    0    0 -0.11741470158E+03 -0.20421261677E+03 -0.18016892087E+03  0.29656339127E+03  0.00000000000E+00 0.  1.
         22    1    1    2    0    0  0.74846115083E+03  0.10670638241E+04  0.73716212667E+03  0.14974068585E+04  0.00000000000E+00 0.  1.
<mgrwt>
<rscale>  0 0.30353202E+04</rscale>
<asrwt>0</asrwt>
<pdfrwt beam="1">  1        2 0.22771941E+00 0.30353202E+04</pdfrwt>
<pdfrwt beam="2">  1       -2 0.23939896E+00 0.30353202E+04</pdfrwt>
<totfact> 0.83071363E-01</totfact>
</mgrwt>
</event>
<event>
 6    1  0.4630212E-004  0.1657566E+04  0.7818608E-02  0.8785943E-01
          4   -1    0    0  501    0  0.00000000000E+00  0.00000000000E+00  0.26662389823E+03  0.26662389823E+03  0.00000000000E+00 0.  1.
         -4   -1    0    0    0  501 -0.00000000000E+00 -0.00000000000E+00 -0.25762183909E+04  0.25762183909E+04  0.00000000000E+00 0. -1.
         23    2    1    2    0    0 -0.67057691297E+03  0.12489634335E+02 -0.33085349788E+03  0.75352534054E+03  0.92233478766E+02 0.  0.
         13    1    3    3    0    0 -0.14926472441E+03  0.87815053546E+00 -0.32507019779E+02  0.15276594986E+03  0.00000000000E+00 0.  1.
        -13    1    3    3    0    0 -0.52131218855E+03  0.11611483799E+02 -0.29834647810E+03  0.60075939068E+03  0.00000000000E+00 0. -1.
         22    1    1    2    0    0  0.67057691297E+03 -0.12489634335E+02 -0.19787409948E+04  0.20893169486E+04  0.00000000000E+00 0. -1.
<mgrwt>
<rscale>  0 0.16575662E+04</rscale>
<asrwt>0</asrwt>
<pdfrwt beam="1">  1        4 0.41019060E-01 0.16575662E+04</pdfrwt>
<pdfrwt beam="2">  1       -4 0.39634130E+00 0.16575662E+04</pdfrwt>
<totfact> 0.80968509E-02</totfact>
</mgrwt>
</event>
<event>
 6    1  0.4630212E-004  0.1529086E+04  0.7818608E-02  0.8865338E-01
         -1   -1    0    0    0  501 -0.00000000000E+00  0.00000000000E+00  0.52971397227E+03  0.52971397227E+03  0.00000000000E+00 0. -1.
          1   -1    0    0  501    0  0.00000000000E+00 -0.00000000000E+00 -0.11034750793E+04  0.11034750793E+04  0.00000000000E+00 0.  1.
         23    2    1    2    0    0  0.25947303558E+02  0.75796548803E+03 -0.36533558331E+03  0.84666114832E+03  0.90443728635E+02 0.  0.
         11    1    3    3    0    0  0.41945131502E+02  0.73165313249E+03 -0.35367700325E+03  0.81373406157E+03  0.00000000000E+00 0. -1.
        -11    1    3    3    0    0 -0.15997827945E+02  0.26312355542E+02 -0.11658580052E+02  0.32927086751E+02  0.00000000000E+00 0.  1.
         22    1    1    2    0    0 -0.25947303558E+02 -0.75796548803E+03 -0.20842552369E+03  0.78652790321E+03  0.00000000000E+00 0.  1.
<mgrwt>
<rscale>  0 0.15290862E+04</rscale>
<asrwt>0</asrwt>
<pdfrwt beam="1">  1        1 0.16976539E+00 0.15290862E+04</pdfrwt>
<pdfrwt beam="2">  1       -1 0.81494459E-01 0.15290862E+04</pdfrwt>
<totfact> 0.18238568E+01</totfact>
</mgrwt>
</event>
<event>
 6    1  0.4630212E-004  0.1972981E+04  0.7818608E-02  0.8619358E-01
         -2   -1    0    0    0  501 -0.00000000000E+00  0.00000000000E+00  0.94758636808E+03  0.94758636808E+03  0.00000000000E+00 0. -1.
          2   -1    0    0  501    0  0.00000000000E+00 -0.00000000000E+00 -0.10269913790E+04  0.10269913790E+04  0.00000000000E+00 0.  1.
         23    2    1    2    0    0 -0.29293843972E+03  0.31457328237E+03  0.84649050225E+03  0.95376837176E+03  0.91425691756E+02 0.  0.
         11    1    3    3    0    0 -0.24482706354E+02  0.35117304435E+02  0.15820142466E+03  0.16389117958E+03  0.00000000000E+00 0.  1.
        -11    1    3    3    0    0 -0.26845573336E+03  0.27945597794E+03  0.68828907759E+03  0.78987719217E+03  0.00000000000E+00 0. -1.
         22    1    1    2    0    0  0.29293843972E+03 -0.31457328237E+03 -0.92589551316E+03  0.10208093753E+04  0.00000000000E+00 0.  1.
<mgrwt>
<rscale>  0 0.19729805E+04</rscale>
<asrwt>0</asrwt>
<pdfrwt beam="1">  1        2 0.15799867E+00 0.19729805E+04</pdfrwt>
<pdfrwt beam="2">  1       -2 0.14578252E+00 0.19729805E+04</pdfrwt>
<totfact> 0.72811602E+00</totfact>
</mgrwt>
</event>
<event>
 6    1  0.4630212E-004  0.3869691E+04  0.7818608E-02  0.8031363E-01
         -2   -1    0    0    0  501 -0.00000000000E+00  0.00000000000E+00  0.10879841867E+04  0.10879841867E+04  0.00000000000E+00 0. -1.
          2   -1    0    0  501    0  0.00000000000E+00 -0.00000000000E+00 -0.34408832365E+04  0.34408832365E+04  0.00000000000E+00 0.  1.
         23    2    1    2    0    0  0.69361981047E+03 -0.17903725993E+04 -0.90727528146E+03  0.21254593085E+04  0.88805123066E+02 0.  0.
         11    1    3    3    0    0  0.38932981958E+03 -0.10475914628E+04 -0.57323090200E+03  0.12560331399E+04  0.00000000000E+00 0. -1.
        -11    1    3    3    0    0  0.30428999088E+03 -0.74278113649E+03 -0.33404437947E+03  0.86942616865E+03  0.00000000000E+00 0.  1.
         22    1    1    2    0    0 -0.69361981047E+03  0.17903725993E+04 -0.14456237684E+04  0.24034081147E+04  0.00000000000E+00 0.  1.
<mgrwt>
<rscale>  0 0.38696907E+04</rscale>
<asrwt>0</asrwt>
<pdfrwt beam="1">  1        2 0.52936665E+00 0.38696907E+04</pdfrwt>
<pdfrwt beam="2">  1       -2 0.16738218E+00 0.38696907E+04</pdfrwt>
<totfact> 0.15829159E-01</totfact>
</mgrwt>
</event>
<event>
 6    1  0.4630212E-004  0.1422189E+04  0.7818608E-02  0.8937912E-01
          2   -1    0    0  501    0  0.00000000000E+00  0.00000000000E+00  0.41613891957E+04  0.41613891957E+04  0.00000000000E+00 0.  1.
         -2   -1    0    0    0  501 -0.00000000000E+00 -0.00000000000E+00 -0.12151125937E+03  0.12151125937E+03  0.00000000000E+00 0. -1.
         23    2    1    2    0    0  0.53981370329E+03 -0.44041268009E+03  0.24094193458E+04  0.25098360517E+04  0.92807647858E+02 0.  0.
         13    1    3    3    0    0  0.99570641013E+02 -0.56555052126E+02  0.30233879368E+03  0.32329790076E+03  0.00000000000E+00 0. -1.
        -13    1    3    3    0    0  0.44024306228E+03 -0.38385762796E+03  0.21070805522E+04  0.21865381510E+04  0.00000000000E+00 0.  1.
         22    1    1    2    0    0 -0.53981370329E+03  0.44041268009E+03  0.16304585905E+04  0.17730644033E+04  0.00000000000E+00 0. -1.
<mgrwt>
<rscale>  0 0.14221894E+04</rscale>
<asrwt>0</asrwt>
<pdfrwt beam="1">  1        2 0.64021361E+00 0.14221894E+04</pdfrwt>
<pdfrwt beam="2">  1       -2 0.18694043E-01 0.14221894E+04</pdfrwt>
<totfact> 0.60550325E+00</totfact>
</mgrwt>
</event>
<event>
 6    1  0.4630212E-004  0.3403982E+04  0.7818608E-02  0.8136930E-01
         -2   -1    0    0    0  501 -0.00000000000E+00  0.00000000000E+00  0.83526348593E+03  0.83526348593E+03  0.00000000000E+00 0. -1.
          2   -1    0    0  501    0  0.00000000000E+00 -0.00000000000E+00 -0.34680957293E+04  0.34680957293E+04  0.00000000000E+00 0.  1.
         23    2    1    2    0    0 -0.15051545008E+04 -0.53243983842E+02 -0.23162461363E+04  0.27643492229E+04  0.91134346019E+02 0.  0.
         11    1    3    3    0    0 -0.33461910524E+03 -0.44663333647E+02 -0.48403157990E+03  0.59012823124E+03  0.00000000000E+00 0.  1.
        -11    1    3    3    0    0 -0.11705353956E+04 -0.85806501948E+01 -0.18322145564E+04  0.21742209916E+04  0.00000000000E+00 0. -1.
         22    1    1    2    0    0  0.15051545008E+04  0.53243983842E+02 -0.31658610706E+03  0.15390099923E+04  0.00000000000E+00 0. -1.
<mgrwt>
<rscale>  0 0.34039822E+04</rscale>
<asrwt>0</asrwt>
<pdfrwt beam="1">  1        2 0.53355320E+00 0.34039822E+04</pdfrwt>
<pdfrwt beam="2">  1       -2 0.12850207E+00 0.34039822E+04</pdfrwt>
<totfact> 0.31648368E-01</totfact>
</mgrwt>
</event>
<event>
 6    1  0.4630212E-004  0.4363153E+04  0.7818608E-02  0.7935043E-01
          2   -1    0    0  501    0  0.00000000000E+00  0.00000000000E+00  0.21573163978E+04  0.21573163978E+04  0.00000000000E+00 0.  1.
         -2   -1    0    0    0  501 -0.00000000000E+00 -0.00000000000E+00 -0.22061092819E+04  0.22061092819E+04  0.00000000000E+00 0. -1.
         23    2    1    2    0    0  0.43345151661E+03  0.21178780271E+04 -0.31094428055E+03  0.21858098023E+04  0.88264324872E+02 0.  0.
         11    1    3    3    0    0  0.25665313149E+03  0.14280502748E+04 -0.18589609388E+03  0.14627904070E+04  0.00000000000E+00 0.  1.
        -11    1    3    3    0    0  0.17679838512E+03  0.68982775234E+03 -0.12504818667E+03  0.72301939523E+03  0.00000000000E+00 0. -1.
         22    1    1    2    0    0 -0.43345151661E+03 -0.21178780271E+04  0.26215139648E+03  0.21776158774E+04  0.00000000000E+00 0.  1.
<mgrwt>
<rscale>  0 0.43631529E+04</rscale>
<asrwt>0</asrwt>
<pdfrwt beam="1">  1        2 0.33189483E+00 0.43631529E+04</pdfrwt>
<pdfrwt beam="2">  1       -2 0.33940143E+00 0.43631529E+04</pdfrwt>
<totfact> 0.75822727E-02</totfact>
</mgrwt>
</event>
<event>
 6    1  0.4630212E-004  0.1452159E+04  0.7818608E-02  0.8916905E-01
          2   -1    0    0  501    0  0.00000000000E+00  0.00000000000E+00  0.10997088005E+04  0.10997088005E+04  0.00000000000E+00 0.  1.
         -2   -1    0    0    0  501 -0.00000000000E+00 -0.00000000000E+00 -0.47939196899E+03  0.47939196899E+03  0.00000000000E+00 0. -1.
         23    2    1    2    0    0  0.15311236273E+03  0.55420038058E+01  0.10799812756E+04  0.10945747015E+04  0.90885159100E+02 0.  0.
         11    1    3    3    0    0  0.55833963014E+02  0.37479850395E+02  0.27473898848E+03  0.28284922203E+03  0.00000000000E+00 0. -1.
        -11    1    3    3    0    0  0.97278399712E+02 -0.31937846589E+02  0.80524228714E+03  0.81172547952E+03  0.00000000000E+00 0.  1.
         22    1    1    2    0    0 -0.15311236273E+03 -0.55420038058E+01 -0.45966444406E+03  0.48452606799E+03  0.00000000000E+00 0. -1.
<mgrwt>
<rscale>  0 0.14521592E+04</rscale>
<asrwt>0</asrwt>
<pdfrwt beam="1">  1        2 0.16918597E+00 0.14521592E+04</pdfrwt>
<pdfrwt beam="2">  1       -2 0.73752611E-01 0.14521592E+04</pdfrwt>
<totfact> 0.35029184E+01</totfact>
</mgrwt>
</event>
<event>
 6    1  0.4630212E-004  0.1440061E+04  0.7818608E-02  0.8925320E-01
         -2   -1    0    0    0  501 -0.00000000000E+00  0.00000000000E+00  0.19909335990E+03  0.19909335990E+03  0.00000000000E+00 0. -1.
          2   -1    0    0  501    0  0.00000000000E+00 -0.00000000000E+00 -0.26040258535E+04  0.26040258535E+04  0.00000000000E+00 0.  1.
         23    2    1    2    0    0  0.32325375185E+03  0.58648665361E+03 -0.17028494396E+04  0.18328717204E+04  0.10612703026E+03 0.  0.
         13    1    3    3    0    0  0.18799382010E+03  0.23408606944E+03 -0.78294757303E+03  0.83853733752E+03  0.00000000000E+00 0.  1.
        -13    1    3    3    0    0  0.13525993175E+03  0.35240058417E+03 -0.91990186656E+03  0.99433438287E+03  0.00000000000E+00 0. -1.
         22    1    1    2    0    0 -0.32325375185E+03 -0.58648665361E+03 -0.70208305398E+03  0.97024749298E+03  0.00000000000E+00 0. -1.
<mgrwt>
<rscale>  0 0.14400615E+04</rscale>
<asrwt>0</asrwt>
<pdfrwt beam="1">  1        2 0.40061934E+00 0.14400615E+04</pdfrwt>
<pdfrwt beam="2">  1       -2 0.30629750E-01 0.14400615E+04</pdfrwt>
<totfact> 0.29093604E+01</totfact>
</mgrwt>
</event>
<event>
 6    1  0.4630212E-004  0.1172449E+04  0.7818608E-02  0.9137320E-01
         -2   -1    0    0    0  501 -0.00000000000E+00  0.00000000000E+00  0.16625945412E+03  0.16625945412E+03  0.00000000000E+00 0. -1.
          2   -1    0    0  501    0  0.00000000000E+00 -0.00000000000E+00 -0.20670050847E+04  0.20670050847E+04  0.00000000000E+00 0.  1.
         23    2    1    2    0    0 -0.43154250141E+03 -0.27192248825E+03 -0.42013537876E+03  0.66725767806E+03  0.92457029513E+02 0.  0.
         11    1    3    3    0    0 -0.17569884481E+03 -0.12522487295E+03 -0.23510761999E+03  0.31910334666E+03  0.00000000000E+00 0.  1.
        -11    1    3    3    0    0 -0.25584365660E+03 -0.14669761530E+03 -0.18502775877E+03  0.34815433140E+03  0.00000000000E+00 0. -1.
         22    1    1    2    0    0  0.43154250141E+03  0.27192248825E+03 -0.14806102518E+04  0.15660068607E+04  0.00000000000E+00 0.  1.
<mgrwt>
<rscale>  0 0.11724490E+04</rscale>
<asrwt>0</asrwt>
<pdfrwt beam="1">  1        2 0.31800079E+00 0.11724490E+04</pdfrwt>
<pdfrwt beam="2">  1       -2 0.25578377E-01 0.11724490E+04</pdfrwt>
<totfact> 0.83569203E+01</totfact>
</mgrwt>
</event>
<event>
 6    1  0.4630212E-004  0.1609133E+04  0.7818608E-02  0.8814957E-01
         -2   -1    0    0    0  501 -0.00000000000E+00  0.00000000000E+00  0.14070679370E+03  0.14070679370E+03  0.00000000000E+00 0. -1.
          2   -1    0    0  501    0  0.00000000000E+00 -0.00000000000E+00 -0.46005399524E+04  0.46005399524E+04  0.00000000000E+00 0.  1.
         23    2    1    2    0    0 -0.54026914522E+03 -0.28075129856E+03 -0.37749621811E+04  0.38248623852E+04  0.92307941530E+02 0.  0.
         11    1    3    3    0    0 -0.55294691501E+02 -0.55703665312E+02 -0.37562673569E+03  0.38373929405E+03  0.00000000000E+00 0.  1.
        -11    1    3    3    0    0 -0.48497445372E+03 -0.22504763324E+03 -0.33993354454E+04  0.34411230911E+04  0.00000000000E+00 0. -1.
         22    1    1    2    0    0  0.54026914522E+03  0.28075129856E+03 -0.68487097757E+03  0.91638436086E+03  0.00000000000E+00 0. -1.
<mgrwt>
<rscale>  0 0.16091330E+04</rscale>
<asrwt>0</asrwt>
<pdfrwt beam="1">  1        2 0.70777549E+00 0.16091330E+04</pdfrwt>
<pdfrwt beam="2">  1       -2 0.21647196E-01 0.16091330E+04</pdfrwt>
<totfact> 0.17958473E+00</totfact>
</mgrwt>
</event>
<event>
 6    1  0.4630212E-004  0.3282550E+04  0.7818608E-02  0.8167350E-01
          2   -1    0    0  501    0  0.00000000000E+00  0.00000000000E+00  0.30562267843E+04  0.30562267843E+04  0.00000000000E+00 0.  1.
         -2   -1    0    0    0  501 -0.00000000000E+00 -0.00000000000E+00 -0.88140828720E+03  0.88140828720E+03  0.00000000000E+00 0. -1.
         23    2    1    2    0    0  0.22814829571E+03  0.15230315865E+04  0.17634964709E+04  0.23436267066E+04  0.10483071525E+03 0.  0.
         13    1    3    3    0    0  0.17052482712E+03  0.11840141257E+04  0.14330898228E+04  0.18667390302E+04  0.00000000000E+00 0. -1.
        -13    1    3    3    0    0  0.57623468593E+02  0.33901746075E+03  0.33040664803E+03  0.47688767639E+03  0.00000000000E+00 0.  1.
         22    1    1    2    0    0 -0.22814829571E+03 -0.15230315865E+04  0.41132202626E+03  0.15940083649E+04  0.00000000000E+00 0.  1.
<mgrwt>
<rscale>  0 0.32825500E+04</rscale>
<asrwt>0</asrwt>
<pdfrwt beam="1">  1        2 0.47018873E+00 0.32825500E+04</pdfrwt>
<pdfrwt beam="2">  1       -2 0.13560128E+00 0.32825500E+04</pdfrwt>
<totfact> 0.52307093E-01</totfact>
</mgrwt>
</event>
<event>
 6    1  0.4630212E-004  0.4003896E+04  0.7818608E-02  0.8003761E-01
          2   -1    0    0  501    0  0.00000000000E+00  0.00000000000E+00  0.27698149545E+04  0.27698149545E+04  0.00000000000E+00 0.  1.
         -2   -1    0    0    0  501 -0.00000000000E+00 -0.00000000000E+00 -0.14469546174E+04  0.14469546174E+04  0.00000000000E+00 0. -1.
         23    2    1    2    0    0 -0.16667868671E+04  0.82858776042E+03 -0.11131985553E+03  0.18669591620E+04  0.91696593440E+02 0.  0.
         13    1    3    3    0    0 -0.91020785999E+03  0.46575134495E+03 -0.17000816915E+02  0.10225906764E+04  0.00000000000E+00 0. -1.
        -13    1    3    3    0    0 -0.75657900715E+03  0.36283641547E+03 -0.94319038618E+02  0.84436848561E+03  0.00000000000E+00 0.  1.
         22    1    1    2    0    0  0.16667868671E+04 -0.82858776042E+03  0.14341801926E+04  0.23498104098E+04  0.00000000000E+00 0.  1.
<mgrwt>
<rscale>  0 0.40038964E+04</rscale>
<asrwt>0</asrwt>
<pdfrwt beam="1">  1        2 0.42612538E+00 0.40038964E+04</pdfrwt>
<pdfrwt beam="2">  1       -2 0.22260840E+00 0.40038964E+04</pdfrwt>
<totfact> 0.18091738E-01</totfact>
</mgrwt>
</event>
<event>
 6    1  0.4630212E-004  0.7007557E+04  0.7818608E-02  0.7576657E-01
         -2   -1    0    0    0  501 -0.00000000000E+00  0.00000000000E+00  0.34997152530E+04  0.34997152530E+04  0.00000000000E+00 0. -1.
          2   -1    0    0  501    0  0.00000000000E+00 -0.00000000000E+00 -0.35078459667E+04  0.35078459667E+04  0.00000000000E+00 0.  1.
         23    2    1    2    0    0 -0.55777923706E+03 -0.30824724631E+04 -0.15723120988E+04  0.35062161113E+04  0.92908126167E+02 0.  0.
         13    1    3    3    0    0 -0.63242701175E+01 -0.11909581974E+03 -0.49362547614E+02  0.12907544995E+03  0.00000000000E+00 0. -1.
        -13    1    3    3    0    0 -0.55145496694E+03 -0.29633766434E+04 -0.15229495512E+04  0.33771406613E+04  0.00000000000E+00 0.  1.
         22    1    1    2    0    0  0.55777923706E+03  0.30824724631E+04  0.15641813851E+04  0.35013451084E+04  0.00000000000E+00 0. -1.
<mgrwt>
<rscale>  0 0.70075565E+04</rscale>
<asrwt>0</asrwt>
<pdfrwt beam="1">  1        2 0.53966861E+00 0.70075565E+04</pdfrwt>
<pdfrwt beam="2">  1       -2 0.53841773E+00 0.70075565E+04</pdfrwt>
<totfact> 0.50194581E-04</totfact>
</mgrwt>
</event>
<event>
 6    1  0.4630212E-004  0.9158925E+03  0.7818608E-02  0.9405930E-01
         -2   -1    0    0    0  501 -0.00000000000E+00  0.00000000000E+00  0.94072748531E+02  0.94072748531E+02  0.00000000000E+00 0. -1.
          2   -1    0    0  501    0  0.00000000000E+00 -0.00000000000E+00 -0.22292827070E+04  0.22292827070E+04  0.00000000000E+00 0.  1.
         23    2    1    2    0    0 -0.10708869529E+03 -0.41083918897E+03 -0.14821638056E+04  0.15444292038E+04  0.90527294647E+02 0.  0.
         11    1    3    3    0    0 -0.52313958336E+02 -0.64346727439E+02 -0.30983347121E+03  0.32073981894E+03  0.00000000000E+00 0. -1.
        -11    1    3    3    0    0 -0.54774736959E+02 -0.34649246153E+03 -0.11723303344E+04  0.12236893849E+04  0.00000000000E+00 0.  1.
         22    1    1    2    0    0  0.10708869529E+03  0.41083918897E+03 -0.65304615285E+03  0.77892625171E+03  0.00000000000E+00 0.  1.
<mgrwt>
<rscale>  0 0.91589246E+03</rscale>
<asrwt>0</asrwt>
<pdfrwt beam="1">  1        2 0.34296655E+00 0.91589246E+03</pdfrwt>
<pdfrwt beam="2">  1       -2 0.14472732E-01 0.91589246E+03</pdfrwt>
<totfact> 0.18782209E+02</totfact>
</mgrwt>
</event>
<event>
 6    1  0.4630212E-004  0.1506940E+04  0.7818608E-02  0.8879851E-01
          2   -1    0    0  501    0  0.00000000000E+00  0.00000000000E+00  0.12803159459E+04  0.12803159459E+04  0.00000000000E+00 0.  1.
         -2   -1    0    0    0  501 -0.00000000000E+00 -0.00000000000E+00 -0.44341954844E+03  0.44341954844E+03  0.00000000000E+00 0. -1.
         23    2    1    2    0    0 -0.51819491326E+02 -0.74534989356E+03  0.33707893827E+03  0.82481991655E+03  0.92054117719E+02 0.  0.
         11    1    3    3    0    0 -0.98347222858E-02 -0.14352694435E+02 -0.61240287674E+01  0.15604603892E+02  0.00000000000E+00 0. -1.
        -11    1    3    3    0    0 -0.51809656603E+02 -0.73099719913E+03  0.34320296703E+03  0.80921531265E+03  0.00000000000E+00 0.  1.
         22    1    1    2    0    0  0.51819491326E+02  0.74534989356E+03  0.49981745924E+03  0.89891557784E+03  0.00000000000E+00 0.  1.
<mgrwt>
<rscale>  0 0.15069401E+04</rscale>
<asrwt>0</asrwt>
<pdfrwt beam="1">  1        2 0.19697168E+00 0.15069401E+04</pdfrwt>
<pdfrwt beam="2">  1       -2 0.68218393E-01 0.15069401E+04</pdfrwt>
<totfact> 0.32236861E+01</totfact>
</mgrwt>
</event>
<event>
 6    1  0.4630212E-004  0.1169184E+04  0.7818608E-02  0.9140266E-01
         -2   -1    0    0    0  501 -0.00000000000E+00  0.00000000000E+00  0.20409239751E+03  0.20409239751E+03  0.00000000000E+00 0. -1.
          2   -1    0    0  501    0  0.00000000000E+00 -0.00000000000E+00 -0.16744756633E+04  0.16744756633E+04  0.00000000000E+00 0.  1.
         23    2    1    2    0    0 -0.41738081926E+03 -0.18385857377E+03 -0.16290648603E+03  0.49382756056E+03  0.96521567221E+02 0.  0.
         13    1    3    3    0    0 -0.25597775038E+03 -0.65211767285E+02 -0.11349627961E+03  0.28750406739E+03  0.00000000000E+00 0. -1.
        -13    1    3    3    0    0 -0.16140306888E+03 -0.11864680648E+03 -0.49410206427E+02  0.20632349317E+03  0.00000000000E+00 0.  1.
         22    1    1    2    0    0  0.41738081926E+03  0.18385857377E+03 -0.13074767798E+04  0.13847405003E+04  0.00000000000E+00 0.  1.
<mgrwt>
<rscale>  0 0.11691839E+04</rscale>
<asrwt>0</asrwt>
<pdfrwt beam="1">  1        2 0.25761164E+00 0.11691839E+04</pdfrwt>
<pdfrwt beam="2">  1       -2 0.31398831E-01 0.11691839E+04</pdfrwt>
<totfact> 0.94300634E+01</totfact>
</mgrwt>
</event>
<event>
 6    1  0.4630212E-004  0.1702637E+04  0.7818608E-02  0.8759862E-01
          2   -1    0    0  501    0  0.00000000000E+00  0.00000000000E+00  0.69276830347E+03  0.69276830347E+03  0.00000000000E+00 0.  1.
         -2   -1    0    0    0  501 -0.00000000000E+00 -0.00000000000E+00 -0.10461556239E+04  0.10461556239E+04  0.00000000000E+00 0. -1.
         23    2    1    2    0    0 -0.54723200384E+02 -0.77813002943E+03  0.16426396556E+03  0.80273814172E+03  0.94471701783E+02 0.  0.
         13    1    3    3    0    0  0.23852414363E+02 -0.15262765980E+03  0.47316285337E+02  0.16156413916E+03  0.00000000000E+00 0.  1.
        -13    1    3    3    0    0 -0.78575614747E+02 -0.62550236963E+03  0.11694768023E+03  0.64117400256E+03  0.00000000000E+00 0. -1.
         22    1    1    2    0    0  0.54723200384E+02  0.77813002943E+03 -0.51765128597E+03  0.93618578564E+03  0.00000000000E+00 0. -1.
<mgrwt>
<rscale>  0 0.17026373E+04</rscale>
<asrwt>0</asrwt>
<pdfrwt beam="1">  1        2 0.10657974E+00 0.17026373E+04</pdfrwt>
<pdfrwt beam="2">  1       -2 0.16094702E+00 0.17026373E+04</pdfrwt>
<totfact> 0.97832764E+00</totfact>
</mgrwt>
</event>
<event>
 6    1  0.4630212E-004  0.3963594E+04  0.7818608E-02  0.8011931E-01
          2   -1    0    0  501    0  0.00000000000E+00  0.00000000000E+00  0.11098247905E+04  0.11098247905E+04  0.00000000000E+00 0.  1.
         -2   -1    0    0    0  501 -0.00000000000E+00 -0.00000000000E+00 -0.35388646070E+04  0.35388646070E+04  0.00000000000E+00 0. -1.
         23    2    1    2    0    0 -0.71960639790E+03  0.14185275188E+04  0.16909201535E+03  0.16023239064E+04  0.93787535391E+02 0.  0.
         13    1    3    3    0    0 -0.51664550473E+03  0.10132390872E+04  0.78257583397E+02  0.11400439793E+04  0.00000000000E+00 0. -1.
        -13    1    3    3    0    0 -0.20296089317E+03  0.40528843160E+03  0.90834431949E+02  0.46227992707E+03  0.00000000000E+00 0.  1.
         22    1    1    2    0    0  0.71960639790E+03 -0.14185275188E+04 -0.25981318319E+04  0.30463654911E+04  0.00000000000E+00 0. -1.
<mgrwt>
<rscale>  0 0.39635942E+04</rscale>
<asrwt>0</asrwt>
<pdfrwt beam="1">  1        2 0.17074227E+00 0.39635942E+04</pdfrwt>
<pdfrwt beam="2">  1       -2 0.54444073E+00 0.39635942E+04</pdfrwt>
<totfact> 0.15525313E-02</totfact>
</mgrwt>
</event>
<event>
 6    1  0.4630212E-004  0.1526475E+04  0.7818608E-02  0.8867036E-01
         -2   -1    0    0    0  501 -0.00000000000E+00  0.00000000000E+00  0.40598910312E+03  0.40598910312E+03  0.00000000000E+00 0. -1.
          2   -1    0    0  501    0  0.00000000000E+00 -0.00000000000E+00 -0.14348442667E+04  0.14348442667E+04  0.00000000000E+00 0.  1.
         23    2    1    2    0    0 -0.29891707644E+03 -0.28339006532E+03 -0.12872657689E+04  0.13545850909E+04  0.90477958510E+02 0.  0.
         11    1    3    3    0    0 -0.21722721164E+03 -0.15732824714E+03 -0.74128411748E+03  0.78831591488E+03  0.00000000000E+00 0.  1.
        -11    1    3    3    0    0 -0.81689864800E+02 -0.12606181818E+03 -0.54598165145E+03  0.56626917604E+03  0.00000000000E+00 0. -1.
         22    1    1    2    0    0  0.29891707644E+03  0.28339006532E+03  0.25841060540E+03  0.48624827886E+03  0.00000000000E+00 0. -1.
<mgrwt>
<rscale>  0 0.15264745E+04</rscale>
<asrwt>0</asrwt>
<pdfrwt beam="1">  1        2 0.22074528E+00 0.15264745E+04</pdfrwt>
<pdfrwt beam="2">  1       -2 0.62459861E-01 0.15264745E+04</pdfrwt>
<totfact> 0.31690170E+01</totfact>
</mgrwt>
</event>
<event>
 6    1  0.4630212E-004  0.1734858E+04  0.7818608E-02  0.8741729E-01
          2   -1    0    0  501    0  0.00000000000E+00  0.00000000000E+00  0.20312793316E+04  0.20312793316E+04  0.00000000000E+00 0.  1.
         -2   -1    0    0    0  501 -0.00000000000E+00 -0.00000000000E+00 -0.37042340132E+03  0.37042340132E+03  0.00000000000E+00 0. -1.
         23    2    1    2    0    0 -0.14108782781E+02 -0.84232441761E+03  0.11050552274E+04  0.13924337383E+04  0.89527524277E+02 0.  0.
         13    1    3    3    0    0  0.10243299647E+02 -0.44127524672E+03  0.64577439899E+03  0.78221054899E+03  0.00000000000E+00 0.  1.
        -13    1    3    3    0    0 -0.24352082427E+02 -0.40104917089E+03  0.45928082843E+03  0.61022318929E+03  0.00000000000E+00 0. -1.
         22    1    1    2    0    0  0.14108782781E+02  0.84232441761E+03  0.55580070287E+03  0.10092689947E+04  0.00000000000E+00 0.  1.
<mgrwt>
<rscale>  0 0.17348584E+04</rscale>
<asrwt>0</asrwt>
<pdfrwt beam="1">  1        2 0.31250451E+00 0.17348584E+04</pdfrwt>
<pdfrwt beam="2">  1       -2 0.56988217E-01 0.17348584E+04</pdfrwt>
<totfact> 0.17584283E+01</totfact>
</mgrwt>
</event>
<event>
 6    1  0.4630212E-004  0.2797612E+04  0.7818608E-02  0.8304010E-01
         -2   -1    0    0    0  501 -0.00000000000E+00  0.00000000000E+00  0.10102447322E+04  0.10102447322E+04  0.00000000000E+00 0. -1.
          2   -1    0    0  501    0  0.00000000000E+00 -0.00000000000E+00 -0.19368163127E+04  0.19368163127E+04  0.00000000000E+00 0.  1.
         23    2    1    2    0    0 -0.30926859052E+03 -0.13397913729E+04 -0.20198650874E+03  0.13928051103E+04  0.91758060323E+02 0.  0.
         11    1    3    3    0    0 -0.72230518650E+02 -0.49505536947E+03 -0.89924966151E+02  0.50831443635E+03  0.00000000000E+00 0.  1.
        -11    1    3    3    0    0 -0.23703807187E+03 -0.84473600342E+03 -0.11206154259E+03  0.88449067395E+03  0.00000000000E+00 0. -1.
         22    1    1    2    0    0  0.30926859052E+03  0.13397913729E+04 -0.72458507181E+03  0.15542559346E+04  0.00000000000E+00 0.  1.
<mgrwt>
<rscale>  0 0.27976122E+04</rscale>
<asrwt>0</asrwt>
<pdfrwt beam="1">  1        2 0.29797174E+00 0.27976122E+04</pdfrwt>
<pdfrwt beam="2">  1       -2 0.15542227E+00 0.27976122E+04</pdfrwt>
<totfact> 0.17183675E+00</totfact>
</mgrwt>
</event>
<event>
 6    1  0.4630212E-004  0.1783328E+04  0.7818608E-02  0.8715216E-01
         -2   -1    0    0    0  501 -0.00000000000E+00  0.00000000000E+00  0.11395580945E+04  0.11395580945E+04  0.00000000000E+00 0.  1.
          2   -1    0    0  501    0  0.00000000000E+00 -0.00000000000E+00 -0.69769590318E+03  0.69769590318E+03  0.00000000000E+00 0. -1.
         23    2    1    2    0    0  0.67239948890E+03 -0.37766800731E+03  0.67796829655E+03  0.10307180162E+04  0.89355589502E+02 0.  0.
         13    1    3    3    0    0  0.53720938477E+03 -0.34043941765E+03  0.56301129656E+03  0.84939663305E+03  0.00000000000E+00 0.  1.
        -13    1    3    3    0    0  0.13519010412E+03 -0.37228589658E+02  0.11495700000E+03  0.18132138315E+03  0.00000000000E+00 0. -1.
         22    1    1    2    0    0 -0.67239948890E+03  0.37766800731E+03 -0.23610610527E+03  0.80653598144E+03  0.00000000000E+00 0. -1.
<mgrwt>
<rscale>  0 0.17833284E+04</rscale>
<asrwt>0</asrwt>
<pdfrwt beam="1">  1        2 0.10733783E+00 0.17833284E+04</pdfrwt>
<pdfrwt beam="2">  1       -2 0.17531663E+00 0.17833284E+04</pdfrwt>
<totfact> 0.75975493E+00</totfact>
</mgrwt>
</event>
<event>
 6    1  0.4630212E-004  0.2854420E+04  0.7818608E-02  0.8286569E-01
         -4   -1    0    0    0  501 -0.00000000000E+00  0.00000000000E+00  0.11434363518E+04  0.11434363518E+04  0.00000000000E+00 0. -1.
          4   -1    0    0  501    0  0.00000000000E+00 -0.00000000000E+00 -0.17814098767E+04  0.17814098767E+04  0.00000000000E+00 0.  1.
         23    2    1    2    0    0 -0.16120299719E+03  0.14110071485E+04 -0.18978595508E+03  0.14356183490E+04  0.89742720320E+02 0.  0.
         11    1    3    3    0    0 -0.44863589919E+02  0.77216058804E+03 -0.11522271934E+03  0.78199807575E+03  0.00000000000E+00 0.  1.
        -11    1    3    3    0    0 -0.11633940727E+03  0.63884656043E+03 -0.74563235743E+02  0.65362027324E+03  0.00000000000E+00 0. -1.
         22    1    1    2    0    0  0.16120299719E+03 -0.14110071485E+04 -0.44818756976E+03  0.14892278795E+04  0.00000000000E+00 0.  1.
<mgrwt>
<rscale>  0 0.28544203E+04</rscale>
<asrwt>0</asrwt>
<pdfrwt beam="1">  1        4 0.27406306E+00 0.28544203E+04</pdfrwt>
<pdfrwt beam="2">  1       -4 0.17591329E+00 0.28544203E+04</pdfrwt>
<totfact> 0.14805756E-02</totfact>
</mgrwt>
</event>
<event>
 6    1  0.4630212E-004  0.2410365E+04  0.7818608E-02  0.8435633E-01
         -2   -1    0    0    0  501 -0.00000000000E+00  0.00000000000E+00  0.11684464243E+04  0.11684464243E+04  0.00000000000E+00 0. -1.
          2   -1    0    0  501    0  0.00000000000E+00 -0.00000000000E+00 -0.12430740135E+04  0.12430740135E+04  0.00000000000E+00 0.  1.
         23    2    1    2    0    0  0.60082537984E+03 -0.71280251136E+03  0.72423098565E+03  0.11838178762E+04  0.88519411667E+02 0.  0.
         11    1    3    3    0    0  0.23305741701E+03 -0.21867017901E+03  0.22321245162E+03  0.38981560432E+03  0.00000000000E+00 0. -1.
        -11    1    3    3    0    0  0.36776796283E+03 -0.49413233235E+03  0.50101853403E+03  0.79400227191E+03  0.00000000000E+00 0.  1.
         22    1    1    2    0    0 -0.60082537984E+03  0.71280251136E+03 -0.79885857480E+03  0.12277025616E+04  0.00000000000E+00 0.  1.
<mgrwt>
<rscale>  0 0.24103654E+04</rscale>
<asrwt>0</asrwt>
<pdfrwt beam="1">  1        2 0.19124216E+00 0.24103654E+04</pdfrwt>
<pdfrwt beam="2">  1       -2 0.17976099E+00 0.24103654E+04</pdfrwt>
<totfact> 0.29201160E+00</totfact>
</mgrwt>
</event>
<event>
 6    1  0.4630212E-004  0.2224964E+04  0.7818608E-02  0.8508109E-01
         -2   -1    0    0    0  501 -0.00000000000E+00  0.00000000000E+00  0.56705034096E+03  0.56705034096E+03  0.00000000000E+00 0. -1.
          2   -1    0    0  501    0  0.00000000000E+00 -0.00000000000E+00 -0.21825512010E+04  0.21825512010E+04  0.00000000000E+00 0.  1.
         23    2    1    2    0    0  0.64130796506E+03 -0.20956706576E+03  0.28111865998E+03  0.73655413446E+03  0.91049606766E+02 0.  0.
         13    1    3    3    0    0  0.33841136500E+03 -0.68106100024E+02  0.12007138812E+03  0.36548301064E+03  0.00000000000E+00 0. -1.
        -13    1    3    3    0    0  0.30289660006E+03 -0.14146096574E+03  0.16104727186E+03  0.37107112381E+03  0.00000000000E+00 0.  1.
         22    1    1    2    0    0 -0.64130796506E+03  0.20956706576E+03 -0.18966195200E+04  0.20130474075E+04  0.00000000000E+00 0.  1.
<mgrwt>
<rscale>  0 0.22249642E+04</rscale>
<asrwt>0</asrwt>
<pdfrwt beam="1">  1        2 0.33577711E+00 0.22249642E+04</pdfrwt>
<pdfrwt beam="2">  1       -2 0.87238513E-01 0.22249642E+04</pdfrwt>
<totfact> 0.54695506E+00</totfact>
</mgrwt>
</event>
<event>
 6    1  0.4630212E-004  0.1379878E+04  0.7818608E-02  0.8968514E-01
         -2   -1    0    0    0  501 -0.00000000000E+00  0.00000000000E+00  0.24193210768E+03  0.24193210768E+03  0.00000000000E+00 0. -1.
          2   -1    0    0  501    0  0.00000000000E+00 -0.00000000000E+00 -0.19675582720E+04  0.19675582720E+04  0.00000000000E+00 0.  1.
         23    2    1    2    0    0 -0.26363989143E+03 -0.15729198215E+03 -0.18505764869E+04  0.18780400167E+04  0.90300667708E+02 0.  0.
         11    1    3    3    0    0 -0.22608584789E+03 -0.94103548766E+02 -0.14977394251E+04  0.15176276467E+04  0.00000000000E+00 0. -1.
        -11    1    3    3    0    0 -0.37554043534E+02 -0.63188433383E+02 -0.35283706179E+03  0.36041237003E+03  0.00000000000E+00 0.  1.
         22    1    1    2    0    0  0.26363989143E+03  0.15729198215E+03  0.12495032256E+03  0.33145036296E+03  0.00000000000E+00 0. -1.
<mgrwt>
<rscale>  0 0.13798776E+04</rscale>
<asrwt>0</asrwt>
<pdfrwt beam="1">  1        2 0.30270127E+00 0.13798776E+04</pdfrwt>
<pdfrwt beam="2">  1       -2 0.37220324E-01 0.13798776E+04</pdfrwt>
<totfact> 0.46221869E+01</totfact>
</mgrwt>
</event>
<event>
 6    1  0.4630212E-004  0.4779674E+04  0.7818608E-02  0.7863423E-01
          2   -1    0    0  501    0  0.00000000000E+00  0.00000000000E+00  0.42484689210E+04  0.42484689210E+04  0.00000000000E+00 0.  1.
         -2   -1    0    0    0  501 -0.00000000000E+00 -0.00000000000E+00 -0.13443244920E+04  0.13443244920E+04  0.00000000000E+00 0. -1.
         23    2    1    2    0    0  0.15889711694E+04 -0.15946969569E+04  0.23878636537E+04  0.32831541337E+04  0.96542608352E+02 0.  0.
         11    1    3    3    0    0  0.86759212683E+03 -0.88612429611E+03  0.12469942948E+04  0.17586719813E+04  0.00000000000E+00 0.  1.
        -11    1    3    3    0    0  0.72137904260E+03 -0.70857266081E+03  0.11408693590E+04  0.15244821524E+04  0.00000000000E+00 0. -1.
         22    1    1    2    0    0 -0.15889711694E+04  0.15946969569E+04  0.51628077526E+03  0.23096392793E+04  0.00000000000E+00 0. -1.
<mgrwt>
<rscale>  0 0.47796740E+04</rscale>
<asrwt>0</asrwt>
<pdfrwt beam="1">  1        2 0.65361060E+00 0.47796740E+04</pdfrwt>
<pdfrwt beam="2">  1       -2 0.20681915E+00 0.47796740E+04</pdfrwt>
<totfact> 0.18633150E-02</totfact>
</mgrwt>
</event>
<event>
 6    1  0.4630212E-004  0.6480598E+03  0.7818608E-02  0.9810427E-01
          2   -1    0    0  501    0  0.00000000000E+00  0.00000000000E+00  0.63936399547E+03  0.63936399547E+03  0.00000000000E+00 0.  1.
         -2   -1    0    0    0  501 -0.00000000000E+00 -0.00000000000E+00 -0.16421847627E+03  0.16421847627E+03  0.00000000000E+00 0. -1.
         23    2    1    2    0    0  0.18378217160E+03  0.57666806360E+00 -0.78907711307E+02  0.21984348779E+03  0.91260687461E+02 0.  0.
         11    1    3    3    0    0  0.48345375341E+02  0.41125994667E+02 -0.18594874461E+02  0.66139187404E+02  0.00000000000E+00 0.  1.
        -11    1    3    3    0    0  0.13543679626E+03 -0.40549326603E+02 -0.60312836846E+02  0.15370430039E+03  0.00000000000E+00 0. -1.
         22    1    1    2    0    0 -0.18378217160E+03 -0.57666806360E+00  0.55405323051E+03  0.58373898395E+03  0.00000000000E+00 0.  1.
<mgrwt>
<rscale>  0 0.64805982E+03</rscale>
<asrwt>0</asrwt>
<pdfrwt beam="1">  1        2 0.98363690E-01 0.64805982E+03</pdfrwt>
<pdfrwt beam="2">  1       -2 0.25264381E-01 0.64805982E+03</pdfrwt>
<totfact> 0.64900316E+02</totfact>
</mgrwt>
</event>
<event>
 6    1  0.4630212E-004  0.1944341E+04  0.7818608E-02  0.8633094E-01
         -2   -1    0    0    0  501 -0.00000000000E+00  0.00000000000E+00  0.93858207790E+03  0.93858207790E+03  0.00000000000E+00 0. -1.
          2   -1    0    0  501    0  0.00000000000E+00 -0.00000000000E+00 -0.10069613103E+04  0.10069613103E+04  0.00000000000E+00 0.  1.
         23    2    1    2    0    0  0.33318351213E+02  0.94680170421E+03 -0.24270650678E+03  0.98225029767E+03  0.91463759092E+02 0.  0.
         11    1    3    3    0    0  0.48973805680E+01  0.78047841555E+03 -0.17154016402E+03  0.79912237445E+03  0.00000000000E+00 0.  1.
        -11    1    3    3    0    0  0.28420970645E+02  0.16632328866E+03 -0.71166342752E+02  0.18312792322E+03  0.00000000000E+00 0. -1.
         22    1    1    2    0    0 -0.33318351213E+02 -0.94680170421E+03  0.17432727439E+03  0.96329309051E+03  0.00000000000E+00 0. -1.
<mgrwt>
<rscale>  0 0.19443414E+04</rscale>
<asrwt>0</asrwt>
<pdfrwt beam="1">  1        2 0.15491712E+00 0.19443414E+04</pdfrwt>
<pdfrwt beam="2">  1       -2 0.14439724E+00 0.19443414E+04</pdfrwt>
<totfact> 0.77070345E+00</totfact>
</mgrwt>
</event>
<event>
 6    1  0.4630212E-004  0.2732443E+04  0.7818608E-02  0.8324554E-01
         -2   -1    0    0    0  501 -0.00000000000E+00  0.00000000000E+00  0.13837923546E+04  0.13837923546E+04  0.00000000000E+00 0. -1.
          2   -1    0    0  501    0  0.00000000000E+00 -0.00000000000E+00 -0.13488739900E+04  0.13488739900E+04  0.00000000000E+00 0.  1.
         23    2    1    2    0    0  0.12360522261E+04 -0.58772586978E+02 -0.55727372582E+03  0.13608169379E+04  0.99947037858E+02 0.  0.
         13    1    3    3    0    0  0.32776193917E+03 -0.28366782075E+02 -0.10252466992E+03  0.34459232585E+03  0.00000000000E+00 0. -1.
        -13    1    3    3    0    0  0.90829028691E+03 -0.30405804903E+02 -0.45474905590E+03  0.10162246120E+04  0.00000000000E+00 0.  1.
         22    1    1    2    0    0 -0.12360522261E+04  0.58772586978E+02  0.59219209046E+03  0.13718494067E+04  0.00000000000E+00 0. -1.
<mgrwt>
<rscale>  0 0.27324432E+04</rscale>
<asrwt>0</asrwt>
<pdfrwt beam="1">  1        2 0.20751907E+00 0.27324432E+04</pdfrwt>
<pdfrwt beam="2">  1       -2 0.21289113E+00 0.27324432E+04</pdfrwt>
<totfact> 0.14865437E+00</totfact>
</mgrwt>
</event>
<event>
 6    1  0.4630212E-004  0.3320414E+04  0.7818608E-02  0.8157720E-01
         -2   -1    0    0    0  501 -0.00000000000E+00  0.00000000000E+00  0.22512420319E+04  0.22512420319E+04  0.00000000000E+00 0. -1.
          2   -1    0    0  501    0  0.00000000000E+00 -0.00000000000E+00 -0.12243404477E+04  0.12243404477E+04  0.00000000000E+00 0.  1.
         23    2    1    2    0    0 -0.13235945582E+04 -0.97153368764E+03  0.76208656882E+03  0.18124807831E+04  0.92360111811E+02 0.  0.
         11    1    3    3    0    0 -0.75718207436E+03 -0.54105699494E+03  0.38304098324E+03  0.10063735690E+04  0.00000000000E+00 0. -1.
        -11    1    3    3    0    0 -0.56641248379E+03 -0.43047669270E+03  0.37904558558E+03  0.80610721415E+03  0.00000000000E+00 0.  1.
         22    1    1    2    0    0  0.13235945582E+04  0.97153368764E+03  0.26481501535E+03  0.16631016965E+04  0.00000000000E+00 0.  1.
<mgrwt>
<rscale>  0 0.33204136E+04</rscale>
<asrwt>0</asrwt>
<pdfrwt beam="1">  1        2 0.18836007E+00 0.33204136E+04</pdfrwt>
<pdfrwt beam="2">  1       -2 0.34634493E+00 0.33204136E+04</pdfrwt>
<totfact> 0.25047351E-01</totfact>
</mgrwt>
</event>
<event>
 6    1  0.4630212E-004  0.2448470E+04  0.7818608E-02  0.8421577E-01
          2   -1    0    0  501    0  0.00000000000E+00  0.00000000000E+00  0.11653406240E+04  0.11653406240E+04  0.00000000000E+00 0.  1.
         -2   -1    0    0    0  501 -0.00000000000E+00 -0.00000000000E+00 -0.12861057012E+04  0.12861057012E+04  0.00000000000E+00 0. -1.
         23    2    1    2    0    0 -0.19788501606E+03  0.11907081631E+04  0.13440369281E+03  0.12177301867E+04  0.88645619695E+02 0.  0.
         11    1    3    3    0    0 -0.57696223148E+02  0.44220719539E+03  0.96250640287E+01  0.44605907645E+03  0.00000000000E+00 0. -1.
        -11    1    3    3    0    0 -0.14018879291E+03  0.74850096766E+03  0.12477862878E+03  0.77167111029E+03  0.00000000000E+00 0.  1.
         22    1    1    2    0    0  0.19788501606E+03 -0.11907081631E+04 -0.25516876997E+03  0.12337161385E+04  0.00000000000E+00 0.  1.
<mgrwt>
<rscale>  0 0.24484699E+04</rscale>
<asrwt>0</asrwt>
<pdfrwt beam="1">  1        2 0.17928317E+00 0.24484699E+04</pdfrwt>
<pdfrwt beam="2">  1       -2 0.19786242E+00 0.24484699E+04</pdfrwt>
<totfact> 0.24451463E+00</totfact>
</mgrwt>
</event>
<event>
 6    1  0.4630212E-004  0.3691736E+04  0.7818608E-02  0.8069796E-01
          2   -1    0    0  501    0  0.00000000000E+00  0.00000000000E+00  0.10762602971E+04  0.10762602971E+04  0.00000000000E+00 0.  1.
         -2   -1    0    0    0  501 -0.00000000000E+00 -0.00000000000E+00 -0.31658040186E+04  0.31658040186E+04  0.00000000000E+00 0. -1.
         23    2    1    2    0    0 -0.38734422639E+03  0.21110359258E+02 -0.31177613174E+04  0.31431045250E+04  0.90494341245E+02 0.  0.
         11    1    3    3    0    0 -0.10635785406E+03  0.45880256469E+02 -0.97507410861E+03  0.98192999157E+03  0.00000000000E+00 0. -1.
        -11    1    3    3    0    0 -0.28098637233E+03 -0.24769897211E+02 -0.21426872088E+04  0.21611745334E+04  0.00000000000E+00 0.  1.
         22    1    1    2    0    0  0.38734422639E+03 -0.21110359258E+02  0.10282175959E+04  0.10989597907E+04  0.00000000000E+00 0.  1.
<mgrwt>
<rscale>  0 0.36917363E+04</rscale>
<asrwt>0</asrwt>
<pdfrwt beam="1">  1        2 0.16557851E+00 0.36917363E+04</pdfrwt>
<pdfrwt beam="2">  1       -2 0.48704676E+00 0.36917363E+04</pdfrwt>
<totfact> 0.36268355E-02</totfact>
</mgrwt>
</event>
<event>
 6    1  0.4630212E-004  0.1713874E+04  0.7818608E-02  0.8753491E-01
          2   -1    0    0  501    0  0.00000000000E+00  0.00000000000E+00  0.17656607693E+04  0.17656607693E+04  0.00000000000E+00 0.  1.
         -2   -1    0    0    0  501 -0.00000000000E+00 -0.00000000000E+00 -0.41590173899E+03  0.41590173899E+03  0.00000000000E+00 0. -1.
         23    2    1    2    0    0  0.36124822149E+03  0.58466230066E+03  0.13231935380E+04  0.14937863756E+04  0.90699027619E+02 0.  0.
         11    1    3    3    0    0  0.23010331233E+03  0.41777035155E+03  0.83852300768E+03  0.96467633712E+03  0.00000000000E+00 0.  1.
        -11    1    3    3    0    0  0.13114490916E+03  0.16689194911E+03  0.48467053032E+03  0.52911003849E+03  0.00000000000E+00 0. -1.
         22    1    1    2    0    0 -0.36124822149E+03 -0.58466230066E+03  0.26565492339E+02  0.68777613271E+03  0.00000000000E+00 0. -1.
<mgrwt>
<rscale>  0 0.17138744E+04</rscale>
<asrwt>0</asrwt>
<pdfrwt beam="1">  1        2 0.27164011E+00 0.17138744E+04</pdfrwt>
<pdfrwt beam="2">  1       -2 0.63984884E-01 0.17138744E+04</pdfrwt>
<totfact> 0.19351314E+01</totfact>
</mgrwt>
</event>
<event>
 6    1  0.4630212E-004  0.1776364E+04  0.7818608E-02  0.8718971E-01
         -2   -1    0    0    0  501 -0.00000000000E+00  0.00000000000E+00  0.57078732637E+03  0.57078732637E+03  0.00000000000E+00 0. -1.
          2   -1    0    0  501    0  0.00000000000E+00 -0.00000000000E+00 -0.13820687552E+04  0.13820687552E+04  0.00000000000E+00 0.  1.
         23    2    1    2    0    0  0.13338573596E+03 -0.62834361633E+03  0.26391940082E+03  0.70039279714E+03  0.91044853833E+02 0.  0.
         13    1    3    3    0    0  0.33177215542E+01 -0.68920040223E+02  0.58359547161E+02  0.90370437453E+02  0.00000000000E+00 0. -1.
        -13    1    3    3    0    0  0.13006801441E+03 -0.55942357611E+03  0.20555985366E+03  0.61002235969E+03  0.00000000000E+00 0.  1.
         22    1    1    2    0    0 -0.13338573596E+03  0.62834361633E+03 -0.10752008296E+04  0.12524632844E+04  0.00000000000E+00 0.  1.
<mgrwt>
<rscale>  0 0.17763641E+04</rscale>
<asrwt>0</asrwt>
<pdfrwt beam="1">  1        2 0.21262596E+00 0.17763641E+04</pdfrwt>
<pdfrwt beam="2">  1       -2 0.87813434E-01 0.17763641E+04</pdfrwt>
<totfact> 0.15675824E+01</totfact>
</mgrwt>
</event>
<event>
 6    1  0.4630212E-004  0.4141245E+04  0.7818608E-02  0.7976644E-01
         -2   -1    0    0    0  501 -0.00000000000E+00  0.00000000000E+00  0.32879761883E+04  0.32879761883E+04  0.00000000000E+00 0. -1.
          2   -1    0    0  501    0  0.00000000000E+00 -0.00000000000E+00 -0.13039866650E+04  0.13039866650E+04  0.00000000000E+00 0.  1.
         23    2    1    2    0    0 -0.10872270847E+04 -0.17583880390E+04  0.11064727921E+04  0.23460717511E+04  0.76022313079E+02 0.  0.
         11    1    3    3    0    0 -0.35496372200E+03 -0.60655398628E+03  0.34030930348E+03  0.78084403324E+03  0.00000000000E+00 0. -1.
        -11    1    3    3    0    0 -0.73226336275E+03 -0.11518340527E+04  0.76616348866E+03  0.15652277179E+04  0.00000000000E+00 0.  1.
         22    1    1    2    0    0  0.10872270847E+04  0.17583880390E+04  0.87751673110E+03  0.22458911022E+04  0.00000000000E+00 0.  1.
<mgrwt>
<rscale>  0 0.41412448E+04</rscale>
<asrwt>0</asrwt>
<pdfrwt beam="1">  1        2 0.20061333E+00 0.41412448E+04</pdfrwt>
<pdfrwt beam="2">  1       -2 0.50584249E+00 0.41412448E+04</pdfrwt>
<totfact> 0.19514988E-02</totfact>
</mgrwt>
</event>
<event>
 6    1  0.4630212E-004  0.1915873E+04  0.7818608E-02  0.8646996E-01
         -2   -1    0    0    0  501 -0.00000000000E+00  0.00000000000E+00  0.84837765535E+03  0.84837765535E+03  0.00000000000E+00 0. -1.
          2   -1    0    0  501    0  0.00000000000E+00 -0.00000000000E+00 -0.10816434355E+04  0.10816434355E+04  0.00000000000E+00 0.  1.
         23    2    1    2    0    0  0.99759759175E+02 -0.48024542848E+03 -0.94323214614E+03  0.10670958785E+04  0.91755388656E+02 0.  0.
         11    1    3    3    0    0  0.24685732845E+02 -0.30973785081E+03 -0.54272571513E+03  0.62537838425E+03  0.00000000000E+00 0. -1.
        -11    1    3    3    0    0  0.75074026330E+02 -0.17050757767E+03 -0.40050643101E+03  0.44171749428E+03  0.00000000000E+00 0.  1.
         22    1    1    2    0    0 -0.99759759175E+02  0.48024542848E+03  0.70996636602E+03  0.86292521229E+03  0.00000000000E+00 0. -1.
<mgrwt>
<rscale>  0 0.19158728E+04</rscale>
<asrwt>0</asrwt>
<pdfrwt beam="1">  1        2 0.16640668E+00 0.19158728E+04</pdfrwt>
<pdfrwt beam="2">  1       -2 0.13051964E+00 0.19158728E+04</pdfrwt>
<totfact> 0.89944794E+00</totfact>
</mgrwt>
</event>
<event>
 6    1  0.4630212E-004  0.3664010E+04  0.7818608E-02  0.8075985E-01
         -2   -1    0    0    0  501 -0.00000000000E+00  0.00000000000E+00  0.10197535271E+04  0.10197535271E+04  0.00000000000E+00 0. -1.
          2   -1    0    0  501    0  0.00000000000E+00 -0.00000000000E+00 -0.32912288693E+04  0.32912288693E+04  0.00000000000E+00 0.  1.
         23    2    1    2    0    0 -0.14730915824E+04  0.10247151035E+03 -0.24098867411E+04  0.28278583504E+04  0.93431924158E+02 0.  0.
         13    1    3    3    0    0 -0.68268261702E+03  0.93865279488E+02 -0.11116499839E+04  0.13079112864E+04  0.00000000000E+00 0. -1.
        -13    1    3    3    0    0 -0.79040896536E+03  0.86062308631E+01 -0.12982367572E+04  0.15199470640E+04  0.00000000000E+00 0.  1.
         22    1    1    2    0    0  0.14730915824E+04 -0.10247151035E+03  0.13841139886E+03  0.14831240460E+04  0.00000000000E+00 0. -1.
<mgrwt>
<rscale>  0 0.36640100E+04</rscale>
<asrwt>0</asrwt>
<pdfrwt beam="1">  1        2 0.50634290E+00 0.36640100E+04</pdfrwt>
<pdfrwt beam="2">  1       -2 0.15688516E+00 0.36640100E+04</pdfrwt>
<totfact> 0.24291335E-01</totfact>
</mgrwt>
</event>
<event>
 6    1  0.4630212E-004  0.7723657E+03  0.7818608E-02  0.9600901E-01
         -2   -1    0    0    0  501 -0.00000000000E+00  0.00000000000E+00  0.16351464273E+03  0.16351464273E+03  0.00000000000E+00 0. -1.
          2   -1    0    0  501    0  0.00000000000E+00 -0.00000000000E+00 -0.91207231898E+03  0.91207231898E+03  0.00000000000E+00 0.  1.
         23    2    1    2    0    0 -0.14493857298E+03  0.43746344088E+02  0.10758466928E+03  0.20616149143E+03  0.89482774471E+02 0.  0.
         11    1    3    3    0    0 -0.10712960831E+03  0.71461820249E+02  0.83243152496E+02  0.15333938557E+03  0.00000000000E+00 0. -1.
        -11    1    3    3    0    0 -0.37808964672E+02 -0.27715476160E+02  0.24341516781E+02  0.52822105861E+02  0.00000000000E+00 0.  1.
         22    1    1    2    0    0  0.14493857298E+03 -0.43746344088E+02 -0.85614234553E+03  0.86942547028E+03  0.00000000000E+00 0.  1.
<mgrwt>
<rscale>  0 0.77236566E+03</rscale>
<asrwt>0</asrwt>
<pdfrwt beam="1">  1        2 0.14031882E+00 0.77236566E+03</pdfrwt>
<pdfrwt beam="2">  1       -2 0.25156099E-01 0.77236566E+03</pdfrwt>
<totfact> 0.40993392E+02</totfact>
</mgrwt>
</event>
<event>
 6    1  0.4630212E-004  0.3661665E+04  0.7818608E-02  0.8076511E-01
          2   -1    0    0  501    0  0.00000000000E+00  0.00000000000E+00  0.10514697090E+04  0.10514697090E+04  0.00000000000E+00 0.  1.
         -2   -1    0    0    0  501 -0.00000000000E+00 -0.00000000000E+00 -0.31878694716E+04  0.31878694716E+04  0.00000000000E+00 0. -1.
         23    2    1    2    0    0  0.35136700243E+03 -0.17913395493E+04 -0.12128029765E+04  0.21935172982E+04  0.90944633997E+02 0.  0.
         11    1    3    3    0    0  0.17730024952E+03 -0.10537311310E+04 -0.75056316644E+03  0.13058061655E+04  0.00000000000E+00 0.  1.
        -11    1    3    3    0    0  0.17406675292E+03 -0.73760841824E+03 -0.46223981004E+03  0.88771113270E+03  0.00000000000E+00 0. -1.
         22    1    1    2    0    0 -0.35136700243E+03  0.17913395493E+04 -0.92359678621E+03  0.20458218824E+04  0.00000000000E+00 0.  1.
<mgrwt>
<rscale>  0 0.36616653E+04</rscale>
<asrwt>0</asrwt>
<pdfrwt beam="1">  1        2 0.16176457E+00 0.36616653E+04</pdfrwt>
<pdfrwt beam="2">  1       -2 0.49044145E+00 0.36616653E+04</pdfrwt>
<totfact> 0.35850780E-02</totfact>
</mgrwt>
</event>
<event>
 6    1  0.4630212E-004  0.1360671E+04  0.7818608E-02  0.8982789E-01
          2   -1    0    0  501    0  0.00000000000E+00  0.00000000000E+00  0.26319085942E+04  0.26319085942E+04  0.00000000000E+00 0.  1.
         -2   -1    0    0    0  501 -0.00000000000E+00 -0.00000000000E+00 -0.17586338125E+03  0.17586338125E+03  0.00000000000E+00 0. -1.
         23    2    1    2    0    0  0.32360787865E+03 -0.45383528905E+03  0.43957770793E+03  0.71568456630E+03  0.91034655058E+02 0.  0.
         11    1    3    3    0    0  0.23694435168E+03 -0.39285507518E+03  0.35404889427E+03  0.57950699342E+03  0.00000000000E+00 0.  1.
        -11    1    3    3    0    0  0.86663526964E+02 -0.60980213872E+02  0.85528813653E+02  0.13617757288E+03  0.00000000000E+00 0. -1.
         22    1    1    2    0    0 -0.32360787865E+03  0.45383528905E+03  0.20164675051E+04  0.20920874092E+04  0.00000000000E+00 0.  1.
<mgrwt>
<rscale>  0 0.13606709E+04</rscale>
<asrwt>0</asrwt>
<pdfrwt beam="1">  1        2 0.40490899E+00 0.13606709E+04</pdfrwt>
<pdfrwt beam="2">  1       -2 0.27055907E-01 0.13606709E+04</pdfrwt>
<totfact> 0.35513404E+01</totfact>
</mgrwt>
</event>
<event>
 6    1  0.4630212E-004  0.2706743E+04  0.7818608E-02  0.8332820E-01
          2   -1    0    0  501    0  0.00000000000E+00  0.00000000000E+00  0.24257193458E+04  0.24257193458E+04  0.00000000000E+00 0.  1.
         -2   -1    0    0    0  501 -0.00000000000E+00 -0.00000000000E+00 -0.75508108718E+03  0.75508108718E+03  0.00000000000E+00 0. -1.
         23    2    1    2    0    0 -0.11343460149E+04  0.73321448077E+03  0.77044133341E+03  0.15576248847E+04  0.90945461668E+02 0.  0.
         11    1    3    3    0    0 -0.99104046243E+03  0.60445736086E+03  0.65005688661E+03  0.13304525001E+04  0.00000000000E+00 0.  1.
        -11    1    3    3    0    0 -0.14330555245E+03  0.12875711991E+03  0.12038444681E+03  0.22717238460E+03  0.00000000000E+00 0. -1.
         22    1    1    2    0    0  0.11343460149E+04 -0.73321448077E+03  0.90019692521E+03  0.16231755483E+04  0.00000000000E+00 0.  1.
<mgrwt>
<rscale>  0 0.27067433E+04</rscale>
<asrwt>0</asrwt>
<pdfrwt beam="1">  1        2 0.37318759E+00 0.27067433E+04</pdfrwt>
<pdfrwt beam="2">  1       -2 0.11616632E+00 0.27067433E+04</pdfrwt>
<totfact> 0.19378224E+00</totfact>
</mgrwt>
</event>
<event>
 6    1  0.4630212E-004  0.2662747E+04  0.7818608E-02  0.8347194E-01
         -3   -1    0    0    0  501 -0.00000000000E+00  0.00000000000E+00  0.13272965786E+04  0.13272965786E+04  0.00000000000E+00 0. -1.
          3   -1    0    0  501    0  0.00000000000E+00 -0.00000000000E+00 -0.13354628839E+04  0.13354628839E+04  0.00000000000E+00 0.  1.
         23    2    1    2    0    0 -0.95790730060E+03 -0.60462410431E+03  0.69278218694E+03  0.13306613082E+04  0.86923267846E+02 0.  0.
         11    1    3    3    0    0 -0.35530144576E+03 -0.18220539968E+03  0.26888750397E+03  0.48139216323E+03  0.00000000000E+00 0. -1.
        -11    1    3    3    0    0 -0.60260585484E+03 -0.42241870463E+03  0.42389468296E+03  0.84926914494E+03  0.00000000000E+00 0.  1.
         22    1    1    2    0    0  0.95790730060E+03  0.60462410431E+03 -0.70094849217E+03  0.13320981543E+04  0.00000000000E+00 0.  1.
<mgrwt>
<rscale>  0 0.26627469E+04</rscale>
<asrwt>0</asrwt>
<pdfrwt beam="1">  1        3 0.20545583E+00 0.26627469E+04</pdfrwt>
<pdfrwt beam="2">  1       -3 0.20419947E+00 0.26627469E+04</pdfrwt>
<totfact> 0.42928274E-02</totfact>
</mgrwt>
</event>
<event>
 6    1  0.4630212E-004  0.9670898E+03  0.7818608E-02  0.9345395E-01
         -2   -1    0    0    0  501 -0.00000000000E+00  0.00000000000E+00  0.14439325931E+03  0.14439325931E+03  0.00000000000E+00 0. -1.
          2   -1    0    0  501    0  0.00000000000E+00 -0.00000000000E+00 -0.16192975764E+04  0.16192975764E+04  0.00000000000E+00 0.  1.
         23    2    1    2    0    0  0.18556731669E+02  0.43322126765E+03 -0.11162576054E+04  0.12009720047E+04  0.90981840168E+02 0.  0.
         11    1    3    3    0    0 -0.20991081207E+02  0.26170526568E+03 -0.58231563493E+03  0.63876581801E+03  0.00000000000E+00 0.  1.
        -11    1    3    3    0    0  0.39547812876E+02  0.17151600197E+03 -0.53394197051E+03  0.56220618665E+03  0.00000000000E+00 0. -1.
         22    1    1    2    0    0 -0.18556731669E+02 -0.43322126765E+03 -0.35864671163E+03  0.56271883103E+03  0.00000000000E+00 0. -1.
<mgrwt>
<rscale>  0 0.96708977E+03</rscale>
<asrwt>0</asrwt>
<pdfrwt beam="1">  1        2 0.24912271E+00 0.96708977E+03</pdfrwt>
<pdfrwt beam="2">  1       -2 0.22214347E-01 0.96708977E+03</pdfrwt>
<totfact> 0.19305455E+02</totfact>
</mgrwt>
</event>
<event>
 6    1  0.4630212E-004  0.2437480E+04  0.7818608E-02  0.8425603E-01
          2   -1    0    0  501    0  0.00000000000E+00  0.00000000000E+00  0.10567437998E+04  0.10567437998E+04  0.00000000000E+00 0.  1.
         -2   -1    0    0    0  501 -0.00000000000E+00 -0.00000000000E+00 -0.14055697650E+04  0.14055697650E+04  0.00000000000E+00 0. -1.
         23    2    1    2    0    0 -0.11815584303E+04 -0.27529336025E+03 -0.77088705838E+02  0.12190485502E+04  0.90939213482E+02 0.  0.
         13    1    3    3    0    0 -0.38099636200E+03 -0.62497517054E+02  0.92602083842E+01  0.38619932542E+03  0.00000000000E+00 0. -1.
        -13    1    3    3    0    0 -0.80056206835E+03 -0.21279584320E+03 -0.86348914223E+02  0.83284922474E+03  0.00000000000E+00 0.  1.
         22    1    1    2    0    0  0.11815584303E+04  0.27529336025E+03 -0.27173725928E+03  0.12432650146E+04  0.00000000000E+00 0. -1.
<mgrwt>
<rscale>  0 0.24374800E+04</rscale>
<asrwt>0</asrwt>
<pdfrwt beam="1">  1        2 0.16257597E+00 0.24374800E+04</pdfrwt>
<pdfrwt beam="2">  1       -2 0.21624150E+00 0.24374800E+04</pdfrwt>
<totfact> 0.21697609E+00</totfact>
</mgrwt>
</event>
<event>
 6    1  0.4630212E-004  0.4360029E+03  0.7818608E-02  0.1031980E+00
         -2   -1    0    0    0  501 -0.00000000000E+00  0.00000000000E+00  0.23664627447E+02  0.23664627447E+02  0.00000000000E+00 0. -1.
          2   -1    0    0  501    0  0.00000000000E+00 -0.00000000000E+00 -0.20082557440E+04  0.20082557440E+04  0.00000000000E+00 0.  1.
         23    2    1    2    0    0  0.10214731148E+03 -0.71785785362E+02 -0.18132567216E+04  0.18199233264E+04  0.92917723124E+02 0.  0.
         11    1    3    3    0    0  0.65383050945E+02 -0.36222718018E+01 -0.12016206594E+04  0.12034036203E+04  0.00000000000E+00 0. -1.
        -11    1    3    3    0    0  0.36764260534E+02 -0.68163513561E+02 -0.61163606219E+03  0.61651970610E+03  0.00000000000E+00 0.  1.
         22    1    1    2    0    0 -0.10214731148E+03  0.71785785362E+02 -0.17133439497E+03  0.21199704508E+03  0.00000000000E+00 0. -1.
<mgrwt>
<rscale>  0 0.43600286E+03</rscale>
<asrwt>0</asrwt>
<pdfrwt beam="1">  1        2 0.30896253E+00 0.43600286E+03</pdfrwt>
<pdfrwt beam="2">  1       -2 0.36407106E-02 0.43600286E+03</pdfrwt>
<totfact> 0.23104373E+03</totfact>
</mgrwt>
</event>
<event>
 6    1  0.4630212E-004  0.2839062E+04  0.7818608E-02  0.8291243E-01
         -2   -1    0    0    0  501 -0.00000000000E+00  0.00000000000E+00  0.15072538037E+04  0.15072538037E+04  0.00000000000E+00 0. -1.
          2   -1    0    0  501    0  0.00000000000E+00 -0.00000000000E+00 -0.13369138213E+04  0.13369138213E+04  0.00000000000E+00 0.  1.
         23    2    1    2    0    0  0.55138767163E+02 -0.10300583103E+04  0.10600710353E+04  0.14819335215E+04  0.91191863314E+02 0.  0.
         11    1    3    3    0    0 -0.15938860649E+02 -0.15379459144E+03  0.19100792063E+03  0.24574549717E+03  0.00000000000E+00 0.  1.
        -11    1    3    3    0    0  0.71077627812E+02 -0.87626371887E+03  0.86906311464E+03  0.12361880243E+04  0.00000000000E+00 0. -1.
         22    1    1    2    0    0 -0.55138767163E+02  0.10300583103E+04 -0.88973105287E+03  0.13622341035E+04  0.00000000000E+00 0.  1.
<mgrwt>
<rscale>  0 0.28390621E+04</rscale>
<asrwt>0</asrwt>
<pdfrwt beam="1">  1        2 0.20567905E+00 0.28390621E+04</pdfrwt>
<pdfrwt beam="2">  1       -2 0.23188520E+00 0.28390621E+04</pdfrwt>
<totfact> 0.11355933E+00</totfact>
</mgrwt>
</event>
<event>
 6    1  0.4630212E-004  0.3233616E+04  0.7818608E-02  0.8179995E-01
          2   -1    0    0  501    0  0.00000000000E+00  0.00000000000E+00  0.43791294903E+04  0.43791294903E+04  0.00000000000E+00 0.  1.
         -2   -1    0    0    0  501 -0.00000000000E+00 -0.00000000000E+00 -0.59693796594E+03  0.59693796594E+03  0.00000000000E+00 0. -1.
         23    2    1    2    0    0 -0.12173465066E+03 -0.11207252689E+04  0.11191843217E+03  0.11365689181E+04  0.91753564446E+02 0.  0.
         11    1    3    3    0    0 -0.62820582422E+02 -0.68163409950E+03  0.11149080932E+03  0.69354284060E+03  0.00000000000E+00 0.  1.
        -11    1    3    3    0    0 -0.58914068238E+02 -0.43909116937E+03  0.42762285565E+00  0.44302607746E+03  0.00000000000E+00 0. -1.
         22    1    1    2    0    0  0.12173465066E+03  0.11207252689E+04  0.36702730922E+04  0.38394985382E+04  0.00000000000E+00 0.  1.
<mgrwt>
<rscale>  0 0.32336163E+04</rscale>
<asrwt>0</asrwt>
<pdfrwt beam="1">  1        2 0.67371221E+00 0.32336163E+04</pdfrwt>
<pdfrwt beam="2">  1       -2 0.91836613E-01 0.32336163E+04</pdfrwt>
<totfact> 0.13558510E-01</totfact>
</mgrwt>
</event>
<event>
 6    1  0.4630212E-004  0.9774073E+03  0.7818608E-02  0.9333677E-01
         -2   -1    0    0    0  501 -0.00000000000E+00  0.00000000000E+00  0.47026279249E+03  0.47026279249E+03  0.00000000000E+00 0. -1.
          2   -1    0    0  501    0  0.00000000000E+00 -0.00000000000E+00 -0.50786767655E+03  0.50786767655E+03  0.00000000000E+00 0.  1.
         23    2    1    2    0    0  0.36958799084E+03 -0.30645374575E+03  0.45391766354E+02  0.49089579741E+03  0.91701091611E+02 0.  0.
         13    1    3    3    0    0  0.20924218889E+03 -0.21779760960E+03  0.56799841531E+02  0.30731793693E+03  0.00000000000E+00 0. -1.
        -13    1    3    3    0    0  0.16034580194E+03 -0.88656136152E+02 -0.11408075177E+02  0.18357786048E+03  0.00000000000E+00 0.  1.
         22    1    1    2    0    0 -0.36958799084E+03  0.30645374575E+03 -0.82996650414E+02  0.48723467163E+03  0.00000000000E+00 0.  1.
<mgrwt>
<rscale>  0 0.97740733E+03</rscale>
<asrwt>0</asrwt>
<pdfrwt beam="1">  1        2 0.78133488E-01 0.97740733E+03</pdfrwt>
<pdfrwt beam="2">  1       -2 0.72348122E-01 0.97740733E+03</pdfrwt>
<totfact> 0.10459212E+02</totfact>
</mgrwt>
</event>
<event>
 6    1  0.4630212E-004  0.3217183E+04  0.7818608E-02  0.8184294E-01
         -2   -1    0    0    0  501 -0.00000000000E+00  0.00000000000E+00  0.21922640606E+04  0.21922640606E+04  0.00000000000E+00 0. -1.
          2   -1    0    0  501    0  0.00000000000E+00 -0.00000000000E+00 -0.11803169292E+04  0.11803169292E+04  0.00000000000E+00 0.  1.
         23    2    1    2    0    0  0.77155384641E+03 -0.14072045401E+04  0.60063719169E+03  0.17158686364E+04  0.88995425794E+02 0.  0.
         11    1    3    3    0    0  0.16803725425E+03 -0.38687906920E+03  0.15109820169E+03  0.44804307779E+03  0.00000000000E+00 0.  1.
        -11    1    3    3    0    0  0.60351659216E+03 -0.10203254709E+04  0.44953899000E+03  0.12678255586E+04  0.00000000000E+00 0. -1.
         22    1    1    2    0    0 -0.77155384641E+03  0.14072045401E+04  0.41130993966E+03  0.16567123534E+04  0.00000000000E+00 0.  1.
<mgrwt>
<rscale>  0 0.32171829E+04</rscale>
<asrwt>0</asrwt>
<pdfrwt beam="1">  1        2 0.18158722E+00 0.32171829E+04</pdfrwt>
<pdfrwt beam="2">  1       -2 0.33727139E+00 0.32171829E+04</pdfrwt>
<totfact> 0.30597479E-01</totfact>
</mgrwt>
</event>
<event>
 6    1  0.4630212E-004  0.9858958E+03  0.7818608E-02  0.9324151E-01
         -2   -1    0    0    0  501 -0.00000000000E+00  0.00000000000E+00  0.61415331069E+03  0.61415331069E+03  0.00000000000E+00 0. -1.
          2   -1    0    0  501    0  0.00000000000E+00 -0.00000000000E+00 -0.39566284752E+03  0.39566284752E+03  0.00000000000E+00 0.  1.
         23    2    1    2    0    0 -0.19129529060E+03  0.26965142342E+02 -0.34957880099E+03  0.40979641188E+03  0.91688352505E+02 0.  0.
         11    1    3    3    0    0 -0.29537924865E+02 -0.77887920913E+01 -0.13730348585E+03  0.14066058977E+03  0.00000000000E+00 0. -1.
        -11    1    3    3    0    0 -0.16175736573E+03  0.34753934434E+02 -0.21227531513E+03  0.26913582211E+03  0.00000000000E+00 0.  1.
         22    1    1    2    0    0  0.19129529060E+03 -0.26965142342E+02  0.56806926416E+03  0.60001974633E+03  0.00000000000E+00 0. -1.
<mgrwt>
<rscale>  0 0.98589583E+03</rscale>
<asrwt>0</asrwt>
<pdfrwt beam="1">  1        2 0.60871207E-01 0.98589583E+03</pdfrwt>
<pdfrwt beam="2">  1       -2 0.94485125E-01 0.98589583E+03</pdfrwt>
<totfact> 0.75954813E+01</totfact>
</mgrwt>
</event>
<event>
 6    1  0.4630212E-004  0.3434228E+04  0.7818608E-02  0.8129556E-01
         -2   -1    0    0    0  501 -0.00000000000E+00  0.00000000000E+00  0.17295748832E+04  0.17295748832E+04  0.00000000000E+00 0. -1.
          2   -1    0    0  501    0  0.00000000000E+00 -0.00000000000E+00 -0.17047428414E+04  0.17047428414E+04  0.00000000000E+00 0.  1.
         23    2    1    2    0    0  0.11594415153E+04  0.57690074944E+03  0.11381874897E+04  0.17264888528E+04  0.90409594798E+02 0.  0.
         11    1    3    3    0    0  0.62508691613E+03  0.26073773011E+03  0.58906819395E+03  0.89761860149E+03  0.00000000000E+00 0.  1.
        -11    1    3    3    0    0  0.53435459919E+03  0.31616301933E+03  0.54911929575E+03  0.82887025127E+03  0.00000000000E+00 0. -1.
         22    1    1    2    0    0 -0.11594415153E+04 -0.57690074944E+03 -0.11133554479E+04  0.17078288719E+04  0.00000000000E+00 0.  1.
<mgrwt>
<rscale>  0 0.34342279E+04</rscale>
<asrwt>0</asrwt>
<pdfrwt beam="1">  1        2 0.26226813E+00 0.34342279E+04</pdfrwt>
<pdfrwt beam="2">  1       -2 0.26608844E+00 0.34342279E+04</pdfrwt>
<totfact> 0.41238124E-01</totfact>
</mgrwt>
</event>
<event>
 6    1  0.4630212E-004  0.2309966E+04  0.7818608E-02  0.8474002E-01
         -2   -1    0    0    0  501 -0.00000000000E+00  0.00000000000E+00  0.24630935852E+04  0.24630935852E+04  0.00000000000E+00 0. -1.
          2   -1    0    0  501    0  0.00000000000E+00 -0.00000000000E+00 -0.54158938360E+03  0.54158938360E+03  0.00000000000E+00 0.  1.
         23    2    1    2    0    0  0.55616837719E+03  0.61860394767E+03 -0.76571644689E+02  0.84035831770E+03  0.91349753632E+02 0.  0.
         13    1    3    3    0    0  0.25820317030E+03  0.26750980485E+03  0.94011193439E+01  0.37191229327E+03  0.00000000000E+00 0. -1.
        -13    1    3    3    0    0  0.29796520690E+03  0.35109414282E+03 -0.85972764033E+02  0.46844602443E+03  0.00000000000E+00 0.  1.
         22    1    1    2    0    0 -0.55616837719E+03 -0.61860394767E+03  0.19980758463E+04  0.21643246511E+04  0.00000000000E+00 0. -1.
<mgrwt>
<rscale>  0 0.23099657E+04</rscale>
<asrwt>0</asrwt>
<pdfrwt beam="1">  1        2 0.83321445E-01 0.23099657E+04</pdfrwt>
<pdfrwt beam="2">  1       -2 0.37893747E+00 0.23099657E+04</pdfrwt>
<totfact> 0.51720781E-01</totfact>
</mgrwt>
</event>
<event>
 6    1  0.4630212E-004  0.2283990E+04  0.7818608E-02  0.8484260E-01
         -2   -1    0    0    0  501 -0.00000000000E+00  0.00000000000E+00  0.43662966448E+03  0.43662966448E+03  0.00000000000E+00 0. -1.
          2   -1    0    0  501    0  0.00000000000E+00 -0.00000000000E+00 -0.29868630977E+04  0.29868630977E+04  0.00000000000E+00 0.  1.
         23    2    1    2    0    0  0.56964093800E+03  0.54066009578E+03 -0.38097987845E+02  0.79145388835E+03  0.90242247829E+02 0.  0.
         13    1    3    3    0    0  0.39409944584E+03  0.34200978505E+03  0.10616996087E+02  0.52191741386E+03  0.00000000000E+00 0.  1.
        -13    1    3    3    0    0  0.17554149216E+03  0.19865031074E+03 -0.48714983931E+02  0.26953647450E+03  0.00000000000E+00 0. -1.
         22    1    1    2    0    0 -0.56964093800E+03 -0.54066009578E+03 -0.25121354454E+04  0.26320388739E+04  0.00000000000E+00 0.  1.
<mgrwt>
<rscale>  0 0.22839904E+04</rscale>
<asrwt>0</asrwt>
<pdfrwt beam="1">  1        2 0.45951740E+00 0.22839904E+04</pdfrwt>
<pdfrwt beam="2">  1       -2 0.67173794E-01 0.22839904E+04</pdfrwt>
<totfact> 0.32782722E+00</totfact>
</mgrwt>
</event>
<event>
 6    1  0.4630212E-004  0.2275926E+04  0.7818608E-02  0.8487474E-01
         -2   -1    0    0    0  501 -0.00000000000E+00  0.00000000000E+00  0.11379924963E+04  0.11379924963E+04  0.00000000000E+00 0. -1.
          2   -1    0    0  501    0  0.00000000000E+00 -0.00000000000E+00 -0.11379335219E+04  0.11379335219E+04  0.00000000000E+00 0.  1.
         23    2    1    2    0    0 -0.29224864709E+03 -0.50359300771E+03 -0.97548807455E+03  0.11398330493E+04  0.92882762135E+02 0.  0.
         13    1    3    3    0    0 -0.23839817430E+03 -0.38864210562E+03 -0.68549152394E+03  0.82327091845E+03  0.00000000000E+00 0. -1.
        -13    1    3    3    0    0 -0.53850472793E+02 -0.11495090210E+03 -0.28999655061E+03  0.31656213084E+03  0.00000000000E+00 0.  1.
         22    1    1    2    0    0  0.29224864709E+03  0.50359300771E+03  0.97554704902E+03  0.11360929689E+04  0.00000000000E+00 0. -1.
<mgrwt>
<rscale>  0 0.22759260E+04</rscale>
<asrwt>0</asrwt>
<pdfrwt beam="1">  1        2 0.17506670E+00 0.22759260E+04</pdfrwt>
<pdfrwt beam="2">  1       -2 0.17507577E+00 0.22759260E+04</pdfrwt>
<totfact> 0.36807278E+00</totfact>
</mgrwt>
</event>
<event>
 6    1  0.4630212E-004  0.2399797E+04  0.7818608E-02  0.8439580E-01
         -2   -1    0    0    0  501 -0.00000000000E+00  0.00000000000E+00  0.81246910482E+03  0.81246910482E+03  0.00000000000E+00 0. -1.
          2   -1    0    0  501    0  0.00000000000E+00 -0.00000000000E+00 -0.17720746866E+04  0.17720746866E+04  0.00000000000E+00 0.  1.
         23    2    1    2    0    0  0.80345875702E+03 -0.82636837937E+03 -0.13406104690E+03  0.11668151673E+04  0.12269717862E+03 0.  0.
         13    1    3    3    0    0  0.14064658573E+03 -0.17223927557E+03 -0.71066188780E+02  0.23344856674E+03  0.00000000000E+00 0.  1.
        -13    1    3    3    0    0  0.66281217129E+03 -0.65412910380E+03 -0.62994858116E+02  0.93336660054E+03  0.00000000000E+00 0. -1.
         22    1    1    2    0    0 -0.80345875702E+03  0.82636837937E+03 -0.82554453493E+03  0.14177286242E+04  0.00000000000E+00 0.  1.
<mgrwt>
<rscale>  0 0.23997966E+04</rscale>
<asrwt>0</asrwt>
<pdfrwt beam="1">  1        2 0.27262687E+00 0.23997966E+04</pdfrwt>
<pdfrwt beam="2">  1       -2 0.12499525E+00 0.23997966E+04</pdfrwt>
<totfact> 0.38565092E+00</totfact>
</mgrwt>
</event>
<event>
 6    1  0.4630212E-004  0.2485094E+04  0.7818608E-02  0.8408315E-01
         -2   -1    0    0    0  501 -0.00000000000E+00  0.00000000000E+00  0.42065442126E+03  0.42065442126E+03  0.00000000000E+00 0. -1.
          2   -1    0    0  501    0  0.00000000000E+00 -0.00000000000E+00 -0.36702895421E+04  0.36702895421E+04  0.00000000000E+00 0.  1.
         23    2    1    2    0    0 -0.48314567545E+03  0.10274666169E+04 -0.80281783967E+03  0.13935318332E+04  0.91088385685E+02 0.  0.
         11    1    3    3    0    0 -0.52447856293E+02  0.12095182005E+03 -0.59624827686E+02  0.14469015336E+03  0.00000000000E+00 0.  1.
        -11    1    3    3    0    0 -0.43069781915E+03  0.90651479680E+03 -0.74319301198E+03  0.12488416798E+04  0.00000000000E+00 0. -1.
         22    1    1    2    0    0  0.48314567545E+03 -0.10274666169E+04 -0.24468172812E+04  0.26974121301E+04  0.00000000000E+00 0.  1.
<mgrwt>
<rscale>  0 0.24850944E+04</rscale>
<asrwt>0</asrwt>
<pdfrwt beam="1">  1        2 0.56465990E+00 0.24850944E+04</pdfrwt>
<pdfrwt beam="2">  1       -2 0.64716069E-01 0.24850944E+04</pdfrwt>
<totfact> 0.12104806E+00</totfact>
</mgrwt>
</event>
<event>
 6    1  0.4630212E-004  0.4330992E+04  0.7818608E-02  0.7940912E-01
         -1   -1    0    0    0  501 -0.00000000000E+00  0.00000000000E+00  0.20017617846E+04  0.20017617846E+04  0.00000000000E+00 0. -1.
          1   -1    0    0  501    0  0.00000000000E+00 -0.00000000000E+00 -0.23426223270E+04  0.23426223270E+04  0.00000000000E+00 0.  1.
         23    2    1    2    0    0  0.75915973922E+03  0.14424649652E+04 -0.15990996371E+04  0.22852109025E+04  0.89669027857E+02 0.  0.
         13    1    3    3    0    0  0.26366980490E+03  0.59525551264E+03 -0.63845633922E+03  0.91185381966E+03  0.00000000000E+00 0. -1.
        -13    1    3    3    0    0  0.49548993432E+03  0.84720945251E+03 -0.96064329783E+03  0.13733570829E+04  0.00000000000E+00 0.  1.
         22    1    1    2    0    0 -0.75915973922E+03 -0.14424649652E+04  0.12582390946E+04  0.20591732090E+04  0.00000000000E+00 0. -1.
<mgrwt>
<rscale>  0 0.43309915E+04</rscale>
<asrwt>0</asrwt>
<pdfrwt beam="1">  1        1 0.36040344E+00 0.43309915E+04</pdfrwt>
<pdfrwt beam="2">  1       -1 0.30796335E+00 0.43309915E+04</pdfrwt>
<totfact> 0.38862077E-02</totfact>
</mgrwt>
</event>
<event>
 6    1  0.4630212E-004  0.7826019E+03  0.7818608E-02  0.9585547E-01
         -2   -1    0    0    0  501 -0.00000000000E+00  0.00000000000E+00  0.11435320568E+03  0.11435320568E+03  0.00000000000E+00 0. -1.
          2   -1    0    0  501    0  0.00000000000E+00 -0.00000000000E+00 -0.13389781705E+04  0.13389781705E+04  0.00000000000E+00 0.  1.
         23    2    1    2    0    0 -0.36451310495E+03  0.16003481133E+02 -0.85484228203E+03  0.93384591190E+03  0.90481738155E+02 0.  0.
         13    1    3    3    0    0 -0.22503392867E+03 -0.19440588761E+02 -0.60105996978E+03  0.64209913005E+03  0.00000000000E+00 0.  1.
        -13    1    3    3    0    0 -0.13947917629E+03  0.35444069895E+02 -0.25378231224E+03  0.29174678185E+03  0.00000000000E+00 0. -1.
         22    1    1    2    0    0  0.36451310495E+03 -0.16003481133E+02 -0.36978268278E+03  0.51948546426E+03  0.00000000000E+00 0. -1.
<mgrwt>
<rscale>  0 0.78260193E+03</rscale>
<asrwt>0</asrwt>
<pdfrwt beam="1">  1        2 0.20599663E+00 0.78260193E+03</pdfrwt>
<pdfrwt beam="2">  1       -2 0.17592802E-01 0.78260193E+03</pdfrwt>
<totfact> 0.42204366E+02</totfact>
</mgrwt>
</event>
<event>
 6    1  0.4630212E-004  0.3653193E+04  0.7818608E-02  0.8078415E-01
          2   -1    0    0  501    0  0.00000000000E+00  0.00000000000E+00  0.14710009795E+04  0.14710009795E+04  0.00000000000E+00 0.  1.
         -2   -1    0    0    0  501 -0.00000000000E+00 -0.00000000000E+00 -0.22681521825E+04  0.22681521825E+04  0.00000000000E+00 0. -1.
         23    2    1    2    0    0  0.12182679402E+04 -0.13570229174E+04 -0.48159214243E+03  0.18884058824E+04  0.91966366524E+02 0.  0.
         13    1    3    3    0    0  0.11652295117E+04 -0.13091237519E+04 -0.47911281448E+03  0.18168967780E+04  0.00000000000E+00 0.  1.
        -13    1    3    3    0    0  0.53038428452E+02 -0.47899165495E+02 -0.24793279579E+01  0.71509104419E+02  0.00000000000E+00 0. -1.
         22    1    1    2    0    0 -0.12182679402E+04  0.13570229174E+04 -0.31555906054E+03  0.18507472797E+04  0.00000000000E+00 0.  1.
<mgrwt>
<rscale>  0 0.36531926E+04</rscale>
<asrwt>0</asrwt>
<pdfrwt beam="1">  1        2 0.22630784E+00 0.36531926E+04</pdfrwt>
<pdfrwt beam="2">  1       -2 0.34894649E+00 0.36531926E+04</pdfrwt>
<totfact> 0.16893986E-01</totfact>
</mgrwt>
</event>
<event>
 6    1  0.4630212E-004  0.2709873E+04  0.7818608E-02  0.8331809E-01
          2   -1    0    0  501    0  0.00000000000E+00  0.00000000000E+00  0.30118592957E+04  0.30118592957E+04  0.00000000000E+00 0.  1.
         -2   -1    0    0    0  501 -0.00000000000E+00 -0.00000000000E+00 -0.60954136845E+03  0.60954136845E+03  0.00000000000E+00 0. -1.
         23    2    1    2    0    0 -0.71542773757E+03  0.14460496776E+03  0.27255719485E+04  0.28231271480E+04  0.92504069238E+02 0.  0.
         11    1    3    3    0    0 -0.18791312651E+03  0.93313110936E+01  0.81677671871E+03  0.83816622738E+03  0.00000000000E+00 0. -1.
        -11    1    3    3    0    0 -0.52751461106E+03  0.13527365667E+03  0.19087952298E+04  0.19849609206E+04  0.00000000000E+00 0.  1.
         22    1    1    2    0    0  0.71542773757E+03 -0.14460496776E+03 -0.32325402124E+03  0.79827351618E+03  0.00000000000E+00 0. -1.
<mgrwt>
<rscale>  0 0.27098729E+04</rscale>
<asrwt>0</asrwt>
<pdfrwt beam="1">  1        2 0.46336296E+00 0.27098729E+04</pdfrwt>
<pdfrwt beam="2">  1       -2 0.93775597E-01 0.27098729E+04</pdfrwt>
<totfact> 0.14409032E+00</totfact>
</mgrwt>
</event>
<event>
 6    1  0.4630212E-004  0.2870713E+04  0.7818608E-02  0.8281645E-01
         -2   -1    0    0    0  501 -0.00000000000E+00  0.00000000000E+00  0.16481472908E+04  0.16481472908E+04  0.00000000000E+00 0. -1.
          2   -1    0    0  501    0  0.00000000000E+00 -0.00000000000E+00 -0.12500390155E+04  0.12500390155E+04  0.00000000000E+00 0.  1.
         23    2    1    2    0    0  0.12903974765E+04  0.39167624889E+03  0.69107534068E+03  0.15181987583E+04  0.93842485595E+02 0.  0.
         11    1    3    3    0    0  0.29502263877E+03  0.89776325204E+02  0.11462997687E+03  0.32899571054E+03  0.00000000000E+00 0. -1.
        -11    1    3    3    0    0  0.99537483771E+03  0.30189992369E+03  0.57644536381E+03  0.11892030478E+04  0.00000000000E+00 0.  1.
         22    1    1    2    0    0 -0.12903974765E+04 -0.39167624889E+03 -0.29296706541E+03  0.13799875480E+04  0.00000000000E+00 0.  1.
<mgrwt>
<rscale>  0 0.28707131E+04</rscale>
<asrwt>0</asrwt>
<pdfrwt beam="1">  1        2 0.19231369E+00 0.28707131E+04</pdfrwt>
<pdfrwt beam="2">  1       -2 0.25356112E+00 0.28707131E+04</pdfrwt>
<totfact> 0.93494182E-01</totfact>
</mgrwt>
</event>
<event>
 6    1  0.5170115E-004  0.2811194E+04  0.7818608E-02  0.8299801E-01
          2   -1    0    0  501    0  0.00000000000E+00  0.00000000000E+00  0.17408216504E+04  0.17408216504E+04  0.00000000000E+00 0.  1.
         -2   -1    0    0    0  501 -0.00000000000E+00 -0.00000000000E+00 -0.11349255949E+04  0.11349255949E+04  0.00000000000E+00 0. -1.
         23    2    1    2    0    0  0.32884713946E+03  0.10927527973E+04 -0.53360283371E+03  0.12630765301E+04  0.91549001218E+02 0.  0.
         13    1    3    3    0    0  0.19257373937E+03  0.69084907297E+03 -0.28878772172E+03  0.77314645115E+03  0.00000000000E+00 0.  1.
        -13    1    3    3    0    0  0.13627340009E+03  0.40190372435E+03 -0.24481511199E+03  0.48993007897E+03  0.00000000000E+00 0. -1.
         22    1    1    2    0    0 -0.32884713946E+03 -0.10927527973E+04  0.11394988892E+04  0.16126707152E+04  0.00000000000E+00 0.  1.
<mgrwt>
<rscale>  0 0.28111941E+04</rscale>
<asrwt>0</asrwt>
<pdfrwt beam="1">  1        2 0.26781871E+00 0.28111941E+04</pdfrwt>
<pdfrwt beam="2">  1       -2 0.17460394E+00 0.28111941E+04</pdfrwt>
<totfact> 0.16002527E+00</totfact>
</mgrwt>
</event>
<event>
 6    1  0.4630212E-004  0.4634428E+04  0.7818608E-02  0.7887516E-01
         -2   -1    0    0    0  501 -0.00000000000E+00  0.00000000000E+00  0.28975736994E+04  0.28975736994E+04  0.00000000000E+00 0. -1.
          2   -1    0    0  501    0  0.00000000000E+00 -0.00000000000E+00 -0.18530952166E+04  0.18530952166E+04  0.00000000000E+00 0.  1.
         23    2    1    2    0    0  0.15084822656E+04 -0.10383458410E+03  0.23211717579E+04  0.27717181623E+04  0.91010302631E+02 0.  0.
         11    1    3    3    0    0  0.13067699932E+04 -0.70119130232E+02  0.20496079366E+04  0.24317601036E+04  0.00000000000E+00 0. -1.
        -11    1    3    3    0    0  0.20171227247E+03 -0.33715453870E+02  0.27156382128E+03  0.33995805877E+03  0.00000000000E+00 0.  1.
         22    1    1    2    0    0 -0.15084822656E+04  0.10383458410E+03 -0.12766932751E+04  0.19789507536E+04  0.00000000000E+00 0.  1.
<mgrwt>
<rscale>  0 0.46344277E+04</rscale>
<asrwt>0</asrwt>
<pdfrwt beam="1">  1        2 0.28509157E+00 0.46344277E+04</pdfrwt>
<pdfrwt beam="2">  1       -2 0.44578057E+00 0.46344277E+04</pdfrwt>
<totfact> 0.22401606E-02</totfact>
</mgrwt>
</event>
<event>
 6    1  0.4630212E-004  0.5506466E+03  0.7818608E-02  0.1001344E+00
          2   -1    0    0  501    0  0.00000000000E+00  0.00000000000E+00  0.29095468308E+04  0.29095468308E+04  0.00000000000E+00 0.  1.
         -2   -1    0    0    0  501 -0.00000000000E+00 -0.00000000000E+00 -0.26053170628E+02  0.26053170628E+02  0.00000000000E+00 0. -1.
         23    2    1    2    0    0  0.19402235763E+03 -0.17461945577E+03  0.18178349509E+04  0.18384377006E+04  0.84809438626E+02 0.  0.
         13    1    3    3    0    0  0.10900719892E+03 -0.59092434478E+02  0.10523933083E+04  0.10596726668E+04  0.00000000000E+00 0.  1.
        -13    1    3    3    0    0  0.85015158712E+02 -0.11552702129E+03  0.76544164254E+03  0.77876503388E+03  0.00000000000E+00 0. -1.
         22    1    1    2    0    0 -0.19402235763E+03  0.17461945577E+03  0.10656587093E+04  0.10971623008E+04  0.00000000000E+00 0. -1.
<mgrwt>
<rscale>  0 0.55064660E+03</rscale>
<asrwt>0</asrwt>
<pdfrwt beam="1">  1        2 0.44762233E+00 0.55064660E+03</pdfrwt>
<pdfrwt beam="2">  1       -2 0.40081824E-02 0.55064660E+03</pdfrwt>
<totfact> 0.61843031E+02</totfact>
</mgrwt>
</event>
<event>
 6    1  0.4630212E-004  0.1478842E+04  0.7818608E-02  0.8898646E-01
          2   -1    0    0  501    0  0.00000000000E+00  0.00000000000E+00  0.14100440178E+04  0.14100440178E+04  0.00000000000E+00 0.  1.
         -2   -1    0    0    0  501 -0.00000000000E+00 -0.00000000000E+00 -0.38774919248E+03  0.38774919248E+03  0.00000000000E+00 0. -1.
         23    2    1    2    0    0  0.52527467009E+03 -0.34944448710E+03  0.97541392605E+03  0.11651616055E+04  0.90245837750E+02 0.  0.
         13    1    3    3    0    0  0.16668685447E+03 -0.12812989233E+03  0.40083850110E+03  0.45262929725E+03  0.00000000000E+00 0.  1.
        -13    1    3    3    0    0  0.35858781562E+03 -0.22131459476E+03  0.57457542494E+03  0.71253230826E+03  0.00000000000E+00 0. -1.
         22    1    1    2    0    0 -0.52527467009E+03  0.34944448710E+03  0.46880899230E+02  0.63263160473E+03  0.00000000000E+00 0. -1.
<mgrwt>
<rscale>  0 0.14788420E+04</rscale>
<asrwt>0</asrwt>
<pdfrwt beam="1">  1        2 0.21692985E+00 0.14788420E+04</pdfrwt>
<pdfrwt beam="2">  1       -2 0.59653723E-01 0.14788420E+04</pdfrwt>
<totfact> 0.36227997E+01</totfact>
</mgrwt>
</event>
<event>
 6    1  0.4630212E-004  0.3531153E+04  0.7818608E-02  0.8106446E-01
         -2   -1    0    0    0  501 -0.00000000000E+00  0.00000000000E+00  0.82515987123E+03  0.82515987123E+03  0.00000000000E+00 0. -1.
          2   -1    0    0  501    0  0.00000000000E+00 -0.00000000000E+00 -0.37777657215E+04  0.37777657215E+04  0.00000000000E+00 0.  1.
         23    2    1    2    0    0 -0.82668994873E+03  0.62906236367E+03 -0.33363290431E+04  0.34955055200E+04  0.91277751893E+02 0.  0.
         13    1    3    3    0    0 -0.42400406922E+03  0.32779459572E+03 -0.15685115625E+04  0.16575455558E+04  0.00000000000E+00 0. -1.
        -13    1    3    3    0    0 -0.40268587952E+03  0.30126776795E+03 -0.17678174806E+04  0.18379599643E+04  0.00000000000E+00 0.  1.
         22    1    1    2    0    0  0.82668994873E+03 -0.62906236367E+03  0.38372319283E+03  0.11074200727E+04  0.00000000000E+00 0. -1.
<mgrwt>
<rscale>  0 0.35311532E+04</rscale>
<asrwt>0</asrwt>
<pdfrwt beam="1">  1        2 0.58119472E+00 0.35311532E+04</pdfrwt>
<pdfrwt beam="2">  1       -2 0.12694767E+00 0.35311532E+04</pdfrwt>
<totfact> 0.19256485E-01</totfact>
</mgrwt>
</event>
<event>
 6    1  0.4630212E-004  0.6842110E+03  0.7818608E-02  0.9744621E-01
         -2   -1    0    0    0  501 -0.00000000000E+00  0.00000000000E+00  0.77739753866E+03  0.77739753866E+03  0.00000000000E+00 0. -1.
          2   -1    0    0  501    0  0.00000000000E+00 -0.00000000000E+00 -0.15054865897E+03  0.15054865897E+03  0.00000000000E+00 0.  1.
         23    2    1    2    0    0  0.32670812641E+03  0.76956928064E+02  0.30972473398E+03  0.46617970639E+03  0.93453406434E+02 0.  0.
         11    1    3    3    0    0  0.25350826688E+03  0.31280340936E+02  0.18881623042E+03  0.31764204692E+03  0.00000000000E+00 0. -1.
        -11    1    3    3    0    0  0.73199859533E+02  0.45676587128E+02  0.12090850356E+03  0.14853765947E+03  0.00000000000E+00 0.  1.
         22    1    1    2    0    0 -0.32670812641E+03 -0.76956928064E+02  0.31712414572E+03  0.46176649124E+03  0.00000000000E+00 0. -1.
<mgrwt>
<rscale>  0 0.68421095E+03</rscale>
<asrwt>0</asrwt>
<pdfrwt beam="1">  1        2 0.23161333E-01 0.68421095E+03</pdfrwt>
<pdfrwt beam="2">  1       -2 0.11959962E+00 0.68421095E+03</pdfrwt>
<totfact> 0.12963930E+02</totfact>
</mgrwt>
</event>
<event>
 6    1  0.4630212E-004  0.4699082E+04  0.7818608E-02  0.7876681E-01
          2   -1    0    0  501    0  0.00000000000E+00  0.00000000000E+00  0.41799036413E+04  0.41799036413E+04  0.00000000000E+00 0.  1.
         -2   -1    0    0    0  501 -0.00000000000E+00 -0.00000000000E+00 -0.13206865224E+04  0.13206865224E+04  0.00000000000E+00 0. -1.
         23    2    1    2    0    0 -0.15168823481E+03  0.18038482751E+04 -0.32159223135E+03  0.18407505439E+04  0.89794661188E+02 0.  0.
         11    1    3    3    0    0 -0.14519210309E+03  0.17051820491E+04 -0.32441705103E+03  0.17418303563E+04  0.00000000000E+00 0. -1.
        -11    1    3    3    0    0 -0.64961317206E+01  0.98666226078E+02  0.28248196768E+01  0.98920187535E+02  0.00000000000E+00 0.  1.
         22    1    1    2    0    0  0.15168823481E+03 -0.18038482751E+04  0.31808093503E+04  0.36598396198E+04  0.00000000000E+00 0.  1.
<mgrwt>
<rscale>  0 0.46990818E+04</rscale>
<asrwt>0</asrwt>
<pdfrwt beam="1">  1        2 0.64306209E+00 0.46990818E+04</pdfrwt>
<pdfrwt beam="2">  1       -2 0.20318254E+00 0.46990818E+04</pdfrwt>
<totfact> 0.22744771E-02</totfact>
</mgrwt>
</event>
<event>
 6    1  0.4630212E-004  0.1273785E+04  0.7818608E-02  0.9050616E-01
          2   -1    0    0  501    0  0.00000000000E+00  0.00000000000E+00  0.11100839510E+04  0.11100839510E+04  0.00000000000E+00 0.  1.
         -2   -1    0    0    0  501 -0.00000000000E+00 -0.00000000000E+00 -0.36540653516E+03  0.36540653516E+03  0.00000000000E+00 0. -1.
         23    2    1    2    0    0  0.32338096146E+03 -0.25323910815E+03 -0.18480677008E+03  0.45929850430E+03  0.89979340158E+02 0.  0.
         11    1    3    3    0    0  0.10259391343E+03 -0.64389882711E+02 -0.13140329270E+02  0.12183692511E+03  0.00000000000E+00 0. -1.
        -11    1    3    3    0    0  0.22078704803E+03 -0.18884922544E+03 -0.17166644081E+03  0.33746157919E+03  0.00000000000E+00 0.  1.
         22    1    1    2    0    0 -0.32338096146E+03  0.25323910815E+03  0.92948418587E+03  0.10161919818E+04  0.00000000000E+00 0.  1.
<mgrwt>
<rscale>  0 0.12737848E+04</rscale>
<asrwt>0</asrwt>
<pdfrwt beam="1">  1        2 0.17078214E+00 0.12737848E+04</pdfrwt>
<pdfrwt beam="2">  1       -2 0.56216391E-01 0.12737848E+04</pdfrwt>
<totfact> 0.62635312E+01</totfact>
</mgrwt>
</event>
<event>
 6    1  0.4630212E-004  0.9584296E+03  0.7818608E-02  0.9355352E-01
          2   -1    0    0  501    0  0.00000000000E+00  0.00000000000E+00  0.41079432903E+04  0.41079432903E+04  0.00000000000E+00 0.  1.
         -2   -1    0    0    0  501 -0.00000000000E+00 -0.00000000000E+00 -0.55903108948E+02  0.55903108948E+02  0.00000000000E+00 0. -1.
         23    2    1    2    0    0 -0.37753305694E+02  0.25850081277E+03  0.37672782016E+04  0.37774044665E+04  0.90285506768E+02 0.  0.
         11    1    3    3    0    0 -0.57790982254E+02  0.11175462279E+03  0.19848700480E+04  0.19888534388E+04  0.00000000000E+00 0.  1.
        -11    1    3    3    0    0  0.20037676560E+02  0.14674618998E+03  0.17824081536E+04  0.17885510277E+04  0.00000000000E+00 0. -1.
         22    1    1    2    0    0  0.37753305694E+02 -0.25850081277E+03  0.28476197974E+03  0.38644193277E+03  0.00000000000E+00 0. -1.
<mgrwt>
<rscale>  0 0.95842955E+03</rscale>
<asrwt>0</asrwt>
<pdfrwt beam="1">  1        2 0.63199104E+00 0.95842955E+03</pdfrwt>
<pdfrwt beam="2">  1       -2 0.86004815E-02 0.95842955E+03</pdfrwt>
<totfact> 0.26155436E+01</totfact>
</mgrwt>
</event>
<event>
 6    1  0.4630212E-004  0.2840694E+04  0.7818608E-02  0.8290745E-01
          2   -1    0    0  501    0  0.00000000000E+00  0.00000000000E+00  0.25611316264E+04  0.25611316264E+04  0.00000000000E+00 0.  1.
         -2   -1    0    0    0  501 -0.00000000000E+00 -0.00000000000E+00 -0.78769281593E+03  0.78769281593E+03  0.00000000000E+00 0. -1.
         23    2    1    2    0    0 -0.78309879363E+03 -0.11828019185E+04  0.85103725282E+03  0.16567580333E+04  0.91206778220E+02 0.  0.
         13    1    3    3    0    0 -0.28368169525E+03 -0.47459941716E+03  0.37425779663E+03  0.66767417901E+03  0.00000000000E+00 0.  1.
        -13    1    3    3    0    0 -0.49941709838E+03 -0.70820250130E+03  0.47677945619E+03  0.98908385430E+03  0.00000000000E+00 0. -1.
         22    1    1    2    0    0  0.78309879363E+03  0.11828019185E+04  0.92240155762E+03  0.16920664090E+04  0.00000000000E+00 0. -1.
<mgrwt>
<rscale>  0 0.28406936E+04</rscale>
<asrwt>0</asrwt>
<pdfrwt beam="1">  1        2 0.39402025E+00 0.28406936E+04</pdfrwt>
<pdfrwt beam="2">  1       -2 0.12118351E+00 0.28406936E+04</pdfrwt>
<totfact> 0.14409020E+00</totfact>
</mgrwt>
</event>
<event>
 6    1  0.4630212E-004  0.2050068E+04  0.7818608E-02  0.8583563E-01
          2   -1    0    0  501    0  0.00000000000E+00  0.00000000000E+00  0.14661876775E+04  0.14661876775E+04  0.00000000000E+00 0.  1.
         -2   -1    0    0    0  501 -0.00000000000E+00 -0.00000000000E+00 -0.71661700842E+03  0.71661700842E+03  0.00000000000E+00 0. -1.
         23    2    1    2    0    0  0.23133102439E+03  0.31885972132E+03 -0.62979926286E+03  0.74828491475E+03  0.89986873622E+02 0.  0.
         11    1    3    3    0    0  0.14146486636E+03  0.18174952221E+03 -0.28445554057E+03  0.36600567182E+03  0.00000000000E+00 0.  1.
        -11    1    3    3    0    0  0.89866158031E+02  0.13711019910E+03 -0.34534372229E+03  0.38227924294E+03  0.00000000000E+00 0. -1.
         22    1    1    2    0    0 -0.23133102439E+03 -0.31885972132E+03  0.13793699319E+04  0.14345197711E+04  0.00000000000E+00 0.  1.
<mgrwt>
<rscale>  0 0.20500683E+04</rscale>
<asrwt>0</asrwt>
<pdfrwt beam="1">  1        2 0.22556733E+00 0.20500683E+04</pdfrwt>
<pdfrwt beam="2">  1       -2 0.11024877E+00 0.20500683E+04</pdfrwt>
<totfact> 0.80221740E+00</totfact>
</mgrwt>
</event>
<event>
 6    1  0.4630212E-004  0.1990923E+04  0.7818608E-02  0.8610876E-01
          2   -1    0    0  501    0  0.00000000000E+00  0.00000000000E+00  0.80665695729E+03  0.80665695729E+03  0.00000000000E+00 0.  1.
         -2   -1    0    0    0  501 -0.00000000000E+00 -0.00000000000E+00 -0.12284575813E+04  0.12284575813E+04  0.00000000000E+00 0. -1.
         23    2    1    2    0    0 -0.41987004807E+03  0.65062909055E+03  0.42475882670E+03  0.88782557137E+03  0.90582081995E+02 0.  0.
         13    1    3    3    0    0 -0.33999153182E+02  0.10071602162E+03  0.39467632476E+02  0.11339027049E+03  0.00000000000E+00 0. -1.
        -13    1    3    3    0    0 -0.38587089489E+03  0.54991306893E+03  0.38529119423E+03  0.77443530088E+03  0.00000000000E+00 0.  1.
         22    1    1    2    0    0  0.41987004807E+03 -0.65062909055E+03 -0.84655945073E+03  0.11472889672E+04  0.00000000000E+00 0. -1.
<mgrwt>
<rscale>  0 0.19909233E+04</rscale>
<asrwt>0</asrwt>
<pdfrwt beam="1">  1        2 0.12410107E+00 0.19909233E+04</pdfrwt>
<pdfrwt beam="2">  1       -2 0.18899347E+00 0.19909233E+04</pdfrwt>
<totfact> 0.49839881E+00</totfact>
</mgrwt>
</event>
<event>
 6    1  0.4630212E-004  0.2411679E+04  0.7818608E-02  0.8435144E-01
         -2   -1    0    0    0  501 -0.00000000000E+00  0.00000000000E+00  0.91007162967E+03  0.91007162967E+03  0.00000000000E+00 0. -1.
          2   -1    0    0  501    0  0.00000000000E+00 -0.00000000000E+00 -0.15977302703E+04  0.15977302703E+04  0.00000000000E+00 0.  1.
         23    2    1    2    0    0  0.11851295267E+04  0.16468857530E+03 -0.49226037029E+03  0.12954344615E+04  0.64620816681E+02 0.  0.
         13    1    3    3    0    0  0.84950533782E+03  0.94187168716E+02 -0.36975090904E+03  0.93126058462E+03  0.00000000000E+00 0.  1.
        -13    1    3    3    0    0  0.33562418887E+03  0.70501406583E+02 -0.12250946125E+03  0.36417387685E+03  0.00000000000E+00 0. -1.
         22    1    1    2    0    0 -0.11851295267E+04 -0.16468857530E+03 -0.19539827034E+03  0.12123674385E+04  0.00000000000E+00 0. -1.
<mgrwt>
<rscale>  0 0.24116791E+04</rscale>
<asrwt>0</asrwt>
<pdfrwt beam="1">  1        2 0.24580466E+00 0.24116791E+04</pdfrwt>
<pdfrwt beam="2">  1       -2 0.14001102E+00 0.24116791E+04</pdfrwt>
<totfact> 0.36086811E+00</totfact>
</mgrwt>
</event>
<event>
 6    1  0.4630212E-004  0.1094937E+04  0.7818608E-02  0.9210141E-01
          2   -1    0    0  501    0  0.00000000000E+00  0.00000000000E+00  0.38932636247E+04  0.38932636247E+04  0.00000000000E+00 0.  1.
         -2   -1    0    0    0  501 -0.00000000000E+00 -0.00000000000E+00 -0.76984655062E+02  0.76984655062E+02  0.00000000000E+00 0. -1.
         23    2    1    2    0    0  0.15832767201E+03  0.41754768822E+03  0.30456782225E+04  0.30796084900E+04  0.91754524654E+02 0.  0.
         11    1    3    3    0    0  0.66617131251E+02  0.26344001676E+03  0.16094951604E+04  0.16322723902E+04  0.00000000000E+00 0.  1.
        -11    1    3    3    0    0  0.91710540757E+02  0.15410767146E+03  0.14361830622E+04  0.14473360998E+04  0.00000000000E+00 0. -1.
         22    1    1    2    0    0 -0.15832767201E+03 -0.41754768822E+03  0.77060074706E+03  0.89063978972E+03  0.00000000000E+00 0. -1.
<mgrwt>
<rscale>  0 0.10949366E+04</rscale>
<asrwt>0</asrwt>
<pdfrwt beam="1">  1        2 0.59896348E+00 0.10949366E+04</pdfrwt>
<pdfrwt beam="2">  1       -2 0.11843796E-01 0.10949366E+04</pdfrwt>
<totfact> 0.22530168E+01</totfact>
</mgrwt>
</event>
<event>
 6    1  0.4630212E-004  0.3060156E+04  0.7818608E-02  0.8226758E-01
          2   -1    0    0  501    0  0.00000000000E+00  0.00000000000E+00  0.23053780437E+04  0.23053780437E+04  0.00000000000E+00 0. -1.
         -2   -1    0    0    0  501 -0.00000000000E+00 -0.00000000000E+00 -0.10155121099E+04  0.10155121099E+04  0.00000000000E+00 0.  1.
         23    2    1    2    0    0 -0.39341129130E+02 -0.29316304102E+03  0.22731378794E+04  0.22940912384E+04  0.90589724384E+02 0.  0.
         13    1    3    3    0    0 -0.61053898061E+02 -0.27197147810E+03  0.20770527265E+04  0.20956727064E+04  0.00000000000E+00 0. -1.
        -13    1    3    3    0    0  0.21712768931E+02 -0.21191562925E+02  0.19608515291E+03  0.19841853206E+03  0.00000000000E+00 0.  1.
         22    1    1    2    0    0  0.39341129130E+02  0.29316304102E+03 -0.98327194563E+03  0.10267989151E+04  0.00000000000E+00 0.  1.
<mgrwt>
<rscale>  0 0.30601564E+04</rscale>
<asrwt>0</asrwt>
<pdfrwt beam="1">  1        2 0.35467354E+00 0.30601564E+04</pdfrwt>
<pdfrwt beam="2">  1       -2 0.15623263E+00 0.30601564E+04</pdfrwt>
<totfact> 0.10303789E+00</totfact>
</mgrwt>
</event>
<event>
 6    1  0.4630212E-004  0.2070452E+04  0.7818608E-02  0.8574372E-01
          2   -1    0    0  501    0  0.00000000000E+00  0.00000000000E+00  0.18769181182E+04  0.18769181182E+04  0.00000000000E+00 0.  1.
         -2   -1    0    0    0  501 -0.00000000000E+00 -0.00000000000E+00 -0.57098527634E+03  0.57098527634E+03  0.00000000000E+00 0. -1.
         23    2    1    2    0    0  0.29658904898E+02  0.67996549727E+03 -0.26587033801E+03  0.73507007971E+03  0.80051591725E+02 0.  0.
         11    1    3    3    0    0 -0.18154472300E+02  0.37160829939E+03 -0.12280842360E+03  0.39179614846E+03  0.00000000000E+00 0.  1.
        -11    1    3    3    0    0  0.47813377198E+02  0.30835719787E+03 -0.14306191441E+03  0.34327393125E+03  0.00000000000E+00 0. -1.
         22    1    1    2    0    0 -0.29658904898E+02 -0.67996549727E+03  0.15718031799E+04  0.17128333148E+04  0.00000000000E+00 0.  1.
<mgrwt>
<rscale>  0 0.20704517E+04</rscale>
<asrwt>0</asrwt>
<pdfrwt beam="1">  1        2 0.28875663E+00 0.20704517E+04</pdfrwt>
<pdfrwt beam="2">  1       -2 0.87843889E-01 0.20704517E+04</pdfrwt>
<totfact> 0.80731110E+00</totfact>
</mgrwt>
</event>
<event>
 6    1  0.4630212E-004  0.2144345E+04  0.7818608E-02  0.8541957E-01
         -2   -1    0    0    0  501 -0.00000000000E+00  0.00000000000E+00  0.40920184192E+03  0.40920184192E+03  0.00000000000E+00 0. -1.
          2   -1    0    0  501    0  0.00000000000E+00 -0.00000000000E+00 -0.28092575879E+04  0.28092575879E+04  0.00000000000E+00 0.  1.
         23    2    1    2    0    0  0.41624333601E+03 -0.65342796806E+03 -0.23099441888E+04  0.24384935863E+04  0.10090684441E+03 0.  0.
         11    1    3    3    0    0  0.32733682201E+03 -0.43726083369E+03 -0.16815187329E+04  0.17680078283E+04  0.00000000000E+00 0. -1.
        -11    1    3    3    0    0  0.88906514007E+02 -0.21616713437E+03 -0.62842545587E+03  0.67048575809E+03  0.00000000000E+00 0.  1.
         22    1    1    2    0    0 -0.41624333601E+03  0.65342796806E+03 -0.90111557193E+02  0.77996584346E+03  0.00000000000E+00 0. -1.
<mgrwt>
<rscale>  0 0.21443445E+04</rscale>
<asrwt>0</asrwt>
<pdfrwt beam="1">  1        2 0.43219346E+00 0.21443445E+04</pdfrwt>
<pdfrwt beam="2">  1       -2 0.62954131E-01 0.21443445E+04</pdfrwt>
<totfact> 0.49053586E+00</totfact>
</mgrwt>
</event>
<event>
 6    1  0.4630212E-004  0.6700014E+03  0.7818608E-02  0.9769955E-01
         -2   -1    0    0    0  501 -0.00000000000E+00  0.00000000000E+00  0.91171082000E+02  0.91171082000E+02  0.00000000000E+00 0. -1.
          2   -1    0    0  501    0  0.00000000000E+00 -0.00000000000E+00 -0.12309328494E+04  0.12309328494E+04  0.00000000000E+00 0.  1.
         23    2    1    2    0    0  0.59580531857E+01 -0.19305861667E+03 -0.11055199606E+04  0.11259416791E+04  0.90901890111E+02 0.  0.
         13    1    3    3    0    0 -0.28211630928E+02 -0.42542002227E+02 -0.42965703640E+03  0.43267873416E+03  0.00000000000E+00 0. -1.
        -13    1    3    3    0    0  0.34169684113E+02 -0.15051661444E+03 -0.67586292422E+03  0.69326294497E+03  0.00000000000E+00 0.  1.
         22    1    1    2    0    0 -0.59580531857E+01  0.19305861667E+03 -0.34241806736E+02  0.19616225222E+03  0.00000000000E+00 0. -1.
<mgrwt>
<rscale>  0 0.67000143E+03</rscale>
<asrwt>0</asrwt>
<pdfrwt beam="1">  1        2 0.18937429E+00 0.67000143E+03</pdfrwt>
<pdfrwt beam="2">  1       -2 0.14026320E-01 0.67000143E+03</pdfrwt>
<totfact> 0.72000422E+02</totfact>
</mgrwt>
</event>
<event>
 6    1  0.4630212E-004  0.3669506E+04  0.7818608E-02  0.8074753E-01
         -2   -1    0    0    0  501 -0.00000000000E+00  0.00000000000E+00  0.12972603922E+04  0.12972603922E+04  0.00000000000E+00 0. -1.
          2   -1    0    0  501    0  0.00000000000E+00 -0.00000000000E+00 -0.25949445044E+04  0.25949445044E+04  0.00000000000E+00 0.  1.
         23    2    1    2    0    0  0.14105022524E+04 -0.10779360570E+04 -0.11360010731E+04  0.21096213356E+04  0.92417500971E+02 0.  0.
         13    1    3    3    0    0  0.20059391703E+03 -0.17427876182E+03 -0.20456608752E+03  0.33534801406E+03  0.00000000000E+00 0. -1.
        -13    1    3    3    0    0  0.12099083353E+04 -0.90365729517E+03 -0.93143498558E+03  0.17742733215E+04  0.00000000000E+00 0.  1.
         22    1    1    2    0    0 -0.14105022524E+04  0.10779360570E+04 -0.16168303915E+03  0.17825835610E+04  0.00000000000E+00 0. -1.
<mgrwt>
<rscale>  0 0.36695061E+04</rscale>
<asrwt>0</asrwt>
<pdfrwt beam="1">  1        2 0.39922222E+00 0.36695061E+04</pdfrwt>
<pdfrwt beam="2">  1       -2 0.19957853E+00 0.36695061E+04</pdfrwt>
<totfact> 0.33233265E-01</totfact>
</mgrwt>
</event>
<event>
 6    1  0.4637928E-004  0.2311789E+04  0.7818608E-02  0.8473287E-01
          1   -1    0    0  501    0  0.00000000000E+00  0.00000000000E+00  0.21849273968E+04  0.21849273968E+04  0.00000000000E+00 0.  1.
         -1   -1    0    0    0  501 -0.00000000000E+00 -0.00000000000E+00 -0.61150397565E+03  0.61150397565E+03  0.00000000000E+00 0. -1.
         23    2    1    2    0    0  0.71495071876E+03 -0.66609675283E+03  0.44330660437E+02  0.98177876512E+03  0.84171977578E+02 0.  0.
         11    1    3    3    0    0  0.43192742136E+03 -0.37870542742E+03 -0.11653322920E+02  0.57455626183E+03  0.00000000000E+00 0.  1.
        -11    1    3    3    0    0  0.28302329740E+03 -0.28739132541E+03  0.55983983357E+02  0.40722250329E+03  0.00000000000E+00 0. -1.
         22    1    1    2    0    0 -0.71495071876E+03  0.66609675283E+03  0.15290927607E+04  0.18146526073E+04  0.00000000000E+00 0.  1.
<mgrwt>
<rscale>  0 0.23117887E+04</rscale>
<asrwt>0</asrwt>
<pdfrwt beam="1">  1        1 0.33614267E+00 0.23117887E+04</pdfrwt>
<pdfrwt beam="2">  1       -1 0.94077536E-01 0.23117887E+04</pdfrwt>
<totfact> 0.22041154E+00</totfact>
</mgrwt>
</event>
<event>
 6    1  0.4630212E-004  0.1137637E+04  0.7818608E-02  0.9169265E-01
         -1   -1    0    0    0  501 -0.00000000000E+00  0.00000000000E+00  0.18759888381E+03  0.18759888381E+03  0.00000000000E+00 0. -1.
          1   -1    0    0  501    0  0.00000000000E+00 -0.00000000000E+00 -0.17247144645E+04  0.17247144645E+04  0.00000000000E+00 0.  1.
         23    2    1    2    0    0 -0.17689318430E+03 -0.43224396116E+03 -0.13085269032E+04  0.13923337102E+04  0.90688827493E+02 0.  0.
         11    1    3    3    0    0 -0.18280472846E+03 -0.37892171853E+03 -0.11915270951E+04  0.12636202182E+04  0.00000000000E+00 0.  1.
        -11    1    3    3    0    0  0.59115441606E+01 -0.53322242631E+02 -0.11699980816E+03  0.12871349200E+03  0.00000000000E+00 0. -1.
         22    1    1    2    0    0  0.17689318430E+03  0.43224396116E+03 -0.22858867750E+03  0.51997963815E+03  0.00000000000E+00 0. -1.
<mgrwt>
<rscale>  0 0.11376370E+04</rscale>
<asrwt>0</asrwt>
<pdfrwt beam="1">  1        1 0.26534069E+00 0.11376370E+04</pdfrwt>
<pdfrwt beam="2">  1       -1 0.28861366E-01 0.11376370E+04</pdfrwt>
<totfact> 0.49794913E+01</totfact>
</mgrwt>
</event>
<event>
 6    1  0.5868857E-004  0.2786562E+04  0.7818608E-02  0.8307452E-01
          1   -1    0    0  501    0  0.00000000000E+00  0.00000000000E+00  0.22239895697E+04  0.22239895697E+04  0.00000000000E+00 0.  1.
         -1   -1    0    0    0  501 -0.00000000000E+00 -0.00000000000E+00 -0.87286039447E+03  0.87286039447E+03  0.00000000000E+00 0. -1.
         23    2    1    2    0    0 -0.80440629609E+03  0.22809582725E+03  0.19128166827E+04  0.20895813547E+04  0.91571724521E+02 0.  0.
         11    1    3    3    0    0 -0.50102351631E+03  0.13603181605E+03  0.10754225003E+04  0.11941787023E+04  0.00000000000E+00 0.  1.
        -11    1    3    3    0    0 -0.30338277978E+03  0.92064011202E+02  0.83739418238E+03  0.89540265239E+03  0.00000000000E+00 0. -1.
         22    1    1    2    0    0  0.80440629609E+03 -0.22809582725E+03 -0.56168750745E+03  0.10072686095E+04  0.00000000000E+00 0. -1.
<mgrwt>
<rscale>  0 0.27865623E+04</rscale>
<asrwt>0</asrwt>
<pdfrwt beam="1">  1        1 0.34215224E+00 0.27865623E+04</pdfrwt>
<pdfrwt beam="2">  1       -1 0.13428622E+00 0.27865623E+04</pdfrwt>
<totfact> 0.84884194E-01</totfact>
</mgrwt>
</event>
<event>
 6    1  0.4630212E-004  0.1457251E+04  0.7818608E-02  0.8913389E-01
          2   -1    0    0  501    0  0.00000000000E+00  0.00000000000E+00  0.10306053248E+04  0.10306053248E+04  0.00000000000E+00 0.  1.
         -2   -1    0    0    0  501 -0.00000000000E+00 -0.00000000000E+00 -0.51512966184E+03  0.51512966184E+03  0.00000000000E+00 0. -1.
         23    2    1    2    0    0  0.69767585713E+03 -0.56768527491E+02  0.46216256352E+03  0.84372604521E+03  0.91132523850E+02 0.  0.
         13    1    3    3    0    0  0.47888703041E+03 -0.39133241047E+02  0.36640704901E+03  0.60425021639E+03  0.00000000000E+00 0.  1.
        -13    1    3    3    0    0  0.21878882672E+03 -0.17635286444E+02  0.95755514515E+02  0.23947582881E+03  0.00000000000E+00 0. -1.
         22    1    1    2    0    0 -0.69767585713E+03  0.56768527491E+02  0.53313099477E+02  0.70200894148E+03  0.00000000000E+00 0.  1.
<mgrwt>
<rscale>  0 0.14572513E+04</rscale>
<asrwt>0</asrwt>
<pdfrwt beam="1">  1        2 0.15855467E+00 0.14572513E+04</pdfrwt>
<pdfrwt beam="2">  1       -2 0.79250717E-01 0.14572513E+04</pdfrwt>
<totfact> 0.32958819E+01</totfact>
</mgrwt>
</event>
<event>
 6    1  0.4630212E-004  0.2648743E+04  0.7818608E-02  0.8351830E-01
         -2   -1    0    0    0  501 -0.00000000000E+00  0.00000000000E+00  0.10737070386E+04  0.10737070386E+04  0.00000000000E+00 0. -1.
          2   -1    0    0  501    0  0.00000000000E+00 -0.00000000000E+00 -0.16335548633E+04  0.16335548633E+04  0.00000000000E+00 0.  1.
         23    2    1    2    0    0 -0.46450328493E+03  0.71983911083E+03 -0.13104319835E+04  0.15682675092E+04  0.91100767239E+02 0.  0.
         13    1    3    3    0    0 -0.16443043607E+03  0.31412009193E+03 -0.48447337602E+03  0.60035260684E+03  0.00000000000E+00 0. -1.
        -13    1    3    3    0    0 -0.30007284886E+03  0.40571901890E+03 -0.82595860749E+03  0.96791490236E+03  0.00000000000E+00 0.  1.
         22    1    1    2    0    0  0.46450328493E+03 -0.71983911083E+03  0.75058415875E+03  0.11389943927E+04  0.00000000000E+00 0. -1.
<mgrwt>
<rscale>  0 0.26487426E+04</rscale>
<asrwt>0</asrwt>
<pdfrwt beam="1">  1        2 0.25131613E+00 0.26487426E+04</pdfrwt>
<pdfrwt beam="2">  1       -2 0.16518570E+00 0.26487426E+04</pdfrwt>
<totfact> 0.21720652E+00</totfact>
</mgrwt>
</event>
<event>
 6    1  0.6155931E-004  0.2452419E+04  0.7818608E-02  0.8420135E-01
         -2   -1    0    0    0  501 -0.00000000000E+00  0.00000000000E+00  0.96170507434E+03  0.96170507434E+03  0.00000000000E+00 0. -1.
          2   -1    0    0  501    0  0.00000000000E+00 -0.00000000000E+00 -0.15634629614E+04  0.15634629614E+04  0.00000000000E+00 0.  1.
         23    2    1    2    0    0 -0.11423190512E+04  0.40997306467E+03 -0.13393313307E+03  0.12244640998E+04  0.91670711231E+02 0.  0.
         11    1    3    3    0    0 -0.60526045243E+03  0.20113576130E+03 -0.26885787899E+02  0.63837187856E+03  0.00000000000E+00 0.  1.
        -11    1    3    3    0    0 -0.53705859873E+03  0.20883730337E+03 -0.10704734517E+03  0.58609222129E+03  0.00000000000E+00 0. -1.
         22    1    1    2    0    0  0.11423190512E+04 -0.40997306467E+03 -0.46782475399E+03  0.13007039359E+04  0.00000000000E+00 0.  1.
<mgrwt>
<rscale>  0 0.24524194E+04</rscale>
<asrwt>0</asrwt>
<pdfrwt beam="1">  1        2 0.24053276E+00 0.24524194E+04</pdfrwt>
<pdfrwt beam="2">  1       -2 0.14795463E+00 0.24524194E+04</pdfrwt>
<totfact> 0.32529439E+00</totfact>
</mgrwt>
</event>
<event>
 6    1  0.4630212E-004  0.2096859E+04  0.7818608E-02  0.8562628E-01
          2   -1    0    0  501    0  0.00000000000E+00  0.00000000000E+00  0.24516633429E+04  0.24516633429E+04  0.00000000000E+00 0.  1.
         -2   -1    0    0    0  501 -0.00000000000E+00 -0.00000000000E+00 -0.44835049245E+03  0.44835049245E+03  0.00000000000E+00 0. -1.
         23    2    1    2    0    0  0.36946623254E+03 -0.47924661938E+03 -0.17716446071E+03  0.63712543252E+03  0.91427301469E+02 0.  0.
         11    1    3    3    0    0  0.10206280186E+03 -0.20435266236E+03 -0.61256839769E+02  0.23649360786E+03  0.00000000000E+00 0. -1.
        -11    1    3    3    0    0  0.26740343067E+03 -0.27489395702E+03 -0.11590762094E+03  0.40063182467E+03  0.00000000000E+00 0.  1.
         22    1    1    2    0    0 -0.36946623254E+03  0.47924661938E+03  0.21804773112E+04  0.22628884029E+04  0.00000000000E+00 0.  1.
<mgrwt>
<rscale>  0 0.20968590E+04</rscale>
<asrwt>0</asrwt>
<pdfrwt beam="1">  1        2 0.37717897E+00 0.20968590E+04</pdfrwt>
<pdfrwt beam="2">  1       -2 0.68977000E-01 0.20968590E+04</pdfrwt>
<totfact> 0.65709213E+00</totfact>
</mgrwt>
</event>
<event>
 6    1  0.4630212E-004  0.3104375E+04  0.7818608E-02  0.8214538E-01
         -2   -1    0    0    0  501 -0.00000000000E+00  0.00000000000E+00  0.17548281089E+04  0.17548281089E+04  0.00000000000E+00 0. -1.
          2   -1    0    0  501    0  0.00000000000E+00 -0.00000000000E+00 -0.13729471562E+04  0.13729471562E+04  0.00000000000E+00 0.  1.
         23    2    1    2    0    0  0.50449501061E+03 -0.67410903401E+03 -0.11210845421E+04  0.14050322535E+04  0.91361246034E+02 0.  0.
         13    1    3    3    0    0  0.33340926685E+03 -0.44411723312E+03 -0.80919503336E+03  0.98142674611E+03  0.00000000000E+00 0.  1.
        -13    1    3    3    0    0  0.17108574376E+03 -0.22999180089E+03 -0.31188950873E+03  0.42360550734E+03  0.00000000000E+00 0. -1.
         22    1    1    2    0    0 -0.50449501061E+03  0.67410903401E+03  0.15029654948E+04  0.17227430116E+04  0.00000000000E+00 0. -1.
<mgrwt>
<rscale>  0 0.31043751E+04</rscale>
<asrwt>0</asrwt>
<pdfrwt beam="1">  1        2 0.21122264E+00 0.31043751E+04</pdfrwt>
<pdfrwt beam="2">  1       -2 0.26997356E+00 0.31043751E+04</pdfrwt>
<totfact> 0.61714062E-01</totfact>
</mgrwt>
</event>
<event>
 6    1  0.4630212E-004  0.5586530E+03  0.7818608E-02  0.9995107E-01
          2   -1    0    0  501    0  0.00000000000E+00  0.00000000000E+00  0.21559812175E+03  0.21559812175E+03  0.00000000000E+00 0.  1.
         -2   -1    0    0    0  501 -0.00000000000E+00 -0.00000000000E+00 -0.36189230024E+03  0.36189230024E+03  0.00000000000E+00 0. -1.
         23    2    1    2    0    0  0.25040785549E+03  0.21305967390E+02 -0.18192087560E+03  0.32366508858E+03  0.92227144847E+02 0.  0.
         13    1    3    3    0    0  0.18388539611E+03  0.19239025346E+02 -0.17854359651E+03  0.25702489151E+03  0.00000000000E+00 0. -1.
        -13    1    3    3    0    0  0.66522459381E+02  0.20669420438E+01 -0.33772790893E+01  0.66640197071E+02  0.00000000000E+00 0.  1.
         22    1    1    2    0    0 -0.25040785549E+03 -0.21305967390E+02  0.35626697108E+02  0.25382533341E+03  0.00000000000E+00 0.  1.
<mgrwt>
<rscale>  0 0.55865302E+03</rscale>
<asrwt>0</asrwt>
<pdfrwt beam="1">  1        2 0.33168942E-01 0.55865302E+03</pdfrwt>
<pdfrwt beam="2">  1       -2 0.55675739E-01 0.55865302E+03</pdfrwt>
<totfact> 0.48572225E+02</totfact>
</mgrwt>
</event>
<event>
 6    1  0.4630212E-004  0.1992216E+04  0.7818608E-02  0.8610269E-01
         -2   -1    0    0    0  501 -0.00000000000E+00  0.00000000000E+00  0.67978898630E+03  0.67978898630E+03  0.00000000000E+00 0. -1.
          2   -1    0    0  501    0  0.00000000000E+00 -0.00000000000E+00 -0.14596162493E+04  0.14596162493E+04  0.00000000000E+00 0.  1.
         23    2    1    2    0    0  0.99259304014E+03 -0.46027454383E+02 -0.34718834240E+03  0.10556451581E+04  0.80544924465E+02 0.  0.
         13    1    3    3    0    0  0.41238619962E+03  0.18615343137E+02 -0.15691693064E+03  0.44162408421E+03  0.00000000000E+00 0. -1.
        -13    1    3    3    0    0  0.58020684052E+03 -0.64642797521E+02 -0.19027141176E+03  0.61402107390E+03  0.00000000000E+00 0.  1.
         22    1    1    2    0    0 -0.99259304014E+03  0.46027454383E+02 -0.43263892056E+03  0.10837600774E+04  0.00000000000E+00 0.  1.
<mgrwt>
<rscale>  0 0.19922159E+04</rscale>
<asrwt>0</asrwt>
<pdfrwt beam="1">  1        2 0.22455634E+00 0.19922159E+04</pdfrwt>
<pdfrwt beam="2">  1       -2 0.10458292E+00 0.19922159E+04</pdfrwt>
<totfact> 0.92329591E+00</totfact>
</mgrwt>
</event>
<event>
 6    1  0.4630212E-004  0.2038069E+04  0.7818608E-02  0.8589026E-01
         -1   -1    0    0    0  501 -0.00000000000E+00  0.00000000000E+00  0.68854478967E+03  0.68854478967E+03  0.00000000000E+00 0. -1.
          1   -1    0    0  501    0  0.00000000000E+00 -0.00000000000E+00 -0.15081542233E+04  0.15081542233E+04  0.00000000000E+00 0.  1.
         23    2    1    2    0    0 -0.71877079974E+03  0.71304632976E+03 -0.51372601778E+03  0.11390453858E+04  0.91888185400E+02 0.  0.
         11    1    3    3    0    0 -0.41004011088E+03  0.42380397110E+03 -0.34774776510E+03  0.68459565188E+03  0.00000000000E+00 0. -1.
        -11    1    3    3    0    0 -0.30873068887E+03  0.28924235867E+03 -0.16597825268E+03  0.45444973392E+03  0.00000000000E+00 0.  1.
         22    1    1    2    0    0  0.71877079974E+03 -0.71304632976E+03 -0.30588341582E+03  0.10576536272E+04  0.00000000000E+00 0. -1.
<mgrwt>
<rscale>  0 0.20380694E+04</rscale>
<asrwt>0</asrwt>
<pdfrwt beam="1">  1        1 0.23202373E+00 0.20380694E+04</pdfrwt>
<pdfrwt beam="2">  1       -1 0.10592997E+00 0.20380694E+04</pdfrwt>
<totfact> 0.49790380E+00</totfact>
</mgrwt>
</event>
<event>
 6    1  0.4630212E-004  0.2946396E+04  0.7818608E-02  0.8259206E-01
         -2   -1    0    0    0  501 -0.00000000000E+00  0.00000000000E+00  0.78295187884E+03  0.78295187884E+03  0.00000000000E+00 0. -1.
          2   -1    0    0  501    0  0.00000000000E+00 -0.00000000000E+00 -0.27719604518E+04  0.27719604518E+04  0.00000000000E+00 0.  1.
         23    2    1    2    0    0  0.82603814376E+03 -0.56249417755E+03 -0.22990967369E+04  0.25085407981E+04  0.90511960221E+02 0.  0.
         11    1    3    3    0    0  0.57788886936E+03 -0.34391668510E+03 -0.15127157733E+04  0.16554586199E+04  0.00000000000E+00 0. -1.
        -11    1    3    3    0    0  0.24814927440E+03 -0.21857749246E+03 -0.78638096367E+03  0.85308217811E+03  0.00000000000E+00 0.  1.
         22    1    1    2    0    0 -0.82603814376E+03  0.56249417755E+03  0.31008816400E+03  0.10463715326E+04  0.00000000000E+00 0. -1.
<mgrwt>
<rscale>  0 0.29463955E+04</rscale>
<asrwt>0</asrwt>
<pdfrwt beam="1">  1        2 0.42645545E+00 0.29463955E+04</pdfrwt>
<pdfrwt beam="2">  1       -2 0.12045414E+00 0.29463955E+04</pdfrwt>
<totfact> 0.10870119E+00</totfact>
</mgrwt>
</event>
<event>
 6    1  0.4630212E-004  0.1497988E+04  0.7818608E-02  0.8885792E-01
         -2   -1    0    0    0  501 -0.00000000000E+00  0.00000000000E+00  0.73601503176E+03  0.73601503176E+03  0.00000000000E+00 0. -1.
          2   -1    0    0  501    0  0.00000000000E+00 -0.00000000000E+00 -0.76220171464E+03  0.76220171464E+03  0.00000000000E+00 0.  1.
         23    2    1    2    0    0  0.13348125157E+03  0.16955530749E+03 -0.72764079954E+03  0.76432021106E+03  0.90321675436E+02 0.  0.
         11    1    3    3    0    0  0.92208287225E+02  0.16348130035E+03 -0.52802486968E+03  0.56039161914E+03  0.00000000000E+00 0.  1.
        -11    1    3    3    0    0  0.41272964350E+02  0.60740071420E+01 -0.19961592986E+03  0.20392859192E+03  0.00000000000E+00 0. -1.
         22    1    1    2    0    0 -0.13348125157E+03 -0.16955530749E+03  0.70145411666E+03  0.73389653535E+03  0.00000000000E+00 0. -1.
<mgrwt>
<rscale>  0 0.14979879E+04</rscale>
<asrwt>0</asrwt>
<pdfrwt beam="1">  1        2 0.11726180E+00 0.14979879E+04</pdfrwt>
<pdfrwt beam="2">  1       -2 0.11323308E+00 0.14979879E+04</pdfrwt>
<totfact> 0.21728979E+01</totfact>
</mgrwt>
</event>
<event>
 6    1  0.4630212E-004  0.1677401E+04  0.7818608E-02  0.8774359E-01
         -2   -1    0    0    0  501 -0.00000000000E+00  0.00000000000E+00  0.42084590381E+03  0.42084590381E+03  0.00000000000E+00 0. -1.
          2   -1    0    0  501    0  0.00000000000E+00 -0.00000000000E+00 -0.16714400291E+04  0.16714400291E+04  0.00000000000E+00 0.  1.
         23    2    1    2    0    0 -0.53186439182E+03 -0.63998471835E+03 -0.73053771649E+03  0.11110016523E+04  0.90438626516E+02 0.  0.
         13    1    3    3    0    0 -0.37719039496E+03 -0.48553344158E+03 -0.49192528160E+03  0.78740447016E+03  0.00000000000E+00 0.  1.
        -13    1    3    3    0    0 -0.15467399686E+03 -0.15445127677E+03 -0.23861243489E+03  0.32359718213E+03  0.00000000000E+00 0. -1.
         22    1    1    2    0    0  0.53186439182E+03  0.63998471835E+03 -0.52005640876E+03  0.98128428057E+03  0.00000000000E+00 0.  1.
<mgrwt>
<rscale>  0 0.16774012E+04</rscale>
<asrwt>0</asrwt>
<pdfrwt beam="1">  1        2 0.25714462E+00 0.16774012E+04</pdfrwt>
<pdfrwt beam="2">  1       -2 0.64745524E-01 0.16774012E+04</pdfrwt>
<totfact> 0.21347116E+01</totfact>
</mgrwt>
</event>
<event>
 6    1  0.4630212E-004  0.2583986E+04  0.7818608E-02  0.8373661E-01
         -2   -1    0    0    0  501 -0.00000000000E+00  0.00000000000E+00  0.10446521451E+04  0.10446521451E+04  0.00000000000E+00 0. -1.
          2   -1    0    0  501    0  0.00000000000E+00 -0.00000000000E+00 -0.15978959662E+04  0.15978959662E+04  0.00000000000E+00 0.  1.
         23    2    1    2    0    0 -0.53541557119E+03  0.78019651317E+03  0.62138605976E+03  0.11341941111E+04  0.69994381543E+02 0.  0.
         13    1    3    3    0    0 -0.35900208697E+02  0.67842731288E+02  0.31119220453E+02  0.82824314393E+02  0.00000000000E+00 0. -1.
        -13    1    3    3    0    0 -0.49951536249E+03  0.71235378188E+03  0.59026683931E+03  0.10513697967E+04  0.00000000000E+00 0.  1.
         22    1    1    2    0    0  0.53541557119E+03 -0.78019651317E+03 -0.11746298808E+04  0.15083540002E+04  0.00000000000E+00 0.  1.
<mgrwt>
<rscale>  0 0.25839856E+04</rscale>
<asrwt>0</asrwt>
<pdfrwt beam="1">  1        2 0.24583015E+00 0.25839856E+04</pdfrwt>
<pdfrwt beam="2">  1       -2 0.16071571E+00 0.25839856E+04</pdfrwt>
<totfact> 0.24650632E+00</totfact>
</mgrwt>
</event>
<event>
 6    1  0.4630212E-004  0.1355142E+04  0.7818608E-02  0.8986945E-01
          2   -1    0    0  501    0  0.00000000000E+00  0.00000000000E+00  0.11742056742E+04  0.11742056742E+04  0.00000000000E+00 0.  1.
         -2   -1    0    0    0  501 -0.00000000000E+00 -0.00000000000E+00 -0.39098994418E+03  0.39098994418E+03  0.00000000000E+00 0. -1.
         23    2    1    2    0    0 -0.56969056410E+02  0.56583306416E+03  0.81140006459E+03  0.99580393724E+03  0.99211323558E+02 0.  0.
         11    1    3    3    0    0 -0.78257359453E+02  0.44352019835E+03  0.67398205531E+03  0.81060853162E+03  0.00000000000E+00 0. -1.
        -11    1    3    3    0    0  0.21288303043E+02  0.12231286581E+03  0.13741800928E+03  0.18519540563E+03  0.00000000000E+00 0.  1.
         22    1    1    2    0    0  0.56969056410E+02 -0.56583306416E+03 -0.28184334538E+02  0.56939168118E+03  0.00000000000E+00 0. -1.
<mgrwt>
<rscale>  0 0.13551422E+04</rscale>
<asrwt>0</asrwt>
<pdfrwt beam="1">  1        2 0.18064703E+00 0.13551422E+04</pdfrwt>
<pdfrwt beam="2">  1       -2 0.60152299E-01 0.13551422E+04</pdfrwt>
<totfact> 0.49373456E+01</totfact>
</mgrwt>
</event>
<event>
 6    1  0.4630212E-004  0.4555488E+04  0.7818608E-02  0.7900994E-01
          2   -1    0    0  501    0  0.00000000000E+00  0.00000000000E+00  0.51653472176E+04  0.51653472176E+04  0.00000000000E+00 0.  1.
         -2   -1    0    0    0  501 -0.00000000000E+00 -0.00000000000E+00 -0.10044083172E+04  0.10044083172E+04  0.00000000000E+00 0. -1.
         23    2    1    2    0    0 -0.10617969728E+04 -0.19805602831E+04  0.15856692866E+04  0.27518548004E+04  0.91246423428E+02 0.  0.
         13    1    3    3    0    0 -0.87991508035E+03 -0.16400971183E+04  0.12703164624E+04  0.22534136373E+04  0.00000000000E+00 0.  1.
        -13    1    3    3    0    0 -0.18188189248E+03 -0.34046316476E+03  0.31535282423E+03  0.49844116315E+03  0.00000000000E+00 0. -1.
         22    1    1    2    0    0  0.10617969728E+04  0.19805602831E+04  0.25752696137E+04  0.34179007343E+04  0.00000000000E+00 0.  1.
<mgrwt>
<rscale>  0 0.45554880E+04</rscale>
<asrwt>0</asrwt>
<pdfrwt beam="1">  1        2 0.79466879E+00 0.45554880E+04</pdfrwt>
<pdfrwt beam="2">  1       -2 0.15452436E+00 0.45554880E+04</pdfrwt>
<totfact> 0.42363477E-03</totfact>
</mgrwt>
</event>
<event>
 6    1  0.4630212E-004  0.1784690E+04  0.7818608E-02  0.8714484E-01
         -2   -1    0    0    0  501 -0.00000000000E+00  0.00000000000E+00  0.39477776274E+03  0.39477776274E+03  0.00000000000E+00 0. -1.
          2   -1    0    0  501    0  0.00000000000E+00 -0.00000000000E+00 -0.20170320917E+04  0.20170320917E+04  0.00000000000E+00 0.  1.
         23    2    1    2    0    0 -0.20464742894E+03  0.74777969530E+03 -0.14039700953E+04  0.16063888157E+04  0.91093117061E+02 0.  0.
         11    1    3    3    0    0 -0.96526439767E+01  0.14673654375E+03 -0.30813064178E+03  0.34142243513E+03  0.00000000000E+00 0.  1.
        -11    1    3    3    0    0 -0.19499478496E+03  0.60104315155E+03 -0.10958394535E+04  0.12649663806E+04  0.00000000000E+00 0. -1.
         22    1    1    2    0    0  0.20464742894E+03 -0.74777969530E+03 -0.21828423364E+03  0.80542103867E+03  0.00000000000E+00 0. -1.
<mgrwt>
<rscale>  0 0.17846898E+04</rscale>
<asrwt>0</asrwt>
<pdfrwt beam="1">  1        2 0.31031262E+00 0.17846898E+04</pdfrwt>
<pdfrwt beam="2">  1       -2 0.60735042E-01 0.17846898E+04</pdfrwt>
<totfact> 0.15595471E+01</totfact>
</mgrwt>
</event>
<event>
 6    1  0.4630212E-004  0.1027035E+04  0.7818608E-02  0.9279380E-01
         -2   -1    0    0    0  501 -0.00000000000E+00  0.00000000000E+00  0.19444666951E+03  0.19444666951E+03  0.00000000000E+00 0. -1.
          2   -1    0    0  501    0  0.00000000000E+00 -0.00000000000E+00 -0.13561572354E+04  0.13561572354E+04  0.00000000000E+00 0.  1.
         23    2    1    2    0    0  0.10317157853E+02 -0.50728942393E+03 -0.51739533307E+03  0.73048737501E+03  0.92004733473E+02 0.  0.
         11    1    3    3    0    0 -0.25192480478E+01 -0.18019668419E+03 -0.24788541161E+03  0.30647082878E+03  0.00000000000E+00 0. -1.
        -11    1    3    3    0    0  0.12836405901E+02 -0.32709273975E+03 -0.26950992146E+03  0.42401654623E+03  0.00000000000E+00 0.  1.
         22    1    1    2    0    0 -0.10317157853E+02  0.50728942393E+03 -0.64431523281E+03  0.82011652990E+03  0.00000000000E+00 0. -1.
<mgrwt>
<rscale>  0 0.10270351E+04</rscale>
<asrwt>0</asrwt>
<pdfrwt beam="1">  1        2 0.20863957E+00 0.10270351E+04</pdfrwt>
<pdfrwt beam="2">  1       -2 0.29914872E-01 0.10270351E+04</pdfrwt>
<totfact> 0.15742408E+02</totfact>
</mgrwt>
</event>
<event>
 6    1  0.4630212E-004  0.2582374E+04  0.7818608E-02  0.8374213E-01
          2   -1    0    0  501    0  0.00000000000E+00  0.00000000000E+00  0.40833068797E+04  0.40833068797E+04  0.00000000000E+00 0.  1.
         -2   -1    0    0    0  501 -0.00000000000E+00 -0.00000000000E+00 -0.40828770177E+03  0.40828770177E+03  0.00000000000E+00 0. -1.
         23    2    1    2    0    0 -0.86935708850E+03 -0.98870065761E+02  0.34875664064E+04  0.35967786346E+04  0.90222337207E+02 0.  0.
         13    1    3    3    0    0 -0.45036732016E+03 -0.43741931757E+02  0.19845640572E+04  0.20354946762E+04  0.00000000000E+00 0. -1.
        -13    1    3    3    0    0 -0.41898976834E+03 -0.55128134003E+02  0.15030023492E+04  0.15612839584E+04  0.00000000000E+00 0.  1.
         22    1    1    2    0    0  0.86935708850E+03  0.98870065761E+02  0.18745277157E+03  0.89481594689E+03  0.00000000000E+00 0. -1.
<mgrwt>
<rscale>  0 0.25823741E+04</rscale>
<asrwt>0</asrwt>
<pdfrwt beam="1">  1        2 0.62820103E+00 0.25823741E+04</pdfrwt>
<pdfrwt beam="2">  1       -2 0.62813496E-01 0.25823741E+04</pdfrwt>
<totfact> 0.60997716E-01</totfact>
</mgrwt>
</event>
<event>
 6    1  0.4630212E-004  0.2954159E+04  0.7818608E-02  0.8256944E-01
         -2   -1    0    0    0  501 -0.00000000000E+00  0.00000000000E+00  0.19205635857E+04  0.19205635857E+04  0.00000000000E+00 0. -1.
          2   -1    0    0  501    0  0.00000000000E+00 -0.00000000000E+00 -0.11360016976E+04  0.11360016976E+04  0.00000000000E+00 0.  1.
         23    2    1    2    0    0  0.67163418877E+03  0.78744367580E+03 -0.69563699042E+03  0.12504233327E+04  0.92128509847E+02 0.  0.
         13    1    3    3    0    0  0.24838337604E+03  0.36100484068E+03 -0.28824719455E+03  0.52450475846E+03  0.00000000000E+00 0. -1.
        -13    1    3    3    0    0  0.42325081273E+03  0.42643883513E+03 -0.40738979587E+03  0.72591857419E+03  0.00000000000E+00 0.  1.
         22    1    1    2    0    0 -0.67163418877E+03 -0.78744367580E+03  0.14801988785E+04  0.18061419507E+04  0.00000000000E+00 0. -1.
<mgrwt>
<rscale>  0 0.29541588E+04</rscale>
<asrwt>0</asrwt>
<pdfrwt beam="1">  1        2 0.17476949E+00 0.29541588E+04</pdfrwt>
<pdfrwt beam="2">  1       -2 0.29547132E+00 0.29541588E+04</pdfrwt>
<totfact> 0.60266852E-01</totfact>
</mgrwt>
</event>
<event>
 6    1  0.4630212E-004  0.1013473E+04  0.7818608E-02  0.9293890E-01
         -2   -1    0    0    0  501 -0.00000000000E+00  0.00000000000E+00  0.11712779641E+03  0.11712779641E+03  0.00000000000E+00 0. -1.
          2   -1    0    0  501    0  0.00000000000E+00 -0.00000000000E+00 -0.21923220364E+04  0.21923220364E+04  0.00000000000E+00 0.  1.
         23    2    1    2    0    0  0.48998888090E+03 -0.10427659610E+03 -0.95351405514E+03  0.10809836554E+04  0.91509005240E+02 0.  0.
         13    1    3    3    0    0  0.23656716445E+03 -0.25189677950E+02 -0.36952831504E+03  0.43948801893E+03  0.00000000000E+00 0. -1.
        -13    1    3    3    0    0  0.25342171645E+03 -0.79086918147E+02 -0.58398574010E+03  0.64149563648E+03  0.00000000000E+00 0.  1.
         22    1    1    2    0    0 -0.48998888090E+03  0.10427659610E+03 -0.11216801848E+04  0.12284661774E+04  0.00000000000E+00 0. -1.
<mgrwt>
<rscale>  0 0.10134729E+04</rscale>
<asrwt>0</asrwt>
<pdfrwt beam="1">  1        2 0.33728029E+00 0.10134729E+04</pdfrwt>
<pdfrwt beam="2">  1       -2 0.18019662E-01 0.10134729E+04</pdfrwt>
<totfact> 0.13426469E+02</totfact>
</mgrwt>
</event>
<event>
 6    1  0.4630212E-004  0.3314840E+04  0.7818608E-02  0.8159130E-01
         -2   -1    0    0    0  501 -0.00000000000E+00  0.00000000000E+00  0.11425119498E+04  0.11425119498E+04  0.00000000000E+00 0. -1.
          2   -1    0    0  501    0  0.00000000000E+00 -0.00000000000E+00 -0.24043868527E+04  0.24043868527E+04  0.00000000000E+00 0.  1.
         23    2    1    2    0    0 -0.12441319430E+04 -0.10573548307E+04 -0.33457839145E+03  0.16692027809E+04  0.91824257392E+02 0.  0.
         11    1    3    3    0    0 -0.28728456403E+03 -0.21937093064E+03 -0.40450359205E+02  0.36372002626E+03  0.00000000000E+00 0.  1.
        -11    1    3    3    0    0 -0.95684737894E+03 -0.83798390005E+03 -0.29412803224E+03  0.13054827546E+04  0.00000000000E+00 0. -1.
         22    1    1    2    0    0  0.12441319430E+04  0.10573548307E+04 -0.92729651139E+03  0.18776960216E+04  0.00000000000E+00 0.  1.
<mgrwt>
<rscale>  0 0.33148398E+04</rscale>
<asrwt>0</asrwt>
<pdfrwt beam="1">  1        2 0.36990566E+00 0.33148398E+04</pdfrwt>
<pdfrwt beam="2">  1       -2 0.17577107E+00 0.33148398E+04</pdfrwt>
<totfact> 0.63974843E-01</totfact>
</mgrwt>
</event>
<event>
 6    1  0.4630212E-004  0.6380620E+03  0.7818608E-02  0.9829441E-01
          4   -1    0    0  501    0  0.00000000000E+00  0.00000000000E+00  0.33374614706E+03  0.33374614706E+03  0.00000000000E+00 0.  1.
         -4   -1    0    0    0  501 -0.00000000000E+00 -0.00000000000E+00 -0.30496464981E+03  0.30496464981E+03  0.00000000000E+00 0. -1.
         23    2    1    2    0    0  0.68823560595E+02  0.93637701958E+01 -0.28971340833E+03  0.31273017234E+03  0.95089111066E+02 0.  0.
         13    1    3    3    0    0  0.73722746987E+01 -0.38900669689E+02 -0.94522857629E+02  0.10248015979E+03  0.00000000000E+00 0.  1.
        -13    1    3    3    0    0  0.61451285897E+02  0.48264439885E+02 -0.19519055070E+03  0.21025001255E+03  0.00000000000E+00 0. -1.
         22    1    1    2    0    0 -0.68823560595E+02 -0.93637701958E+01  0.31849490558E+03  0.32598062453E+03  0.00000000000E+00 0.  1.
<mgrwt>
<rscale>  0 0.63806199E+03</rscale>
<asrwt>0</asrwt>
<pdfrwt beam="1">  1        4 0.51345561E-01 0.63806199E+03</pdfrwt>
<pdfrwt beam="2">  1       -4 0.46917638E-01 0.63806199E+03</pdfrwt>
<totfact> 0.31770907E+01</totfact>
</mgrwt>
</event>
<event>
 6    1  0.5682308E-004  0.3362519E+04  0.7818608E-02  0.8147167E-01
          2   -1    0    0  501    0  0.00000000000E+00  0.00000000000E+00  0.27700845671E+04  0.27700845671E+04  0.00000000000E+00 0.  1.
         -2   -1    0    0    0  501 -0.00000000000E+00 -0.00000000000E+00 -0.10204141307E+04  0.10204141307E+04  0.00000000000E+00 0. -1.
         23    2    1    2    0    0 -0.12403900463E+04  0.84387633955E+03  0.17278602831E+04  0.22901086065E+04  0.91659850252E+02 0.  0.
         13    1    3    3    0    0 -0.90536673150E+03  0.56884503824E+03  0.12073960454E+04  0.16127860386E+04  0.00000000000E+00 0. -1.
        -13    1    3    3    0    0 -0.33502331482E+03  0.27503130131E+03  0.52046423773E+03  0.67732256786E+03  0.00000000000E+00 0.  1.
         22    1    1    2    0    0  0.12403900463E+04 -0.84387633955E+03  0.21810153269E+02  0.15003900914E+04  0.00000000000E+00 0. -1.
<mgrwt>
<rscale>  0 0.33625190E+04</rscale>
<asrwt>0</asrwt>
<pdfrwt beam="1">  1        2 0.42616685E+00 0.33625190E+04</pdfrwt>
<pdfrwt beam="2">  1       -2 0.15698679E+00 0.33625190E+04</pdfrwt>
<totfact> 0.53110914E-01</totfact>
</mgrwt>
</event>
<event>
 6    1  0.4630212E-004  0.8575348E+03  0.7818608E-02  0.9480279E-01
         -1   -1    0    0    0  501 -0.00000000000E+00  0.00000000000E+00  0.38091288010E+03  0.38091288010E+03  0.00000000000E+00 0. -1.
          1   -1    0    0  501    0  0.00000000000E+00 -0.00000000000E+00 -0.48263388947E+03  0.48263388947E+03  0.00000000000E+00 0.  1.
         23    2    1    2    0    0  0.23459618249E+03  0.34840345880E+03  0.75077214454E+01  0.42955223668E+03  0.89657231784E+02 0.  0.
         13    1    3    3    0    0  0.22156953129E+03  0.32514343665E+03 -0.16316270009E+02  0.39379884746E+03  0.00000000000E+00 0.  1.
        -13    1    3    3    0    0  0.13026651202E+02  0.23260022149E+02  0.23823991454E+02  0.35753389220E+02  0.00000000000E+00 0. -1.
         22    1    1    2    0    0 -0.23459618249E+03 -0.34840345880E+03 -0.10922873082E+03  0.43399453289E+03  0.00000000000E+00 0.  1.
<mgrwt>
<rscale>  0 0.85753476E+03</rscale>
<asrwt>0</asrwt>
<pdfrwt beam="1">  1        1 0.74251367E-01 0.85753476E+03</pdfrwt>
<pdfrwt beam="2">  1       -1 0.58601982E-01 0.85753476E+03</pdfrwt>
<totfact> 0.13868614E+02</totfact>
</mgrwt>
</event>
<event>
 6    1  0.4630212E-004  0.2413549E+04  0.7818608E-02  0.8434448E-01
         -2   -1    0    0    0  501 -0.00000000000E+00  0.00000000000E+00  0.20530405473E+04  0.20530405473E+04  0.00000000000E+00 0. -1.
          2   -1    0    0  501    0  0.00000000000E+00 -0.00000000000E+00 -0.70934029120E+03  0.70934029120E+03  0.00000000000E+00 0.  1.
         23    2    1    2    0    0  0.51814108874E+03  0.26381575378E+03 -0.53531596894E+03  0.79546169583E+03  0.90150890993E+02 0.  0.
         11    1    3    3    0    0  0.33662987236E+03  0.12702976642E+03 -0.35358202677E+03  0.50445662070E+03  0.00000000000E+00 0. -1.
        -11    1    3    3    0    0  0.18151121638E+03  0.13678598736E+03 -0.18173394218E+03  0.29100507513E+03  0.00000000000E+00 0.  1.
         22    1    1    2    0    0 -0.51814108874E+03 -0.26381575378E+03  0.18790162251E+04  0.19669191427E+04  0.00000000000E+00 0. -1.
<mgrwt>
<rscale>  0 0.24135487E+04</rscale>
<asrwt>0</asrwt>
<pdfrwt beam="1">  1        2 0.10912928E+00 0.24135487E+04</pdfrwt>
<pdfrwt beam="2">  1       -2 0.31585239E+00 0.24135487E+04</pdfrwt>
<totfact> 0.91950093E-01</totfact>
</mgrwt>
</event>
<event>
 6    1  0.4630212E-004  0.2290668E+04  0.7818608E-02  0.8481610E-01
         -2   -1    0    0    0  501 -0.00000000000E+00  0.00000000000E+00  0.88333747618E+03  0.88333747618E+03  0.00000000000E+00 0. -1.
          2   -1    0    0  501    0  0.00000000000E+00 -0.00000000000E+00 -0.14850379529E+04  0.14850379529E+04  0.00000000000E+00 0.  1.
         23    2    1    2    0    0  0.63849712920E+03 -0.38816669968E+03  0.59361593106E+03  0.95871827733E+03  0.91700005098E+02 0.  0.
         11    1    3    3    0    0  0.34462263687E+03 -0.25300091499E+03  0.30450835201E+03  0.52488052095E+03  0.00000000000E+00 0.  1.
        -11    1    3    3    0    0  0.29387449233E+03 -0.13516578469E+03  0.28910757906E+03  0.43383775638E+03  0.00000000000E+00 0. -1.
         22    1    1    2    0    0 -0.63849712920E+03  0.38816669968E+03 -0.11953164078E+04  0.14096571518E+04  0.00000000000E+00 0.  1.
<mgrwt>
<rscale>  0 0.22906677E+04</rscale>
<asrwt>0</asrwt>
<pdfrwt beam="1">  1        2 0.22846737E+00 0.22906677E+04</pdfrwt>
<pdfrwt beam="2">  1       -2 0.13589808E+00 0.22906677E+04</pdfrwt>
<totfact> 0.45559418E+00</totfact>
</mgrwt>
</event>
<event>
 6    1  0.4630212E-004  0.6351963E+04  0.7818608E-02  0.7648231E-01
          2   -1    0    0  501    0  0.00000000000E+00  0.00000000000E+00  0.36807335539E+04  0.36807335539E+04  0.00000000000E+00 0.  1.
         -2   -1    0    0    0  501 -0.00000000000E+00 -0.00000000000E+00 -0.27404481620E+04  0.27404481620E+04  0.00000000000E+00 0. -1.
         23    2    1    2    0    0  0.93493507431E+03  0.11293603836E+04  0.33174864806E+04  0.36282185073E+04  0.93244403870E+02 0.  0.
         13    1    3    3    0    0  0.81907582722E+03  0.94337662600E+03  0.27832044173E+04  0.30507493338E+04  0.00000000000E+00 0.  1.
        -13    1    3    3    0    0  0.11585924709E+03  0.18598375756E+03  0.53428206330E+03  0.57746917353E+03  0.00000000000E+00 0. -1.
         22    1    1    2    0    0 -0.93493507431E+03 -0.11293603836E+04 -0.23772010886E+04  0.27929632086E+04  0.00000000000E+00 0. -1.
<mgrwt>
<rscale>  0 0.63519633E+04</rscale>
<asrwt>0</asrwt>
<pdfrwt beam="1">  1        2 0.56626670E+00 0.63519633E+04</pdfrwt>
<pdfrwt beam="2">  1       -2 0.42160741E+00 0.63519633E+04</pdfrwt>
<totfact> 0.21130996E-03</totfact>
</mgrwt>
</event>
<event>
 6    1  0.4630212E-004  0.1643675E+04  0.7818608E-02  0.8794157E-01
         -2   -1    0    0    0  501 -0.00000000000E+00  0.00000000000E+00  0.47294743087E+03  0.47294743087E+03  0.00000000000E+00 0. -1.
          2   -1    0    0  501    0  0.00000000000E+00 -0.00000000000E+00 -0.14281021645E+04  0.14281021645E+04  0.00000000000E+00 0.  1.
         23    2    1    2    0    0 -0.44542577460E+03  0.65258867292E+03 -0.73026358436E+03  0.10795557575E+04  0.88767303572E+02 0.  0.
         11    1    3    3    0    0 -0.10020356464E+03  0.10409187381E+03 -0.16769585190E+03  0.22135440204E+03  0.00000000000E+00 0.  1.
        -11    1    3    3    0    0 -0.34522220996E+03  0.54849679911E+03 -0.56256773246E+03  0.85820135544E+03  0.00000000000E+00 0. -1.
         22    1    1    2    0    0  0.44542577460E+03 -0.65258867292E+03 -0.22489114932E+03  0.82149383792E+03  0.00000000000E+00 0. -1.
<mgrwt>
<rscale>  0 0.16436755E+04</rscale>
<asrwt>0</asrwt>
<pdfrwt beam="1">  1        2 0.21970802E+00 0.16436755E+04</pdfrwt>
<pdfrwt beam="2">  1       -2 0.72761145E-01 0.16436755E+04</pdfrwt>
<totfact> 0.22756683E+01</totfact>
</mgrwt>
</event>
<event>
 6    1  0.4630212E-004  0.3466209E+04  0.7818608E-02  0.8121845E-01
          2   -1    0    0  501    0  0.00000000000E+00  0.00000000000E+00  0.13742747161E+04  0.13742747161E+04  0.00000000000E+00 0.  1.
         -2   -1    0    0    0  501 -0.00000000000E+00 -0.00000000000E+00 -0.21856259949E+04  0.21856259949E+04  0.00000000000E+00 0. -1.
         23    2    1    2    0    0 -0.50868679867E+03  0.35220503444E+03  0.12553165997E+04  0.14026045410E+04  0.93107933727E+02 0.  0.
         11    1    3    3    0    0 -0.58017684362E+02  0.79833077966E+01  0.11362470149E+03  0.12782940855E+03  0.00000000000E+00 0. -1.
        -11    1    3    3    0    0 -0.45066911430E+03  0.34422172665E+03  0.11416918982E+04  0.12747751324E+04  0.00000000000E+00 0.  1.
         22    1    1    2    0    0  0.50868679867E+03 -0.35220503444E+03 -0.20666678785E+04  0.21572961701E+04  0.00000000000E+00 0. -1.
<mgrwt>
<rscale>  0 0.34662086E+04</rscale>
<asrwt>0</asrwt>
<pdfrwt beam="1">  1        2 0.21142688E+00 0.34662086E+04</pdfrwt>
<pdfrwt beam="2">  1       -2 0.33625015E+00 0.34662086E+04</pdfrwt>
<totfact> 0.23404159E-01</totfact>
</mgrwt>
</event>
<event>
 6    1  0.4630212E-004  0.3456675E+04  0.7818608E-02  0.8124135E-01
          2   -1    0    0  501    0  0.00000000000E+00  0.00000000000E+00  0.13059401089E+04  0.13059401089E+04  0.00000000000E+00 0.  1.
         -2   -1    0    0    0  501 -0.00000000000E+00 -0.00000000000E+00 -0.22873567821E+04  0.22873567821E+04  0.00000000000E+00 0. -1.
         23    2    1    2    0    0 -0.13042273359E+04 -0.85175563850E+03  0.28426940108E+03  0.15861950376E+04  0.93321989013E+02 0.  0.
         13    1    3    3    0    0 -0.34326418158E+03 -0.24379722617E+03  0.11569684770E+03  0.43663846190E+03  0.00000000000E+00 0. -1.
        -13    1    3    3    0    0 -0.96096315428E+03 -0.60795841233E+03  0.16857255338E+03  0.11495565757E+04  0.00000000000E+00 0.  1.
         22    1    1    2    0    0  0.13042273359E+04  0.85175563850E+03 -0.12656860742E+04  0.20071018534E+04  0.00000000000E+00 0. -1.
<mgrwt>
<rscale>  0 0.34566753E+04</rscale>
<asrwt>0</asrwt>
<pdfrwt beam="1">  1        2 0.20091386E+00 0.34566753E+04</pdfrwt>
<pdfrwt beam="2">  1       -2 0.35190104E+00 0.34566753E+04</pdfrwt>
<totfact> 0.20457983E-01</totfact>
</mgrwt>
</event>
<event>
 6    1  0.4630212E-004  0.5061600E+04  0.7818608E-02  0.7819075E-01
         -2   -1    0    0    0  501 -0.00000000000E+00  0.00000000000E+00  0.25265146490E+04  0.25265146490E+04  0.00000000000E+00 0. -1.
          2   -1    0    0  501    0  0.00000000000E+00 -0.00000000000E+00 -0.25350924890E+04  0.25350924890E+04  0.00000000000E+00 0.  1.
         23    2    1    2    0    0  0.27891543151E+02 -0.25205190105E+04  0.21313834580E+03  0.25312016196E+04  0.88088955728E+02 0.  0.
         11    1    3    3    0    0 -0.14551044957E+02 -0.11050058746E+04  0.58763227443E+02  0.11066629264E+04  0.00000000000E+00 0. -1.
        -11    1    3    3    0    0  0.42442588108E+02 -0.14155131359E+04  0.15437511836E+03  0.14245386932E+04  0.00000000000E+00 0.  1.
         22    1    1    2    0    0 -0.27891543151E+02  0.25205190105E+04 -0.22171618571E+03  0.25304055184E+04  0.00000000000E+00 0.  1.
<mgrwt>
<rscale>  0 0.50615999E+04</rscale>
<asrwt>0</asrwt>
<pdfrwt beam="1">  1        2 0.39001423E+00 0.50615999E+04</pdfrwt>
<pdfrwt beam="2">  1       -2 0.38869456E+00 0.50615999E+04</pdfrwt>
<totfact> 0.21174039E-02</totfact>
</mgrwt>
</event>
<event>
 6    1  0.4630212E-004  0.1670209E+04  0.7818608E-02  0.8778540E-01
          2   -1    0    0  501    0  0.00000000000E+00  0.00000000000E+00  0.74957476552E+03  0.74957476552E+03  0.00000000000E+00 0.  1.
         -2   -1    0    0    0  501 -0.00000000000E+00 -0.00000000000E+00 -0.93039394850E+03  0.93039394850E+03  0.00000000000E+00 0. -1.
         23    2    1    2    0    0  0.10168337790E+03 -0.59681373437E+03 -0.66553963036E+03  0.90441726184E+03  0.92203259485E+02 0.  0.
         11    1    3    3    0    0  0.31239871786E+02 -0.34426287155E+03 -0.32343311984E+03  0.47339395574E+03  0.00000000000E+00 0.  1.
        -11    1    3    3    0    0  0.70443506112E+02 -0.25255086282E+03 -0.34210651052E+03  0.43102330610E+03  0.00000000000E+00 0. -1.
         22    1    1    2    0    0 -0.10168337790E+03  0.59681373437E+03  0.48472044738E+03  0.77555145218E+03  0.00000000000E+00 0.  1.
<mgrwt>
<rscale>  0 0.16702094E+04</rscale>
<asrwt>0</asrwt>
<pdfrwt beam="1">  1        2 0.11531920E+00 0.16702094E+04</pdfrwt>
<pdfrwt beam="2">  1       -2 0.14313753E+00 0.16702094E+04</pdfrwt>
<totfact> 0.12127890E+01</totfact>
</mgrwt>
</event>
<event>
 6    1  0.4630212E-004  0.3036627E+04  0.7818608E-02  0.8233348E-01
          2   -1    0    0  501    0  0.00000000000E+00  0.00000000000E+00  0.18493253041E+04  0.18493253041E+04  0.00000000000E+00 0.  1.
         -2   -1    0    0    0  501 -0.00000000000E+00 -0.00000000000E+00 -0.12465498373E+04  0.12465498373E+04  0.00000000000E+00 0. -1.
         23    2    1    2    0    0 -0.85287572625E+03 -0.98685553553E+03 -0.48768936871E+03  0.13957591424E+04  0.94983213951E+02 0.  0.
         11    1    3    3    0    0 -0.37884934120E+03 -0.40582085117E+03 -0.16293834939E+03  0.57858991719E+03  0.00000000000E+00 0. -1.
        -11    1    3    3    0    0 -0.47402638505E+03 -0.58103468435E+03 -0.32475101933E+03  0.81716922525E+03  0.00000000000E+00 0.  1.
         22    1    1    2    0    0  0.85287572625E+03  0.98685553553E+03  0.10904648355E+04  0.17001159989E+04  0.00000000000E+00 0.  1.
<mgrwt>
<rscale>  0 0.30366272E+04</rscale>
<asrwt>0</asrwt>
<pdfrwt beam="1">  1        2 0.28451159E+00 0.30366272E+04</pdfrwt>
<pdfrwt beam="2">  1       -2 0.19177690E+00 0.30366272E+04</pdfrwt>
<totfact> 0.10428514E+00</totfact>
</mgrwt>
</event>
<event>
 6    1  0.4630212E-004  0.1079089E+04  0.7818608E-02  0.9225816E-01
         -2   -1    0    0    0  501 -0.00000000000E+00  0.00000000000E+00  0.12741574136E+03  0.12741574136E+03  0.00000000000E+00 0. -1.
          2   -1    0    0  501    0  0.00000000000E+00 -0.00000000000E+00 -0.22847128076E+04  0.22847128076E+04  0.00000000000E+00 0.  1.
         23    2    1    2    0    0 -0.16635005819E+03  0.41915277674E+03 -0.17325850421E+04  0.17926596672E+04  0.91740732408E+02 0.  0.
         13    1    3    3    0    0 -0.59259464114E+01  0.12142971973E+03 -0.42490057491E+03  0.44195111973E+03  0.00000000000E+00 0.  1.
        -13    1    3    3    0    0 -0.16042411178E+03  0.29772305701E+03 -0.13076844672E+04  0.13507085474E+04  0.00000000000E+00 0. -1.
         22    1    1    2    0    0  0.16635005819E+03 -0.41915277674E+03 -0.42471202415E+03  0.61946888184E+03  0.00000000000E+00 0. -1.
<mgrwt>
<rscale>  0 0.10790892E+04</rscale>
<asrwt>0</asrwt>
<pdfrwt beam="1">  1        2 0.35149425E+00 0.10790892E+04</pdfrwt>
<pdfrwt beam="2">  1       -2 0.19602423E-01 0.10790892E+04</pdfrwt>
<totfact> 0.10241117E+02</totfact>
</mgrwt>
</event>
<event>
 6    1  0.4630212E-004  0.2618292E+04  0.7818608E-02  0.8362014E-01
          2   -1    0    0  501    0  0.00000000000E+00  0.00000000000E+00  0.26181052704E+04  0.26181052704E+04  0.00000000000E+00 0.  1.
         -2   -1    0    0    0  501 -0.00000000000E+00 -0.00000000000E+00 -0.65461948937E+03  0.65461948937E+03  0.00000000000E+00 0. -1.
         23    2    1    2    0    0  0.12761785363E+04 -0.11232756265E+03  0.13102547160E+04  0.18346844397E+04  0.89724214241E+02 0.  0.
         11    1    3    3    0    0  0.72564890368E+03 -0.90013121518E+02  0.79832355935E+03  0.10825844996E+04  0.00000000000E+00 0. -1.
        -11    1    3    3    0    0  0.55052963263E+03 -0.22314441130E+02  0.51193115663E+03  0.75209994004E+03  0.00000000000E+00 0.  1.
         22    1    1    2    0    0 -0.12761785363E+04  0.11232756265E+03  0.65323106508E+03  0.14380403201E+04  0.00000000000E+00 0. -1.
<mgrwt>
<rscale>  0 0.26182916E+04</rscale>
<asrwt>0</asrwt>
<pdfrwt beam="1">  1        2 0.40278542E+00 0.26182916E+04</pdfrwt>
<pdfrwt beam="2">  1       -2 0.10071069E+00 0.26182916E+04</pdfrwt>
<totfact> 0.21297108E+00</totfact>
</mgrwt>
</event>
<event>
 6    1  0.4630212E-004  0.3358530E+04  0.7818608E-02  0.8148160E-01
         -2   -1    0    0    0  501 -0.00000000000E+00  0.00000000000E+00  0.13547128914E+04  0.13547128914E+04  0.00000000000E+00 0. -1.
          2   -1    0    0  501    0  0.00000000000E+00 -0.00000000000E+00 -0.20815710959E+04  0.20815710959E+04  0.00000000000E+00 0.  1.
         23    2    1    2    0    0  0.99126732570E+03 -0.30933092892E+03  0.98497099780E+03  0.14341212186E+04  0.90770417043E+02 0.  0.
         11    1    3    3    0    0  0.89041058030E+03 -0.27398747192E+03  0.91853622415E+03  0.13082847287E+04  0.00000000000E+00 0.  1.
        -11    1    3    3    0    0  0.10085674540E+03 -0.35343456996E+02  0.66434773644E+02  0.12583648992E+03  0.00000000000E+00 0. -1.
         22    1    1    2    0    0 -0.99126732570E+03  0.30933092892E+03 -0.17118292023E+04  0.20021627687E+04  0.00000000000E+00 0.  1.
<mgrwt>
<rscale>  0 0.33585302E+04</rscale>
<asrwt>0</asrwt>
<pdfrwt beam="1">  1        2 0.32024171E+00 0.33585302E+04</pdfrwt>
<pdfrwt beam="2">  1       -2 0.20841737E+00 0.33585302E+04</pdfrwt>
<totfact> 0.58635896E-01</totfact>
</mgrwt>
</event>
<event>
 6    1  0.4630212E-004  0.1504195E+04  0.7818608E-02  0.8881668E-01
         -2   -1    0    0    0  501 -0.00000000000E+00  0.00000000000E+00  0.52403554283E+03  0.52403554283E+03  0.00000000000E+00 0. -1.
          2   -1    0    0  501    0  0.00000000000E+00 -0.00000000000E+00 -0.10794133862E+04  0.10794133862E+04  0.00000000000E+00 0.  1.
         23    2    1    2    0    0  0.36882164065E+03 -0.27124410543E+03  0.35338544472E+03  0.58587658216E+03  0.93634019691E+02 0.  0.
         11    1    3    3    0    0  0.12026555434E+03 -0.70660507208E+02  0.58808661017E+02  0.15137757248E+03  0.00000000000E+00 0.  1.
        -11    1    3    3    0    0  0.24855608631E+03 -0.20058359823E+03  0.29457678370E+03  0.43449900968E+03  0.00000000000E+00 0. -1.
         22    1    1    2    0    0 -0.36882164065E+03  0.27124410543E+03 -0.90876328804E+03  0.10175723468E+04  0.00000000000E+00 0.  1.
<mgrwt>
<rscale>  0 0.15041954E+04</rscale>
<asrwt>0</asrwt>
<pdfrwt beam="1">  1        2 0.16606360E+00 0.15041954E+04</pdfrwt>
<pdfrwt beam="2">  1       -2 0.80620852E-01 0.15041954E+04</pdfrwt>
<totfact> 0.29444525E+01</totfact>
</mgrwt>
</event>
<event>
 6    1  0.4630212E-004  0.1794728E+04  0.7818608E-02  0.8709108E-01
         -2   -1    0    0    0  501 -0.00000000000E+00  0.00000000000E+00  0.31108128088E+03  0.31108128088E+03  0.00000000000E+00 0.  1.
          2   -1    0    0  501    0  0.00000000000E+00 -0.00000000000E+00 -0.25885903033E+04  0.25885903033E+04  0.00000000000E+00 0. -1.
         23    2    1    2    0    0  0.80163252806E+03  0.24062897210E+03 -0.16538915669E+04  0.18559207791E+04  0.92561390203E+02 0.  0.
         11    1    3    3    0    0  0.45413483574E+03  0.89592012418E+02 -0.88551634760E+03  0.99920187129E+03  0.00000000000E+00 0. -1.
        -11    1    3    3    0    0  0.34749769232E+03  0.15103695968E+03 -0.76837521927E+03  0.85671890778E+03  0.00000000000E+00 0.  1.
         22    1    1    2    0    0 -0.80163252806E+03 -0.24062897210E+03 -0.62361745550E+03  0.10437508051E+04  0.00000000000E+00 0.  1.
<mgrwt>
<rscale>  0 0.17947278E+04</rscale>
<asrwt>0</asrwt>
<pdfrwt beam="1">  1        2 0.39824469E+00 0.17947278E+04</pdfrwt>
<pdfrwt beam="2">  1       -2 0.47858655E-01 0.17947278E+04</pdfrwt>
<totfact> 0.12093742E+01</totfact>
</mgrwt>
</event>
<event>
 6    1  0.4844238E-004  0.2355195E+04  0.7818608E-02  0.8456471E-01
          2   -1    0    0  501    0  0.00000000000E+00  0.00000000000E+00  0.12548299338E+04  0.12548299338E+04  0.00000000000E+00 0.  1.
         -2   -1    0    0    0  501 -0.00000000000E+00 -0.00000000000E+00 -0.11051189854E+04  0.11051189854E+04  0.00000000000E+00 0. -1.
         23    2    1    2    0    0  0.10552208963E+04  0.28547812063E+03 -0.35841436054E+03  0.11544696673E+04  0.96697784524E+02 0.  0.
         11    1    3    3    0    0  0.25957638470E+03  0.92169324968E+02 -0.12888298374E+03  0.30411495763E+03  0.00000000000E+00 0. -1.
        -11    1    3    3    0    0  0.79564451156E+03  0.19330879566E+03 -0.22953137680E+03  0.85035470964E+03  0.00000000000E+00 0.  1.
         22    1    1    2    0    0 -0.10552208963E+04 -0.28547812063E+03  0.50812530900E+03  0.12054792520E+04  0.00000000000E+00 0.  1.
<mgrwt>
<rscale>  0 0.23551954E+04</rscale>
<asrwt>0</asrwt>
<pdfrwt beam="1">  1        2 0.19305076E+00 0.23551954E+04</pdfrwt>
<pdfrwt beam="2">  1       -2 0.17001831E+00 0.23551954E+04</pdfrwt>
<totfact> 0.33793392E+00</totfact>
</mgrwt>
</event>
<event>
 6    1  0.4630212E-004  0.2758519E+04  0.7818608E-02  0.8316264E-01
         -2   -1    0    0    0  501 -0.00000000000E+00  0.00000000000E+00  0.98039682853E+03  0.98039682853E+03  0.00000000000E+00 0. -1.
          2   -1    0    0  501    0  0.00000000000E+00 -0.00000000000E+00 -0.19403944556E+04  0.19403944556E+04  0.00000000000E+00 0.  1.
         23    2    1    2    0    0 -0.95905248843E+03 -0.13224222211E+03 -0.15183974329E+04  0.18031687969E+04  0.92829224645E+02 0.  0.
         11    1    3    3    0    0 -0.66322923345E+03 -0.12831378541E+03 -0.10962718391E+04  0.12876914960E+04  0.00000000000E+00 0. -1.
        -11    1    3    3    0    0 -0.29582325497E+03 -0.39284367021E+01 -0.42212559381E+03  0.51547730090E+03  0.00000000000E+00 0.  1.
         22    1    1    2    0    0  0.95905248843E+03  0.13224222211E+03  0.55839980583E+03  0.11176224873E+04  0.00000000000E+00 0. -1.
<mgrwt>
<rscale>  0 0.27585189E+04</rscale>
<asrwt>0</asrwt>
<pdfrwt beam="1">  1        2 0.29852222E+00 0.27585189E+04</pdfrwt>
<pdfrwt beam="2">  1       -2 0.15083028E+00 0.27585189E+04</pdfrwt>
<totfact> 0.18591516E+00</totfact>
</mgrwt>
</event>
<event>
 6    1  0.4630212E-004  0.1384687E+04  0.7818608E-02  0.8964978E-01
          2   -1    0    0  501    0  0.00000000000E+00  0.00000000000E+00  0.97801906526E+03  0.97801906526E+03  0.00000000000E+00 0. -1.
         -2   -1    0    0    0  501 -0.00000000000E+00 -0.00000000000E+00 -0.49011268106E+03  0.49011268106E+03  0.00000000000E+00 0.  1.
         23    2    1    2    0    0  0.50556868096E+03 -0.37251306681E+03 -0.56009208489E+02  0.63734305593E+03  0.93292354439E+02 0.  0.
         13    1    3    3    0    0  0.16812440631E+03 -0.15827702550E+03 -0.56155403435E+02  0.23763598661E+03  0.00000000000E+00 0.  1.
        -13    1    3    3    0    0  0.33744427465E+03 -0.21423604131E+03  0.14619494625E+00  0.39970706932E+03  0.00000000000E+00 0. -1.
         22    1    1    2    0    0 -0.50556868096E+03  0.37251306681E+03  0.54391559269E+03  0.83078869039E+03  0.00000000000E+00 0. -1.
<mgrwt>
<rscale>  0 0.13846870E+04</rscale>
<asrwt>0</asrwt>
<pdfrwt beam="1">  1        2 0.15046447E+00 0.13846870E+04</pdfrwt>
<pdfrwt beam="2">  1       -2 0.75401951E-01 0.13846870E+04</pdfrwt>
<totfact> 0.40028060E+01</totfact>
</mgrwt>
</event>
<event>
 6    1  0.4630212E-004  0.1581898E+04  0.7818608E-02  0.8831747E-01
          2   -1    0    0  501    0  0.00000000000E+00  0.00000000000E+00  0.93910183034E+03  0.93910183034E+03  0.00000000000E+00 0.  1.
         -2   -1    0    0    0  501 -0.00000000000E+00 -0.00000000000E+00 -0.66616884027E+03  0.66616884027E+03  0.00000000000E+00 0. -1.
         23    2    1    2    0    0 -0.36064565921E+02 -0.75732987797E+03  0.35599195846E+03  0.84254661225E+03  0.91133541248E+02 0.  0.
         13    1    3    3    0    0 -0.47976820086E+02 -0.25726261553E+03  0.95540205424E+02  0.27859246126E+03  0.00000000000E+00 0.  1.
        -13    1    3    3    0    0  0.11912254165E+02 -0.50006726244E+03  0.26045175304E+03  0.56395415099E+03  0.00000000000E+00 0. -1.
         22    1    1    2    0    0  0.36064565921E+02  0.75732987797E+03 -0.83058968383E+02  0.76272405836E+03  0.00000000000E+00 0.  1.
<mgrwt>
<rscale>  0 0.15818981E+04</rscale>
<asrwt>0</asrwt>
<pdfrwt beam="1">  1        2 0.14447720E+00 0.15818981E+04</pdfrwt>
<pdfrwt beam="2">  1       -2 0.10248751E+00 0.15818981E+04</pdfrwt>
<totfact> 0.20653230E+01</totfact>
</mgrwt>
</event>
<event>
 6    1  0.4630212E-004  0.2803173E+04  0.7818608E-02  0.8302284E-01
          1   -1    0    0  501    0  0.00000000000E+00  0.00000000000E+00  0.14799729132E+04  0.14799729132E+04  0.00000000000E+00 0. -1.
         -1   -1    0    0    0  501 -0.00000000000E+00 -0.00000000000E+00 -0.13273515653E+04  0.13273515653E+04  0.00000000000E+00 0.  1.
         23    2    1    2    0    0  0.57649894801E+03  0.92081499537E+03  0.96092288258E+03  0.14532186246E+04  0.90665824710E+02 0.  0.
         13    1    3    3    0    0  0.37501055342E+03  0.64391234453E+03  0.61123778850E+03  0.96377780463E+03  0.00000000000E+00 0. -1.
        -13    1    3    3    0    0  0.20148839459E+03  0.27690265085E+03  0.34968509408E+03  0.48944081993E+03  0.00000000000E+00 0.  1.
         22    1    1    2    0    0 -0.57649894801E+03 -0.92081499537E+03 -0.80830153464E+03  0.13541058539E+04  0.00000000000E+00 0.  1.
<mgrwt>
<rscale>  0 0.28031727E+04</rscale>
<asrwt>0</asrwt>
<pdfrwt beam="1">  1        1 0.22768814E+00 0.28031727E+04</pdfrwt>
<pdfrwt beam="2">  1       -1 0.20420793E+00 0.28031727E+04</pdfrwt>
<totfact> 0.82317002E-01</totfact>
</mgrwt>
</event>
<event>
 6    1  0.4630212E-004  0.1735623E+04  0.7818608E-02  0.8741304E-01
         -2   -1    0    0    0  501 -0.00000000000E+00  0.00000000000E+00  0.14341095403E+04  0.14341095403E+04  0.00000000000E+00 0. -1.
          2   -1    0    0  501    0  0.00000000000E+00 -0.00000000000E+00 -0.52513180279E+03  0.52513180279E+03  0.00000000000E+00 0.  1.
         23    2    1    2    0    0  0.30125709189E+02 -0.75296530139E+03  0.93632959228E+03  0.12051774019E+04  0.88742105619E+02 0.  0.
         13    1    3    3    0    0 -0.13101520096E+02 -0.38865713882E+03  0.42788858336E+03  0.57819949944E+03  0.00000000000E+00 0. -1.
        -13    1    3    3    0    0  0.43227229284E+02 -0.36430816257E+03  0.50844100892E+03  0.62697790250E+03  0.00000000000E+00 0.  1.
         22    1    1    2    0    0 -0.30125709189E+02  0.75296530139E+03 -0.27351854722E+02  0.75406394119E+03  0.00000000000E+00 0.  1.
<mgrwt>
<rscale>  0 0.17356227E+04</rscale>
<asrwt>0</asrwt>
<pdfrwt beam="1">  1        2 0.80789509E-01 0.17356227E+04</pdfrwt>
<pdfrwt beam="2">  1       -2 0.22063224E+00 0.17356227E+04</pdfrwt>
<totfact> 0.53992917E+00</totfact>
</mgrwt>
</event>
<event>
 6    1  0.4630212E-004  0.1707227E+04  0.7818608E-02  0.8757253E-01
         -2   -1    0    0    0  501 -0.00000000000E+00  0.00000000000E+00  0.50006246548E+03  0.50006246548E+03  0.00000000000E+00 0. -1.
          2   -1    0    0  501    0  0.00000000000E+00 -0.00000000000E+00 -0.14571297541E+04  0.14571297541E+04  0.00000000000E+00 0.  1.
         23    2    1    2    0    0 -0.65522899303E+03 -0.54303541639E+03 -0.49227501286E+03  0.98753023913E+03  0.93106327177E+02 0.  0.
         13    1    3    3    0    0 -0.32708356580E+03 -0.21807701345E+03 -0.20093244288E+03  0.44149189054E+03  0.00000000000E+00 0. -1.
        -13    1    3    3    0    0 -0.32814542723E+03 -0.32495840294E+03 -0.29134256998E+03  0.54603834859E+03  0.00000000000E+00 0.  1.
         22    1    1    2    0    0  0.65522899303E+03  0.54303541639E+03 -0.46479227581E+03  0.96966198049E+03  0.00000000000E+00 0. -1.
<mgrwt>
<rscale>  0 0.17072269E+04</rscale>
<asrwt>0</asrwt>
<pdfrwt beam="1">  1        2 0.22417381E+00 0.17072269E+04</pdfrwt>
<pdfrwt beam="2">  1       -2 0.76932688E-01 0.17072269E+04</pdfrwt>
<totfact> 0.19263272E+01</totfact>
</mgrwt>
</event>
<event>
 6    1  0.4630212E-004  0.4602734E+04  0.7818608E-02  0.7892894E-01
         -2   -1    0    0    0  501 -0.00000000000E+00  0.00000000000E+00  0.35382325815E+04  0.35382325815E+04  0.00000000000E+00 0. -1.
          2   -1    0    0  501    0  0.00000000000E+00 -0.00000000000E+00 -0.14968744875E+04  0.14968744875E+04  0.00000000000E+00 0.  1.
         23    2    1    2    0    0  0.10044078961E+04  0.20648830129E+04  0.86560376248E+03  0.24553831832E+04  0.84021568761E+02 0.  0.
         11    1    3    3    0    0  0.50647116438E+03  0.95124084036E+03  0.39055765825E+03  0.11462580256E+04  0.00000000000E+00 0. -1.
        -11    1    3    3    0    0  0.49793673173E+03  0.11136421725E+04  0.47504610423E+03  0.13091251577E+04  0.00000000000E+00 0.  1.
         22    1    1    2    0    0 -0.10044078961E+04 -0.20648830129E+04  0.11757543315E+04  0.25797238858E+04  0.00000000000E+00 0.  1.
<mgrwt>
<rscale>  0 0.46027340E+04</rscale>
<asrwt>0</asrwt>
<pdfrwt beam="1">  1        2 0.23028838E+00 0.46027340E+04</pdfrwt>
<pdfrwt beam="2">  1       -2 0.54434347E+00 0.46027340E+04</pdfrwt>
<totfact> 0.88077334E-03</totfact>
</mgrwt>
</event>
<event>
 6    1  0.4630212E-004  0.5320990E+04  0.7818608E-02  0.7780813E-01
          2   -1    0    0  501    0  0.00000000000E+00  0.00000000000E+00  0.29136694790E+04  0.29136694790E+04  0.00000000000E+00 0.  1.
         -2   -1    0    0    0  501 -0.00000000000E+00 -0.00000000000E+00 -0.24293192785E+04  0.24293192785E+04  0.00000000000E+00 0. -1.
         23    2    1    2    0    0  0.22732172112E+04 -0.16736965767E+03 -0.11339926816E+04  0.25475348095E+04  0.92006043263E+02 0.  0.
         11    1    3    3    0    0  0.85901403593E+03 -0.10154684104E+03 -0.40434002275E+03  0.95483387499E+03  0.00000000000E+00 0. -1.
        -11    1    3    3    0    0  0.14142031752E+04 -0.65822816636E+02 -0.72965265889E+03  0.15927009345E+04  0.00000000000E+00 0.  1.
         22    1    1    2    0    0 -0.22732172112E+04  0.16736965767E+03  0.16183428821E+04  0.27954539480E+04  0.00000000000E+00 0. -1.
<mgrwt>
<rscale>  0 0.53209899E+04</rscale>
<asrwt>0</asrwt>
<pdfrwt beam="1">  1        2 0.44825684E+00 0.53209899E+04</pdfrwt>
<pdfrwt beam="2">  1       -2 0.37374143E+00 0.53209899E+04</pdfrwt>
<totfact> 0.15364957E-02</totfact>
</mgrwt>
</event>
<event>
 6    1  0.4630212E-004  0.2786951E+04  0.7818608E-02  0.8307331E-01
         -2   -1    0    0    0  501 -0.00000000000E+00  0.00000000000E+00  0.12055819944E+04  0.12055819944E+04  0.00000000000E+00 0. -1.
          2   -1    0    0  501    0  0.00000000000E+00 -0.00000000000E+00 -0.16106526891E+04  0.16106526891E+04  0.00000000000E+00 0.  1.
         23    2    1    2    0    0 -0.93668743256E+03  0.62852869983E+03  0.62092262383E+03  0.12914088041E+04  0.98793328717E+02 0.  0.
         13    1    3    3    0    0 -0.32263060720E+02  0.45871506869E+02  0.38408016397E+02  0.67972611786E+02  0.00000000000E+00 0. -1.
        -13    1    3    3    0    0 -0.90442437184E+03  0.58265719296E+03  0.58251460743E+03  0.12234361924E+04  0.00000000000E+00 0.  1.
         22    1    1    2    0    0  0.93668743256E+03 -0.62852869983E+03 -0.10259933186E+04  0.15248258794E+04  0.00000000000E+00 0.  1.
<mgrwt>
<rscale>  0 0.27869509E+04</rscale>
<asrwt>0</asrwt>
<pdfrwt beam="1">  1        2 0.24779272E+00 0.27869509E+04</pdfrwt>
<pdfrwt beam="2">  1       -2 0.18547415E+00 0.27869509E+04</pdfrwt>
<totfact> 0.15937901E+00</totfact>
</mgrwt>
</event>
<event>
 6    1  0.4630212E-004  0.1728159E+04  0.7818608E-02  0.8745465E-01
          2   -1    0    0  501    0  0.00000000000E+00  0.00000000000E+00  0.19440556559E+04  0.19440556559E+04  0.00000000000E+00 0.  1.
         -2   -1    0    0    0  501 -0.00000000000E+00 -0.00000000000E+00 -0.38405960206E+03  0.38405960206E+03  0.00000000000E+00 0. -1.
         23    2    1    2    0    0  0.50880308564E+02 -0.57380845814E+03  0.16452378235E+04  0.17457827827E+04  0.95420521904E+02 0.  0.
         11    1    3    3    0    0  0.68223764119E+02 -0.23756533583E+03  0.68503630359E+03  0.72826266417E+03  0.00000000000E+00 0.  1.
        -11    1    3    3    0    0 -0.17343455555E+02 -0.33624312231E+03  0.96020151994E+03  0.10175201185E+04  0.00000000000E+00 0. -1.
         22    1    1    2    0    0 -0.50880308564E+02  0.57380845814E+03 -0.85241769684E+02  0.58233247525E+03  0.00000000000E+00 0. -1.
<mgrwt>
<rscale>  0 0.17281588E+04</rscale>
<asrwt>0</asrwt>
<pdfrwt beam="1">  1        2 0.29908548E+00 0.17281588E+04</pdfrwt>
<pdfrwt beam="2">  1       -2 0.59086093E-01 0.17281588E+04</pdfrwt>
<totfact> 0.18231592E+01</totfact>
</mgrwt>
</event>
<event>
 6    1  0.4630212E-004  0.6201367E+04  0.7818608E-02  0.7665924E-01
         -2   -1    0    0    0  501 -0.00000000000E+00  0.00000000000E+00  0.51752023523E+04  0.51752023523E+04  0.00000000000E+00 0. -1.
          2   -1    0    0  501    0  0.00000000000E+00 -0.00000000000E+00 -0.18577509834E+04  0.18577509834E+04  0.00000000000E+00 0.  1.
         23    2    1    2    0    0  0.62968413890E+03 -0.14440445822E+03  0.50976060576E+04  0.51391990015E+04  0.91782871054E+02 0.  0.
         13    1    3    3    0    0  0.19877845328E+03 -0.61050106712E+02  0.19709829165E+04  0.19819217054E+04  0.00000000000E+00 0. -1.
        -13    1    3    3    0    0  0.43090568563E+03 -0.83354351506E+02  0.31266231411E+04  0.31572772961E+04  0.00000000000E+00 0.  1.
         22    1    1    2    0    0 -0.62968413890E+03  0.14440445822E+03 -0.17801546888E+04  0.18937543342E+04  0.00000000000E+00 0.  1.
<mgrwt>
<rscale>  0 0.62013667E+04</rscale>
<asrwt>0</asrwt>
<pdfrwt beam="1">  1        2 0.28580785E+00 0.62013667E+04</pdfrwt>
<pdfrwt beam="2">  1       -2 0.79618497E+00 0.62013667E+04</pdfrwt>
<totfact> 0.44174454E-04</totfact>
</mgrwt>
</event>
<event>
 6    1  0.4630212E-004  0.5829224E+04  0.7818608E-02  0.7711944E-01
         -2   -1    0    0    0  501 -0.00000000000E+00  0.00000000000E+00  0.24732363141E+04  0.24732363141E+04  0.00000000000E+00 0. -1.
          2   -1    0    0  501    0  0.00000000000E+00 -0.00000000000E+00 -0.34347562453E+04  0.34347562453E+04  0.00000000000E+00 0.  1.
         23    2    1    2    0    0  0.18325180810E+04  0.14381217248E+03 -0.27724120440E+04  0.33276563987E+04  0.90686867392E+02 0.  0.
         13    1    3    3    0    0  0.15915779207E+04  0.14967355180E+03 -0.23756989599E+04  0.28634713195E+04  0.00000000000E+00 0.  1.
        -13    1    3    3    0    0  0.24094016034E+03 -0.58613793289E+01 -0.39671308414E+03  0.46418507920E+03  0.00000000000E+00 0. -1.
         22    1    1    2    0    0 -0.18325180810E+04 -0.14381217248E+03  0.18108921128E+04  0.25803361607E+04  0.00000000000E+00 0. -1.
<mgrwt>
<rscale>  0 0.58292243E+04</rscale>
<asrwt>0</asrwt>
<pdfrwt beam="1">  1        2 0.52842404E+00 0.58292243E+04</pdfrwt>
<pdfrwt beam="2">  1       -2 0.38049789E+00 0.58292243E+04</pdfrwt>
<totfact> 0.61096378E-03</totfact>
</mgrwt>
</event>
<event>
 6    1  0.4630212E-004  0.2177378E+04  0.7818608E-02  0.8527903E-01
          2   -1    0    0  501    0  0.00000000000E+00  0.00000000000E+00  0.16603789230E+04  0.16603789230E+04  0.00000000000E+00 0.  1.
         -2   -1    0    0    0  501 -0.00000000000E+00 -0.00000000000E+00 -0.71383951107E+03  0.71383951107E+03  0.00000000000E+00 0. -1.
         23    2    1    2    0    0  0.33781059739E+03  0.10081121502E+04  0.71941895096E+03  0.12870248861E+04  0.91996322248E+02 0.  0.
         13    1    3    3    0    0  0.28425426433E+03  0.84585550401E+03  0.56112359216E+03  0.10541023224E+04  0.00000000000E+00 0.  1.
        -13    1    3    3    0    0  0.53556333058E+02  0.16225664616E+03  0.15829535881E+03  0.23292256364E+03  0.00000000000E+00 0. -1.
         22    1    1    2    0    0 -0.33781059739E+03 -0.10081121502E+04  0.22712046094E+03  0.10871935480E+04  0.00000000000E+00 0. -1.
<mgrwt>
<rscale>  0 0.21773783E+04</rscale>
<asrwt>0</asrwt>
<pdfrwt beam="1">  1        2 0.25544291E+00 0.21773783E+04</pdfrwt>
<pdfrwt beam="2">  1       -2 0.10982146E+00 0.21773783E+04</pdfrwt>
<totfact> 0.62331748E+00</totfact>
</mgrwt>
</event>
<event>
 6    1  0.4630212E-004  0.2545008E+04  0.7818608E-02  0.8387125E-01
          2   -1    0    0  501    0  0.00000000000E+00  0.00000000000E+00  0.17345661243E+04  0.17345661243E+04  0.00000000000E+00 0.  1.
         -2   -1    0    0    0  501 -0.00000000000E+00 -0.00000000000E+00 -0.93352795209E+03  0.93352795209E+03  0.00000000000E+00 0. -1.
         23    2    1    2    0    0 -0.97116897682E+03  0.32923303512E+03 -0.38628904619E+03  0.10992379655E+04  0.86840685892E+02 0.  0.
         11    1    3    3    0    0 -0.90180183158E+03  0.32536935929E+03 -0.37176646169E+03  0.10282616717E+04  0.00000000000E+00 0.  1.
        -11    1    3    3    0    0 -0.69367145239E+02  0.38636758284E+01 -0.14522584499E+02  0.70976293859E+02  0.00000000000E+00 0. -1.
         22    1    1    2    0    0  0.97116897682E+03 -0.32923303512E+03  0.11873272184E+04  0.15688561108E+04  0.00000000000E+00 0.  1.
<mgrwt>
<rscale>  0 0.25450076E+04</rscale>
<asrwt>0</asrwt>
<pdfrwt beam="1">  1        2 0.26685633E+00 0.25450076E+04</pdfrwt>
<pdfrwt beam="2">  1       -2 0.14361968E+00 0.25450076E+04</pdfrwt>
<totfact> 0.28016157E+00</totfact>
</mgrwt>
</event>
<event>
 6    1  0.4630212E-004  0.1596761E+04  0.7818608E-02  0.8822540E-01
          2   -1    0    0  501    0  0.00000000000E+00  0.00000000000E+00  0.28248172306E+04  0.28248172306E+04  0.00000000000E+00 0.  1.
         -2   -1    0    0    0  501 -0.00000000000E+00 -0.00000000000E+00 -0.22564688837E+03  0.22564688837E+03  0.00000000000E+00 0. -1.
         23    2    1    2    0    0  0.21571188896E+03 -0.55026869206E+03  0.23212976972E+04  0.23973634687E+04  0.97986476177E+02 0.  0.
         13    1    3    3    0    0  0.19480524889E+03 -0.45627203072E+03  0.17934930539E+04  0.18608467388E+04  0.00000000000E+00 0. -1.
        -13    1    3    3    0    0  0.20906640078E+02 -0.93996661344E+02  0.52780464332E+03  0.53651672989E+03  0.00000000000E+00 0.  1.
         22    1    1    2    0    0 -0.21571188896E+03  0.55026869206E+03  0.27787264500E+03  0.65310065024E+03  0.00000000000E+00 0. -1.
<mgrwt>
<rscale>  0 0.15967607E+04</rscale>
<asrwt>0</asrwt>
<pdfrwt beam="1">  1        2 0.43458724E+00 0.15967607E+04</pdfrwt>
<pdfrwt beam="2">  1       -2 0.34714908E-01 0.15967607E+04</pdfrwt>
<totfact> 0.16745745E+01</totfact>
</mgrwt>
</event>
<event>
 6    1  0.4836598E-004  0.3757691E+04  0.7818608E-02  0.8055296E-01
          2   -1    0    0  501    0  0.00000000000E+00  0.00000000000E+00  0.27312044911E+04  0.27312044911E+04  0.00000000000E+00 0.  1.
         -2   -1    0    0    0  501 -0.00000000000E+00 -0.00000000000E+00 -0.12924924562E+04  0.12924924562E+04  0.00000000000E+00 0. -1.
         23    2    1    2    0    0 -0.77987364564E+02 -0.13537209617E+04  0.21106950290E+04  0.25103550773E+04  0.90590492989E+02 0.  0.
         13    1    3    3    0    0 -0.44985395770E+02 -0.64064081411E+03  0.91763020647E+03  0.11200399700E+04  0.00000000000E+00 0. -1.
        -13    1    3    3    0    0 -0.33001968794E+02 -0.71308014764E+03  0.11930648225E+04  0.13903151073E+04  0.00000000000E+00 0.  1.
         22    1    1    2    0    0  0.77987364564E+02  0.13537209617E+04 -0.67198299401E+03  0.15133418700E+04  0.00000000000E+00 0. -1.
<mgrwt>
<rscale>  0 0.37576914E+04</rscale>
<asrwt>0</asrwt>
<pdfrwt beam="1">  1        2 0.42018530E+00 0.37576914E+04</pdfrwt>
<pdfrwt beam="2">  1       -2 0.19884499E+00 0.37576914E+04</pdfrwt>
<totfact> 0.27695956E-01</totfact>
</mgrwt>
</event>
<event>
 6    1  0.4630212E-004  0.2158751E+04  0.7818608E-02  0.8535796E-01
          2   -1    0    0  501    0  0.00000000000E+00  0.00000000000E+00  0.16578630338E+04  0.16578630338E+04  0.00000000000E+00 0.  1.
         -2   -1    0    0    0  501 -0.00000000000E+00 -0.00000000000E+00 -0.70274266983E+03  0.70274266983E+03  0.00000000000E+00 0. -1.
         23    2    1    2    0    0  0.99348673529E+03 -0.29186579537E+03  0.80426419821E+03  0.13142027610E+04  0.89924750447E+02 0.  0.
         13    1    3    3    0    0  0.33188121668E+03 -0.98332899671E+02  0.21619671306E+03  0.40811214131E+03  0.00000000000E+00 0. -1.
        -13    1    3    3    0    0  0.66160551861E+03 -0.19353289570E+03  0.58806748515E+03  0.90609061967E+03  0.00000000000E+00 0.  1.
         22    1    1    2    0    0 -0.99348673529E+03  0.29186579537E+03  0.15085616580E+03  0.10464029427E+04  0.00000000000E+00 0.  1.
<mgrwt>
<rscale>  0 0.21587507E+04</rscale>
<asrwt>0</asrwt>
<pdfrwt beam="1">  1        2 0.25505585E+00 0.21587507E+04</pdfrwt>
<pdfrwt beam="2">  1       -2 0.10811426E+00 0.21587507E+04</pdfrwt>
<totfact> 0.65048486E+00</totfact>
</mgrwt>
</event>
<event>
 6    1  0.4630212E-004  0.1947264E+04  0.7818608E-02  0.8631681E-01
          2   -1    0    0  501    0  0.00000000000E+00  0.00000000000E+00  0.28406665767E+04  0.28406665767E+04  0.00000000000E+00 0.  1.
         -2   -1    0    0    0  501 -0.00000000000E+00 -0.00000000000E+00 -0.33371022062E+03  0.33371022062E+03  0.00000000000E+00 0. -1.
         23    2    1    2    0    0  0.11578222354E+03  0.92158341844E+03  0.79180126206E+03  0.12238695512E+04  0.90476071014E+02 0.  0.
         11    1    3    3    0    0  0.11147679484E+03  0.70280371044E+03  0.56400318980E+03  0.90799764829E+03  0.00000000000E+00 0. -1.
        -11    1    3    3    0    0  0.43054286971E+01  0.21877970800E+03  0.22779807226E+03  0.31587190295E+03  0.00000000000E+00 0.  1.
         22    1    1    2    0    0 -0.11578222354E+03 -0.92158341844E+03  0.17151550940E+04  0.19505072460E+04  0.00000000000E+00 0.  1.
<mgrwt>
<rscale>  0 0.19472642E+04</rscale>
<asrwt>0</asrwt>
<pdfrwt beam="1">  1        2 0.43702561E+00 0.19472642E+04</pdfrwt>
<pdfrwt beam="2">  1       -2 0.51340036E-01 0.19472642E+04</pdfrwt>
<totfact> 0.73204942E+00</totfact>
</mgrwt>
</event>
<event>
 6    1  0.4630212E-004  0.1403746E+04  0.7818608E-02  0.8951111E-01
          2   -1    0    0  501    0  0.00000000000E+00  0.00000000000E+00  0.16220357403E+04  0.16220357403E+04  0.00000000000E+00 0.  1.
         -2   -1    0    0    0  501 -0.00000000000E+00 -0.00000000000E+00 -0.30370832410E+03  0.30370832410E+03  0.00000000000E+00 0. -1.
         23    2    1    2    0    0  0.20860785784E+03  0.24449396679E+03 -0.18900742074E+03  0.38452608863E+03  0.94031747820E+02 0.  0.
         11    1    3    3    0    0  0.55903583584E+02  0.13882975420E+02 -0.42093240119E+02  0.71342753856E+02  0.00000000000E+00 0. -1.
        -11    1    3    3    0    0  0.15270427425E+03  0.23061099137E+03 -0.14691418062E+03  0.31318333478E+03  0.00000000000E+00 0.  1.
         22    1    1    2    0    0 -0.20860785784E+03 -0.24449396679E+03  0.15073348369E+04  0.15412179757E+04  0.00000000000E+00 0.  1.
<mgrwt>
<rscale>  0 0.14037461E+04</rscale>
<asrwt>0</asrwt>
<pdfrwt beam="1">  1        2 0.24954395E+00 0.14037461E+04</pdfrwt>
<pdfrwt beam="2">  1       -2 0.46724359E-01 0.14037461E+04</pdfrwt>
<totfact> 0.45791463E+01</totfact>
</mgrwt>
</event>
<event>
 6    1  0.4630212E-004  0.3401811E+04  0.7818608E-02  0.8137462E-01
         -2   -1    0    0    0  501 -0.00000000000E+00  0.00000000000E+00  0.15270283942E+04  0.15270283942E+04  0.00000000000E+00 0. -1.
          2   -1    0    0  501    0  0.00000000000E+00 -0.00000000000E+00 -0.18945818753E+04  0.18945818753E+04  0.00000000000E+00 0.  1.
         23    2    1    2    0    0  0.36494406910E+03 -0.10521014203E+04 -0.14753901656E+04  0.18508131179E+04  0.92905782991E+02 0.  0.
         13    1    3    3    0    0  0.26781491822E+03 -0.87273790123E+03 -0.12286515194E+04  0.15306798590E+04  0.00000000000E+00 0. -1.
        -13    1    3    3    0    0  0.97129150884E+02 -0.17936351908E+03 -0.24673864620E+03  0.32013325891E+03  0.00000000000E+00 0.  1.
         22    1    1    2    0    0 -0.36494406910E+03  0.10521014203E+04  0.11078366844E+04  0.15707971516E+04  0.00000000000E+00 0. -1.
<mgrwt>
<rscale>  0 0.34018115E+04</rscale>
<asrwt>0</asrwt>
<pdfrwt beam="1">  1        2 0.29147413E+00 0.34018115E+04</pdfrwt>
<pdfrwt beam="2">  1       -2 0.23492745E+00 0.34018115E+04</pdfrwt>
<totfact> 0.50449486E-01</totfact>
</mgrwt>
</event>
<event>
 6    1  0.4630212E-004  0.3944259E+04  0.7818608E-02  0.8015887E-01
          2   -1    0    0  501    0  0.00000000000E+00  0.00000000000E+00  0.33280692738E+04  0.33280692738E+04  0.00000000000E+00 0.  1.
         -2   -1    0    0    0  501 -0.00000000000E+00 -0.00000000000E+00 -0.11686339330E+04  0.11686339330E+04  0.00000000000E+00 0. -1.
         23    2    1    2    0    0  0.53244379213E+03  0.43263235128E+03  0.31869213265E+04  0.32612297777E+04  0.92113944821E+02 0.  0.
         13    1    3    3    0    0  0.20947963521E+03  0.15912213062E+03  0.14351067151E+04  0.14590177702E+04  0.00000000000E+00 0.  1.
        -13    1    3    3    0    0  0.32296415692E+03  0.27351022066E+03  0.17518146114E+04  0.18022120075E+04  0.00000000000E+00 0. -1.
         22    1    1    2    0    0 -0.53244379213E+03 -0.43263235128E+03 -0.10274859857E+04  0.12354734291E+04  0.00000000000E+00 0. -1.
<mgrwt>
<rscale>  0 0.39442590E+04</rscale>
<asrwt>0</asrwt>
<pdfrwt beam="1">  1        2 0.51201065E+00 0.39442590E+04</pdfrwt>
<pdfrwt beam="2">  1       -2 0.17978984E+00 0.39442590E+04</pdfrwt>
<totfact> 0.15357706E-01</totfact>
</mgrwt>
</event>
<event>
 6    1  0.4630212E-004  0.3665472E+04  0.7818608E-02  0.8075657E-01
         -2   -1    0    0    0  501 -0.00000000000E+00  0.00000000000E+00  0.17121179682E+04  0.17121179682E+04  0.00000000000E+00 0. -1.
          2   -1    0    0  501    0  0.00000000000E+00 -0.00000000000E+00 -0.19618514455E+04  0.19618514455E+04  0.00000000000E+00 0.  1.
         23    2    1    2    0    0  0.12152319302E+04 -0.13579804857E+04 -0.30912013160E+03  0.18506684461E+04  0.92297335480E+02 0.  0.
         13    1    3    3    0    0  0.81747991507E+03 -0.91673419311E+03 -0.25204731251E+03  0.12538751294E+04  0.00000000000E+00 0.  1.
        -13    1    3    3    0    0  0.39775201513E+03 -0.44124629254E+03 -0.57072819095E+02  0.59679331674E+03  0.00000000000E+00 0. -1.
         22    1    1    2    0    0 -0.12152319302E+04  0.13579804857E+04  0.59386654340E+02  0.18233009676E+04  0.00000000000E+00 0.  1.
<mgrwt>
<rscale>  0 0.36654719E+04</rscale>
<asrwt>0</asrwt>
<pdfrwt beam="1">  1        2 0.30182330E+00 0.36654719E+04</pdfrwt>
<pdfrwt beam="2">  1       -2 0.26340276E+00 0.36654719E+04</pdfrwt>
<totfact> 0.30249567E-01</totfact>
</mgrwt>
</event>
<event>
 6    1  0.4630212E-004  0.1774947E+04  0.7818608E-02  0.8719737E-01
          2   -1    0    0  501    0  0.00000000000E+00  0.00000000000E+00  0.28637371214E+04  0.28637371214E+04  0.00000000000E+00 0.  1.
         -2   -1    0    0    0  501 -0.00000000000E+00 -0.00000000000E+00 -0.27502853191E+03  0.27502853191E+03  0.00000000000E+00 0. -1.
         23    2    1    2    0    0  0.84125002996E+02 -0.56223299261E+03  0.98376623938E+02  0.58437017635E+03  0.92884814478E+02 0.  0.
         13    1    3    3    0    0  0.17884114855E+02 -0.39968354648E+03  0.78601127458E+02  0.40773142647E+03  0.00000000000E+00 0. -1.
        -13    1    3    3    0    0  0.66240888141E+02 -0.16254944613E+03  0.19775496480E+02  0.17663874988E+03  0.00000000000E+00 0.  1.
         22    1    1    2    0    0 -0.84125002996E+02  0.56223299261E+03  0.24903319655E+04  0.25543954770E+04  0.00000000000E+00 0.  1.
<mgrwt>
<rscale>  0 0.17749472E+04</rscale>
<asrwt>0</asrwt>
<pdfrwt beam="1">  1        2 0.44057492E+00 0.17749472E+04</pdfrwt>
<pdfrwt beam="2">  1       -2 0.42312084E-01 0.17749472E+04</pdfrwt>
<totfact> 0.10624757E+01</totfact>
</mgrwt>
</event>
<event>
 6    1  0.4630212E-004  0.2627532E+04  0.7818608E-02  0.8358909E-01
          2   -1    0    0  501    0  0.00000000000E+00  0.00000000000E+00  0.25834862257E+04  0.25834862257E+04  0.00000000000E+00 0.  1.
         -2   -1    0    0    0  501 -0.00000000000E+00 -0.00000000000E+00 -0.66808240107E+03  0.66808240107E+03  0.00000000000E+00 0. -1.
         23    2    1    2    0    0  0.39472261121E+02 -0.10567303367E+04  0.19206878381E+04  0.21940881377E+04  0.82121376909E+02 0.  0.
         13    1    3    3    0    0 -0.92222875762E+01 -0.26413454302E+03  0.41959330012E+03  0.49589378390E+03  0.00000000000E+00 0. -1.
        -13    1    3    3    0    0  0.48694548697E+02 -0.79259579372E+03  0.15010945380E+04  0.16981943538E+04  0.00000000000E+00 0.  1.
         22    1    1    2    0    0 -0.39472261121E+02  0.10567303367E+04 -0.52840134727E+01  0.10574804891E+04  0.00000000000E+00 0. -1.
<mgrwt>
<rscale>  0 0.26275324E+04</rscale>
<asrwt>0</asrwt>
<pdfrwt beam="1">  1        2 0.39745941E+00 0.26275324E+04</pdfrwt>
<pdfrwt beam="2">  1       -2 0.10278191E+00 0.26275324E+04</pdfrwt>
<totfact> 0.21243780E+00</totfact>
</mgrwt>
</event>
<event>
 6    1  0.4630212E-004  0.2873432E+04  0.7818608E-02  0.8280826E-01
          2   -1    0    0  501    0  0.00000000000E+00  0.00000000000E+00  0.32753716362E+04  0.32753716362E+04  0.00000000000E+00 0.  1.
         -2   -1    0    0    0  501 -0.00000000000E+00 -0.00000000000E+00 -0.63020422210E+03  0.63020422210E+03  0.00000000000E+00 0. -1.
         23    2    1    2    0    0 -0.13900558392E+03 -0.13417493214E+04  0.65516897080E+03  0.15014736146E+04  0.74584455877E+02 0.  0.
         13    1    3    3    0    0 -0.62824904508E+02 -0.40116800352E+03  0.16746924471E+03  0.43923647799E+03  0.00000000000E+00 0. -1.
        -13    1    3    3    0    0 -0.76180679414E+02 -0.94058131791E+03  0.48769972609E+03  0.10622371366E+04  0.00000000000E+00 0.  1.
         22    1    1    2    0    0  0.13900558392E+03  0.13417493214E+04  0.19899984433E+04  0.24041022437E+04  0.00000000000E+00 0. -1.
<mgrwt>
<rscale>  0 0.28734321E+04</rscale>
<asrwt>0</asrwt>
<pdfrwt beam="1">  1        2 0.50390332E+00 0.28734321E+04</pdfrwt>
<pdfrwt beam="2">  1       -2 0.96954497E-01 0.28734321E+04</pdfrwt>
<totfact> 0.88853783E-01</totfact>
</mgrwt>
</event>
<event>
 6    1  0.4630212E-004  0.9368210E+03  0.7818608E-02  0.9380689E-01
          2   -1    0    0  501    0  0.00000000000E+00  0.00000000000E+00  0.12426251155E+04  0.12426251155E+04  0.00000000000E+00 0. -1.
         -2   -1    0    0    0  501 -0.00000000000E+00 -0.00000000000E+00 -0.17656844859E+03  0.17656844859E+03  0.00000000000E+00 0.  1.
         23    2    1    2    0    0  0.20321118413E+03 -0.40756439930E+03  0.40539002402E+03  0.61676977458E+03  0.93061046187E+02 0.  0.
         13    1    3    3    0    0  0.11543118642E+03 -0.18186212043E+03  0.13702836857E+03  0.25529387662E+03  0.00000000000E+00 0.  1.
        -13    1    3    3    0    0  0.87779997708E+02 -0.22570227887E+03  0.26836165545E+03  0.36147589796E+03  0.00000000000E+00 0. -1.
         22    1    1    2    0    0 -0.20321118413E+03  0.40756439930E+03  0.66066664286E+03  0.80242378948E+03  0.00000000000E+00 0.  1.
<mgrwt>
<rscale>  0 0.93682098E+03</rscale>
<asrwt>0</asrwt>
<pdfrwt beam="1">  1        2 0.19117309E+00 0.93682098E+03</pdfrwt>
<pdfrwt beam="2">  1       -2 0.27164378E-01 0.93682098E+03</pdfrwt>
<totfact> 0.22016950E+02</totfact>
</mgrwt>
</event>
<event>
 6    1  0.4630212E-004  0.2286793E+04  0.7818608E-02  0.8483147E-01
          2   -1    0    0  501    0  0.00000000000E+00  0.00000000000E+00  0.24679095590E+04  0.24679095590E+04  0.00000000000E+00 0.  1.
         -2   -1    0    0    0  501 -0.00000000000E+00 -0.00000000000E+00 -0.52974200108E+03  0.52974200108E+03  0.00000000000E+00 0. -1.
         23    2    1    2    0    0 -0.33164126061E+03  0.80915062524E+03  0.67003520323E+01  0.87744491272E+03  0.71791504176E+02 0.  0.
         13    1    3    3    0    0 -0.32515620090E+02  0.11424409183E+03 -0.19842841489E+02  0.12042722460E+03  0.00000000000E+00 0.  1.
        -13    1    3    3    0    0 -0.29912564052E+03  0.69490653342E+03  0.26543193521E+02  0.75701768812E+03  0.00000000000E+00 0. -1.
         22    1    1    2    0    0  0.33164126061E+03 -0.80915062524E+03  0.19314672059E+04  0.21202066473E+04  0.00000000000E+00 0.  1.
<mgrwt>
<rscale>  0 0.22867928E+04</rscale>
<asrwt>0</asrwt>
<pdfrwt beam="1">  1        2 0.37967839E+00 0.22867928E+04</pdfrwt>
<pdfrwt beam="2">  1       -2 0.81498771E-01 0.22867928E+04</pdfrwt>
<totfact> 0.43710968E+00</totfact>
</mgrwt>
</event>
<event>
 6    1  0.4630212E-004  0.3632002E+04  0.7818608E-02  0.8083200E-01
         -2   -1    0    0    0  501 -0.00000000000E+00  0.00000000000E+00  0.21007005683E+04  0.21007005683E+04  0.00000000000E+00 0. -1.
          2   -1    0    0  501    0  0.00000000000E+00 -0.00000000000E+00 -0.15698853252E+04  0.15698853252E+04  0.00000000000E+00 0.  1.
         23    2    1    2    0    0 -0.43724076048E+03 -0.20195922246E+03 -0.15028425448E+04  0.15806741708E+04  0.89599719525E+02 0.  0.
         13    1    3    3    0    0 -0.44137405045E+03 -0.20251170384E+03 -0.14866566251E+04  0.15639597065E+04  0.00000000000E+00 0. -1.
        -13    1    3    3    0    0  0.41332899712E+01  0.55248137219E+00 -0.16185919711E+02  0.16714464351E+02  0.00000000000E+00 0.  1.
         22    1    1    2    0    0  0.43724076048E+03  0.20195922246E+03  0.20336577879E+04  0.20899117226E+04  0.00000000000E+00 0. -1.
<mgrwt>
<rscale>  0 0.36320016E+04</rscale>
<asrwt>0</asrwt>
<pdfrwt beam="1">  1        2 0.24152082E+00 0.36320016E+04</pdfrwt>
<pdfrwt beam="2">  1       -2 0.32318470E+00 0.36320016E+04</pdfrwt>
<totfact> 0.21561474E-01</totfact>
</mgrwt>
</event>
<event>
 6    1  0.4630212E-004  0.5163926E+03  0.7818608E-02  0.1009587E+00
          2   -1    0    0  501    0  0.00000000000E+00  0.00000000000E+00  0.45752102922E+03  0.45752102922E+03  0.00000000000E+00 0.  1.
         -2   -1    0    0    0  501 -0.00000000000E+00 -0.00000000000E+00 -0.14570987759E+03  0.14570987759E+03  0.00000000000E+00 0. -1.
         23    2    1    2    0    0 -0.67549257899E+02 -0.16263668974E+03  0.37198232914E+03  0.41712833914E+03  0.67908784596E+02 0.  0.
         13    1    3    3    0    0 -0.45586824956E+02 -0.14730700156E+03  0.26270697618E+03  0.30461855928E+03  0.00000000000E+00 0.  1.
        -13    1    3    3    0    0 -0.21962432943E+02 -0.15329688174E+02  0.10927535296E+03  0.11250977986E+03  0.00000000000E+00 0. -1.
         22    1    1    2    0    0  0.67549257899E+02  0.16263668974E+03 -0.60171177505E+02  0.18610256767E+03  0.00000000000E+00 0. -1.
<mgrwt>
<rscale>  0 0.51639261E+03</rscale>
<asrwt>0</asrwt>
<pdfrwt beam="1">  1        2 0.70387850E-01 0.51639261E+03</pdfrwt>
<pdfrwt beam="2">  1       -2 0.22416905E-01 0.51639261E+03</pdfrwt>
<totfact> 0.11909347E+03</totfact>
</mgrwt>
</event>
<event>
 6    1  0.4630212E-004  0.2632416E+04  0.7818608E-02  0.8357273E-01
          2   -1    0    0  501    0  0.00000000000E+00  0.00000000000E+00  0.22106198962E+04  0.22106198962E+04  0.00000000000E+00 0. -1.
         -2   -1    0    0    0  501 -0.00000000000E+00 -0.00000000000E+00 -0.78367327465E+03  0.78367327465E+03  0.00000000000E+00 0.  1.
         23    2    1    2    0    0  0.59327941516E+03  0.79532609453E+03  0.16951252551E+04  0.19664586314E+04  0.94793763417E+02 0.  0.
         11    1    3    3    0    0  0.41871957808E+03  0.61904519159E+03  0.13151234040E+04  0.15126442417E+04  0.00000000000E+00 0. -1.
        -11    1    3    3    0    0  0.17455983708E+03  0.17628090294E+03  0.38000185106E+03  0.45381438967E+03  0.00000000000E+00 0.  1.
         22    1    1    2    0    0 -0.59327941516E+03 -0.79532609453E+03 -0.26817863347E+03  0.10278345395E+04  0.00000000000E+00 0.  1.
<mgrwt>
<rscale>  0 0.26324162E+04</rscale>
<asrwt>0</asrwt>
<pdfrwt beam="1">  1        2 0.34009537E+00 0.26324162E+04</pdfrwt>
<pdfrwt beam="2">  1       -2 0.12056512E+00 0.26324162E+04</pdfrwt>
<totfact> 0.23579296E+00</totfact>
</mgrwt>
</event>
<event>
 6    1  0.4630212E-004  0.1312078E+04  0.7818608E-02  0.9020042E-01
          1   -1    0    0  501    0  0.00000000000E+00  0.00000000000E+00  0.93590998455E+03  0.93590998455E+03  0.00000000000E+00 0.  1.
         -1   -1    0    0    0  501 -0.00000000000E+00 -0.00000000000E+00 -0.45985926975E+03  0.45985926975E+03  0.00000000000E+00 0. -1.
         23    2    1    2    0    0 -0.55688202477E+03  0.12961806104E+03 -0.96389151363E+02  0.58669210617E+03  0.89433370067E+02 0.  0.
         13    1    3    3    0    0 -0.42842493066E+03  0.78361194529E+02 -0.40114052633E+02  0.43737573691E+03  0.00000000000E+00 0.  1.
        -13    1    3    3    0    0 -0.12845709410E+03  0.51256866506E+02 -0.56275098730E+02  0.14931636925E+03  0.00000000000E+00 0. -1.
         22    1    1    2    0    0  0.55688202477E+03 -0.12961806104E+03  0.57243986616E+03  0.80907714813E+03  0.00000000000E+00 0.  1.
<mgrwt>
<rscale>  0 0.13120776E+04</rscale>
<asrwt>0</asrwt>
<pdfrwt beam="1">  1        1 0.14398615E+00 0.13120776E+04</pdfrwt>
<pdfrwt beam="2">  1       -1 0.70747580E-01 0.13120776E+04</pdfrwt>
<totfact> 0.33717863E+01</totfact>
</mgrwt>
</event>
<event>
 6    1  0.4630212E-004  0.1183841E+04  0.7818608E-02  0.9127120E-01
         -2   -1    0    0    0  501 -0.00000000000E+00  0.00000000000E+00  0.83157640822E+03  0.83157640822E+03  0.00000000000E+00 0. -1.
          2   -1    0    0  501    0  0.00000000000E+00 -0.00000000000E+00 -0.42133182157E+03  0.42133182157E+03  0.00000000000E+00 0.  1.
         23    2    1    2    0    0  0.97742080040E+02 -0.25465110635E+03  0.75825597981E+03  0.81074012834E+03  0.89144403187E+02 0.  0.
         13    1    3    3    0    0  0.49452216395E+02 -0.42717779092E+02  0.12231067923E+03  0.13867311423E+03  0.00000000000E+00 0. -1.
        -13    1    3    3    0    0  0.48289863645E+02 -0.21193332726E+03  0.63594530057E+03  0.67206701411E+03  0.00000000000E+00 0.  1.
         22    1    1    2    0    0 -0.97742080040E+02  0.25465110635E+03 -0.34801139316E+03  0.44216810145E+03  0.00000000000E+00 0.  1.
<mgrwt>
<rscale>  0 0.11838405E+04</rscale>
<asrwt>0</asrwt>
<pdfrwt beam="1">  1        2 0.64820280E-01 0.11838405E+04</pdfrwt>
<pdfrwt beam="2">  1       -2 0.12793483E+00 0.11838405E+04</pdfrwt>
<totfact> 0.33472690E+01</totfact>
</mgrwt>
</event>
<event>
 6    1  0.4630212E-004  0.2554750E+04  0.7818608E-02  0.8383736E-01
          2   -1    0    0  501    0  0.00000000000E+00  0.00000000000E+00  0.33147604483E+04  0.33147604483E+04  0.00000000000E+00 0.  1.
         -2   -1    0    0    0  501 -0.00000000000E+00 -0.00000000000E+00 -0.49224874755E+03  0.49224874755E+03  0.00000000000E+00 0. -1.
         23    2    1    2    0    0  0.12156553544E+03  0.10992053272E+04  0.23610580924E+04  0.26086895543E+04  0.87380458258E+02 0.  0.
         11    1    3    3    0    0  0.13882910179E+02  0.51630137624E+03  0.10819841030E+04  0.11989367980E+04  0.00000000000E+00 0. -1.
        -11    1    3    3    0    0  0.10768262526E+03  0.58290395092E+03  0.12790739893E+04  0.14097527563E+04  0.00000000000E+00 0.  1.
         22    1    1    2    0    0 -0.12156553544E+03 -0.10992053272E+04  0.46145360840E+03  0.11983196416E+04  0.00000000000E+00 0. -1.
<mgrwt>
<rscale>  0 0.25547498E+04</rscale>
<asrwt>0</asrwt>
<pdfrwt beam="1">  1        2 0.50996313E+00 0.25547498E+04</pdfrwt>
<pdfrwt beam="2">  1       -2 0.75730579E-01 0.25547498E+04</pdfrwt>
<totfact> 0.15115761E+00</totfact>
</mgrwt>
</event>
<event>
 6    1  0.4630212E-004  0.1562152E+04  0.7818608E-02  0.8844143E-01
         -2   -1    0    0    0  501 -0.00000000000E+00  0.00000000000E+00  0.64873014655E+03  0.64873014655E+03  0.00000000000E+00 0. -1.
          2   -1    0    0  501    0  0.00000000000E+00 -0.00000000000E+00 -0.94042179489E+03  0.94042179489E+03  0.00000000000E+00 0.  1.
         23    2    1    2    0    0 -0.63042702226E+03  0.80897111014E+02  0.31106649338E+03  0.71319534984E+03  0.88896967138E+02 0.  0.
         13    1    3    3    0    0 -0.26016909187E+03  0.74522510282E+02  0.11340848471E+03  0.29343320417E+03  0.00000000000E+00 0. -1.
        -13    1    3    3    0    0 -0.37025793039E+03  0.63746007329E+01  0.19765800866E+03  0.41976214567E+03  0.00000000000E+00 0.  1.
         22    1    1    2    0    0  0.63042702226E+03 -0.80897111014E+02 -0.60275814172E+03  0.87595659160E+03  0.00000000000E+00 0.  1.
<mgrwt>
<rscale>  0 0.15621523E+04</rscale>
<asrwt>0</asrwt>
<pdfrwt beam="1">  1        2 0.14468028E+00 0.15621523E+04</pdfrwt>
<pdfrwt beam="2">  1       -2 0.99804639E-01 0.15621523E+04</pdfrwt>
<totfact> 0.21989970E+01</totfact>
</mgrwt>
</event>
<event>
 6    1  0.4630212E-004  0.3335346E+04  0.7818608E-02  0.8153959E-01
          2   -1    0    0  501    0  0.00000000000E+00  0.00000000000E+00  0.24239892897E+04  0.24239892897E+04  0.00000000000E+00 0.  1.
         -2   -1    0    0    0  501 -0.00000000000E+00 -0.00000000000E+00 -0.11473370344E+04  0.11473370344E+04  0.00000000000E+00 0. -1.
         23    2    1    2    0    0 -0.14219971970E+04 -0.31654519011E+03 -0.22570225626E+03  0.14786376315E+04  0.11467716058E+03 0.  0.
         11    1    3    3    0    0 -0.30397424948E+03 -0.44267555915E+02 -0.65250218235E+01  0.30724995812E+03  0.00000000000E+00 0. -1.
        -11    1    3    3    0    0 -0.11180229475E+04 -0.27227763420E+03 -0.21917723444E+03  0.11713876734E+04  0.00000000000E+00 0.  1.
         22    1    1    2    0    0  0.14219971970E+04  0.31654519011E+03  0.15023545116E+04  0.20926886926E+04  0.00000000000E+00 0. -1.
<mgrwt>
<rscale>  0 0.33353457E+04</rscale>
<asrwt>0</asrwt>
<pdfrwt beam="1">  1        2 0.37292143E+00 0.33353457E+04</pdfrwt>
<pdfrwt beam="2">  1       -2 0.17651339E+00 0.33353457E+04</pdfrwt>
<totfact> 0.61492914E-01</totfact>
</mgrwt>
</event>
<event>
 6    1  0.4630212E-004  0.1408582E+04  0.7818608E-02  0.8947629E-01
         -1   -1    0    0    0  501 -0.00000000000E+00  0.00000000000E+00  0.68730272047E+03  0.68730272047E+03  0.00000000000E+00 0. -1.
          1   -1    0    0  501    0  0.00000000000E+00 -0.00000000000E+00 -0.72169961115E+03  0.72169961115E+03  0.00000000000E+00 0.  1.
         23    2    1    2    0    0  0.22867028312E+03 -0.30795265837E+03 -0.60470897229E+03  0.72170268183E+03  0.89760133744E+02 0.  0.
         13    1    3    3    0    0  0.20084010267E+03 -0.21082705290E+03 -0.47714910518E+03  0.55897769334E+03  0.00000000000E+00 0.  1.
        -13    1    3    3    0    0  0.27830180448E+02 -0.97125605467E+02 -0.12755986711E+03  0.16272498848E+03  0.00000000000E+00 0. -1.
         22    1    1    2    0    0 -0.22867028312E+03  0.30795265837E+03  0.57031208161E+03  0.68729964980E+03  0.00000000000E+00 0. -1.
<mgrwt>
<rscale>  0 0.14085824E+04</rscale>
<asrwt>0</asrwt>
<pdfrwt beam="1">  1        1 0.11103071E+00 0.14085824E+04</pdfrwt>
<pdfrwt beam="2">  1       -1 0.10573888E+00 0.14085824E+04</pdfrwt>
<totfact> 0.21226963E+01</totfact>
</mgrwt>
</event>
<event>
 6    1  0.4630212E-004  0.4624577E+04  0.7818608E-02  0.7889183E-01
          2   -1    0    0  501    0  0.00000000000E+00  0.00000000000E+00  0.23559521383E+04  0.23559521383E+04  0.00000000000E+00 0.  1.
         -2   -1    0    0    0  501 -0.00000000000E+00 -0.00000000000E+00 -0.22694338766E+04  0.22694338766E+04  0.00000000000E+00 0. -1.
         23    2    1    2    0    0  0.69658736883E+03 -0.18808095939E+04  0.11922764257E+04  0.23351065979E+04  0.92309572670E+02 0.  0.
         13    1    3    3    0    0  0.12971433696E+03 -0.29683131630E+03  0.22621420863E+03  0.39510442637E+03  0.00000000000E+00 0.  1.
        -13    1    3    3    0    0  0.56687303186E+03 -0.15839782776E+04  0.96606221703E+03  0.19400021715E+04  0.00000000000E+00 0. -1.
         22    1    1    2    0    0 -0.69658736883E+03  0.18808095939E+04 -0.11057581640E+04  0.22902794171E+04  0.00000000000E+00 0. -1.
<mgrwt>
<rscale>  0 0.46245768E+04</rscale>
<asrwt>0</asrwt>
<pdfrwt beam="1">  1        2 0.36245417E+00 0.46245768E+04</pdfrwt>
<pdfrwt beam="2">  1       -2 0.34914368E+00 0.46245768E+04</pdfrwt>
<totfact> 0.49784955E-02</totfact>
</mgrwt>
</event>
<event>
 6    1  0.4630212E-004  0.2870009E+04  0.7818608E-02  0.8281857E-01
         -2   -1    0    0    0  501 -0.00000000000E+00  0.00000000000E+00  0.91833847114E+03  0.91833847114E+03  0.00000000000E+00 0.  1.
          2   -1    0    0  501    0  0.00000000000E+00 -0.00000000000E+00 -0.22423516949E+04  0.22423516949E+04  0.00000000000E+00 0. -1.
         23    2    1    2    0    0 -0.39373582312E+03 -0.79144860688E+03 -0.19056168425E+04  0.21025400986E+04  0.88772295043E+02 0.  0.
         11    1    3    3    0    0 -0.14426728655E+03 -0.37725642431E+03 -0.81768421858E+03  0.91199941939E+03  0.00000000000E+00 0. -1.
        -11    1    3    3    0    0 -0.24946853657E+03 -0.41419218257E+03 -0.10879326239E+04  0.11905406793E+04  0.00000000000E+00 0.  1.
         22    1    1    2    0    0  0.39373582312E+03  0.79144860688E+03  0.58160361875E+03  0.10581500674E+04  0.00000000000E+00 0.  1.
<mgrwt>
<rscale>  0 0.28700089E+04</rscale>
<asrwt>0</asrwt>
<pdfrwt beam="1">  1        2 0.34497718E+00 0.28700089E+04</pdfrwt>
<pdfrwt beam="2">  1       -2 0.14128284E+00 0.28700089E+04</pdfrwt>
<totfact> 0.14830044E+00</totfact>
</mgrwt>
</event>
<event>
 6    1  0.4630212E-004  0.1520156E+04  0.7818608E-02  0.8871159E-01
          2   -1    0    0  501    0  0.00000000000E+00  0.00000000000E+00  0.32113578102E+04  0.32113578102E+04  0.00000000000E+00 0.  1.
         -2   -1    0    0    0  501 -0.00000000000E+00 -0.00000000000E+00 -0.17989851382E+03  0.17989851382E+03  0.00000000000E+00 0. -1.
         23    2    1    2    0    0 -0.62465541119E+03  0.40393652008E+03  0.12044078729E+04  0.14185738865E+04  0.91621243972E+02 0.  0.
         13    1    3    3    0    0 -0.15115359460E+03  0.14508885927E+03  0.31768210016E+03  0.38055236566E+03  0.00000000000E+00 0. -1.
        -13    1    3    3    0    0 -0.47350181659E+03  0.25884766081E+03  0.88672577271E+03  0.10380215209E+04  0.00000000000E+00 0.  1.
         22    1    1    2    0    0  0.62465541119E+03 -0.40393652008E+03  0.18270514235E+04  0.19726824375E+04  0.00000000000E+00 0.  1.
<mgrwt>
<rscale>  0 0.15201559E+04</rscale>
<asrwt>0</asrwt>
<pdfrwt beam="1">  1        2 0.49405501E+00 0.15201559E+04</pdfrwt>
<pdfrwt beam="2">  1       -2 0.27676697E-01 0.15201559E+04</pdfrwt>
<totfact> 0.14787189E+01</totfact>
</mgrwt>
</event>
<event>
 6    1  0.4630212E-004  0.1176667E+04  0.7818608E-02  0.9133529E-01
          2   -1    0    0  501    0  0.00000000000E+00  0.00000000000E+00  0.69194332895E+03  0.69194332895E+03  0.00000000000E+00 0.  1.
         -2   -1    0    0    0  501 -0.00000000000E+00 -0.00000000000E+00 -0.50023768927E+03  0.50023768927E+03  0.00000000000E+00 0. -1.
         23    2    1    2    0    0  0.18485503005E+03 -0.47389357739E+03  0.38885227558E+03  0.64664155964E+03  0.90513587922E+02 0.  0.
         13    1    3    3    0    0  0.44932011084E+02 -0.21301566896E+03  0.19907648737E+03  0.29500170960E+03  0.00000000000E+00 0.  1.
        -13    1    3    3    0    0  0.13992301897E+03 -0.26087790843E+03  0.18977578821E+03  0.35163985004E+03  0.00000000000E+00 0. -1.
         22    1    1    2    0    0 -0.18485503005E+03  0.47389357739E+03 -0.19714663589E+03  0.54553945858E+03  0.00000000000E+00 0. -1.
<mgrwt>
<rscale>  0 0.11766667E+04</rscale>
<asrwt>0</asrwt>
<pdfrwt beam="1">  1        2 0.10645282E+00 0.11766667E+04</pdfrwt>
<pdfrwt beam="2">  1       -2 0.76959644E-01 0.11766667E+04</pdfrwt>
<totfact> 0.61983041E+01</totfact>
</mgrwt>
</event>
<event>
 6    1  0.4630212E-004  0.3953575E+04  0.7818608E-02  0.8013978E-01
          2   -1    0    0  501    0  0.00000000000E+00  0.00000000000E+00  0.37001244585E+04  0.37001244585E+04  0.00000000000E+00 0.  1.
         -2   -1    0    0    0  501 -0.00000000000E+00 -0.00000000000E+00 -0.10560965165E+04  0.10560965165E+04  0.00000000000E+00 0. -1.
         23    2    1    2    0    0  0.19605620921E+04 -0.18907713909E+03  0.11367619338E+04  0.22760184226E+04  0.92077598390E+02 0.  0.
         11    1    3    3    0    0  0.76658515047E+03 -0.28836334835E+02  0.44162261875E+03  0.88516375011E+03  0.00000000000E+00 0.  1.
        -11    1    3    3    0    0  0.11939769417E+04 -0.16024080425E+03  0.69513931500E+03  0.13908546725E+04  0.00000000000E+00 0. -1.
         22    1    1    2    0    0 -0.19605620921E+04  0.18907713909E+03  0.15072660083E+04  0.24802025525E+04  0.00000000000E+00 0.  1.
<mgrwt>
<rscale>  0 0.39535749E+04</rscale>
<asrwt>0</asrwt>
<pdfrwt beam="1">  1        2 0.56924991E+00 0.39535749E+04</pdfrwt>
<pdfrwt beam="2">  1       -2 0.16247639E+00 0.39535749E+04</pdfrwt>
<totfact> 0.11133931E-01</totfact>
</mgrwt>
</event>
<event>
 6    1  0.4630212E-004  0.7711401E+03  0.7818608E-02  0.9602756E-01
         -2   -1    0    0    0  501 -0.00000000000E+00  0.00000000000E+00  0.86930235773E+02  0.86930235773E+02  0.00000000000E+00 0.  1.
          2   -1    0    0  501    0  0.00000000000E+00 -0.00000000000E+00 -0.17101560264E+04  0.17101560264E+04  0.00000000000E+00 0. -1.
         23    2    1    2    0    0 -0.31777620874E+03  0.16872347137E+03 -0.53816434359E+03  0.65392937335E+03  0.92484787825E+02 0.  0.
         13    1    3    3    0    0 -0.70446697019E+02  0.76481819011E+02 -0.19491112485E+03  0.22091299724E+03  0.00000000000E+00 0. -1.
        -13    1    3    3    0    0 -0.24732951172E+03  0.92241652359E+02 -0.34325321874E+03  0.43301637611E+03  0.00000000000E+00 0.  1.
         22    1    1    2    0    0  0.31777620874E+03 -0.16872347137E+03 -0.10850614470E+04  0.11431568888E+04  0.00000000000E+00 0. -1.
<mgrwt>
<rscale>  0 0.77114011E+03</rscale>
<asrwt>0</asrwt>
<pdfrwt beam="1">  1        2 0.26310091E+00 0.77114011E+03</pdfrwt>
<pdfrwt beam="2">  1       -2 0.13373883E-01 0.77114011E+03</pdfrwt>
<totfact> 0.41769729E+02</totfact>
</mgrwt>
</event>
<event>
 6    1  0.4630212E-004  0.2514620E+04  0.7818608E-02  0.8397796E-01
          2   -1    0    0  501    0  0.00000000000E+00  0.00000000000E+00  0.12963157586E+04  0.12963157586E+04  0.00000000000E+00 0.  1.
         -2   -1    0    0    0  501 -0.00000000000E+00 -0.00000000000E+00 -0.12194778048E+04  0.12194778048E+04  0.00000000000E+00 0. -1.
         23    2    1    2    0    0  0.10760511791E+04 -0.24842597603E+03 -0.55965255223E+03  0.12411478205E+04  0.87380361158E+02 0.  0.
         11    1    3    3    0    0  0.81667251724E+03 -0.22433667497E+03 -0.41397054613E+03  0.94268369946E+03  0.00000000000E+00 0.  1.
        -11    1    3    3    0    0  0.25937866181E+03 -0.24089301063E+02 -0.14568200610E+03  0.29846412100E+03  0.00000000000E+00 0. -1.
         22    1    1    2    0    0 -0.10760511791E+04  0.24842597603E+03  0.63649050603E+03  0.12746457429E+04  0.00000000000E+00 0.  1.
<mgrwt>
<rscale>  0 0.25146199E+04</rscale>
<asrwt>0</asrwt>
<pdfrwt beam="1">  1        2 0.19943319E+00 0.25146199E+04</pdfrwt>
<pdfrwt beam="2">  1       -2 0.18761197E+00 0.25146199E+04</pdfrwt>
<totfact> 0.23806378E+00</totfact>
</mgrwt>
</event>
<event>
 6    1  0.4630212E-004  0.2182671E+04  0.7818608E-02  0.8525676E-01
         -2   -1    0    0    0  501 -0.00000000000E+00  0.00000000000E+00  0.81221346838E+03  0.81221346838E+03  0.00000000000E+00 0. -1.
          2   -1    0    0  501    0  0.00000000000E+00 -0.00000000000E+00 -0.14663793735E+04  0.14663793735E+04  0.00000000000E+00 0.  1.
         23    2    1    2    0    0  0.28895427209E+03 -0.24289604267E+03 -0.13941912716E+04  0.14478518462E+04  0.10006302057E+03 0.  0.
         11    1    3    3    0    0  0.18910306553E+03 -0.14832736640E+03 -0.69829346527E+03  0.73849491580E+03  0.00000000000E+00 0.  1.
        -11    1    3    3    0    0  0.99851206561E+02 -0.94568676271E+02 -0.69589780628E+03  0.70935693045E+03  0.00000000000E+00 0. -1.
         22    1    1    2    0    0 -0.28895427209E+03  0.24289604267E+03  0.74002536643E+03  0.83074099565E+03  0.00000000000E+00 0. -1.
<mgrwt>
<rscale>  0 0.21826709E+04</rscale>
<asrwt>0</asrwt>
<pdfrwt beam="1">  1        2 0.22559683E+00 0.21826709E+04</pdfrwt>
<pdfrwt beam="2">  1       -2 0.12495592E+00 0.21826709E+04</pdfrwt>
<totfact> 0.58270941E+00</totfact>
</mgrwt>
</event>
<event>
 6    1  0.4630212E-004  0.1816646E+04  0.7818608E-02  0.8697497E-01
         -2   -1    0    0    0  501 -0.00000000000E+00  0.00000000000E+00  0.90160956723E+03  0.90160956723E+03  0.00000000000E+00 0. -1.
          2   -1    0    0  501    0  0.00000000000E+00 -0.00000000000E+00 -0.91508634599E+03  0.91508634599E+03  0.00000000000E+00 0.  1.
         23    2    1    2    0    0  0.64122781214E+03 -0.29272554952E+03 -0.57588560110E+03  0.91493927319E+03  0.92780890614E+02 0.  0.
         13    1    3    3    0    0  0.16579584508E+03 -0.50504456773E+02 -0.10074464838E+03  0.20047056287E+03  0.00000000000E+00 0.  1.
        -13    1    3    3    0    0  0.47543196706E+03 -0.24222109275E+03 -0.47514095272E+03  0.71446871032E+03  0.00000000000E+00 0. -1.
         22    1    1    2    0    0 -0.64122781214E+03  0.29272554952E+03  0.56240882234E+03  0.90175664003E+03  0.00000000000E+00 0. -1.
<mgrwt>
<rscale>  0 0.18166459E+04</rscale>
<asrwt>0</asrwt>
<pdfrwt beam="1">  1        2 0.14078251E+00 0.18166459E+04</pdfrwt>
<pdfrwt beam="2">  1       -2 0.13870916E+00 0.18166459E+04</pdfrwt>
<totfact> 0.99336954E+00</totfact>
</mgrwt>
</event>
<event>
 6    1  0.4630212E-004  0.1242402E+04  0.7818608E-02  0.9076531E-01
          2   -1    0    0  501    0  0.00000000000E+00  0.00000000000E+00  0.94792117436E+03  0.94792117436E+03  0.00000000000E+00 0.  1.
         -2   -1    0    0    0  501 -0.00000000000E+00 -0.00000000000E+00 -0.40709149120E+03  0.40709149120E+03  0.00000000000E+00 0. -1.
         23    2    1    2    0    0  0.16671442393E+03  0.40621540949E+03  0.74595489217E+03  0.87036742477E+03  0.91027989602E+02 0.  0.
         11    1    3    3    0    0  0.10967137932E+03  0.33250775257E+03  0.63788755128E+03  0.72766046000E+03  0.00000000000E+00 0. -1.
        -11    1    3    3    0    0  0.57043044619E+02  0.73707656919E+02  0.10806734088E+03  0.14270696477E+03  0.00000000000E+00 0.  1.
         22    1    1    2    0    0 -0.16671442393E+03 -0.40621540949E+03 -0.20512520901E+03  0.48464524080E+03  0.00000000000E+00 0. -1.
<mgrwt>
<rscale>  0 0.12424019E+04</rscale>
<asrwt>0</asrwt>
<pdfrwt beam="1">  1        2 0.14583403E+00 0.12424019E+04</pdfrwt>
<pdfrwt beam="2">  1       -2 0.62629460E-01 0.12424019E+04</pdfrwt>
<totfact> 0.63373427E+01</totfact>
</mgrwt>
</event>
<event>
 6    1  0.4630212E-004  0.1334147E+04  0.7818608E-02  0.9002916E-01
         -2   -1    0    0    0  501 -0.00000000000E+00  0.00000000000E+00  0.24481876274E+03  0.24481876274E+03  0.00000000000E+00 0. -1.
          2   -1    0    0  501    0  0.00000000000E+00 -0.00000000000E+00 -0.18176189658E+04  0.18176189658E+04  0.00000000000E+00 0.  1.
         23    2    1    2    0    0  0.26182659473E+03  0.75870033116E+02 -0.17259538019E+04  0.17497630534E+04  0.91895532826E+02 0.  0.
         13    1    3    3    0    0  0.34540125935E+02  0.24219395018E+02 -0.50511756775E+03  0.50687607622E+03  0.00000000000E+00 0.  1.
        -13    1    3    3    0    0  0.22728646880E+03  0.51650638098E+02 -0.12208362342E+04  0.12428869771E+04  0.00000000000E+00 0. -1.
         22    1    1    2    0    0 -0.26182659473E+03 -0.75870033116E+02  0.15315359887E+03  0.31267467515E+03  0.00000000000E+00 0. -1.
<mgrwt>
<rscale>  0 0.13341473E+04</rscale>
<asrwt>0</asrwt>
<pdfrwt beam="1">  1        2 0.27963369E+00 0.13341473E+04</pdfrwt>
<pdfrwt beam="2">  1       -2 0.37664424E-01 0.13341473E+04</pdfrwt>
<totfact> 0.54872007E+01</totfact>
</mgrwt>
</event>
<event>
 6    1  0.4630212E-004  0.2873108E+04  0.7818608E-02  0.8280924E-01
         -2   -1    0    0    0  501 -0.00000000000E+00  0.00000000000E+00  0.14686255913E+04  0.14686255913E+04  0.00000000000E+00 0. -1.
          2   -1    0    0  501    0  0.00000000000E+00 -0.00000000000E+00 -0.14051832643E+04  0.14051832643E+04  0.00000000000E+00 0.  1.
         23    2    1    2    0    0  0.42273983979E+03  0.95991504747E+03 -0.94795913222E+03  0.14167300031E+04  0.91386622913E+02 0.  0.
         13    1    3    3    0    0  0.11518272629E+03  0.17396515197E+03 -0.17627522361E+03  0.27313712489E+03  0.00000000000E+00 0.  1.
        -13    1    3    3    0    0  0.30755711349E+03  0.78594989550E+03 -0.77168390861E+03  0.11435928782E+04  0.00000000000E+00 0. -1.
         22    1    1    2    0    0 -0.42273983979E+03 -0.95991504747E+03  0.10114014592E+04  0.14570788524E+04  0.00000000000E+00 0.  1.
<mgrwt>
<rscale>  0 0.28731085E+04</rscale>
<asrwt>0</asrwt>
<pdfrwt beam="1">  1        2 0.21618204E+00 0.28731085E+04</pdfrwt>
<pdfrwt beam="2">  1       -2 0.22594240E+00 0.28731085E+04</pdfrwt>
<totfact> 0.11270570E+00</totfact>
</mgrwt>
</event>
<event>
 6    1  0.4630212E-004  0.3520157E+04  0.7818608E-02  0.8109030E-01
          2   -1    0    0  501    0  0.00000000000E+00  0.00000000000E+00  0.10034119414E+04  0.10034119414E+04  0.00000000000E+00 0.  1.
         -2   -1    0    0    0  501 -0.00000000000E+00 -0.00000000000E+00 -0.30873421169E+04  0.30873421169E+04  0.00000000000E+00 0. -1.
         23    2    1    2    0    0 -0.16321457294E+03 -0.16910954362E+04 -0.51370135913E+03  0.17773018096E+04  0.92031868565E+02 0.  0.
         13    1    3    3    0    0 -0.14312375041E+03 -0.10544460122E+04 -0.30355424395E+03  0.11065649459E+04  0.00000000000E+00 0. -1.
        -13    1    3    3    0    0 -0.20090822536E+02 -0.63664942405E+03 -0.21014711518E+03  0.67073686369E+03  0.00000000000E+00 0.  1.
         22    1    1    2    0    0  0.16321457294E+03  0.16910954362E+04 -0.15702288163E+04  0.23134522487E+04  0.00000000000E+00 0. -1.
<mgrwt>
<rscale>  0 0.35201568E+04</rscale>
<asrwt>0</asrwt>
<pdfrwt beam="1">  1        2 0.15437107E+00 0.35201568E+04</pdfrwt>
<pdfrwt beam="2">  1       -2 0.47497570E+00 0.35201568E+04</pdfrwt>
<totfact> 0.48874640E-02</totfact>
</mgrwt>
</event>
<event>
 6    1  0.4630212E-004  0.5699228E+04  0.7818608E-02  0.7728855E-01
         -2   -1    0    0    0  501 -0.00000000000E+00  0.00000000000E+00  0.25556052806E+04  0.25556052806E+04  0.00000000000E+00 0. -1.
          2   -1    0    0  501    0  0.00000000000E+00 -0.00000000000E+00 -0.31774469339E+04  0.31774469339E+04  0.00000000000E+00 0.  1.
         23    2    1    2    0    0 -0.15158804112E+04 -0.20514727496E+04 -0.15870743080E+04  0.30057627284E+04  0.96803183761E+02 0.  0.
         11    1    3    3    0    0 -0.39916946382E+03 -0.52030063822E+03 -0.36067288854E+03  0.74842096945E+03  0.00000000000E+00 0. -1.
        -11    1    3    3    0    0 -0.11167109474E+04 -0.15311721114E+04 -0.12264014195E+04  0.22573417589E+04  0.00000000000E+00 0.  1.
         22    1    1    2    0    0  0.15158804112E+04  0.20514727496E+04  0.96523265468E+03  0.27272894861E+04  0.00000000000E+00 0. -1.
<mgrwt>
<rscale>  0 0.56992281E+04</rscale>
<asrwt>0</asrwt>
<pdfrwt beam="1">  1        2 0.48883799E+00 0.56992281E+04</pdfrwt>
<pdfrwt beam="2">  1       -2 0.39317004E+00 0.56992281E+04</pdfrwt>
<totfact> 0.76010144E-03</totfact>
</mgrwt>
</event>
<event>
 6    1  0.4630212E-004  0.7702345E+03  0.7818608E-02  0.9604130E-01
         -2   -1    0    0    0  501 -0.00000000000E+00  0.00000000000E+00  0.55092422392E+03  0.55092422392E+03  0.00000000000E+00 0. -1.
          2   -1    0    0  501    0  0.00000000000E+00 -0.00000000000E+00 -0.26921179414E+03  0.26921179414E+03  0.00000000000E+00 0.  1.
         23    2    1    2    0    0  0.16345718294E+03 -0.14167317283E+03 -0.18960501549E+03  0.30155172138E+03  0.90519833251E+02 0.  0.
         11    1    3    3    0    0  0.12019089467E+03 -0.45260924077E+02 -0.11252061095E+03  0.17074920292E+03  0.00000000000E+00 0. -1.
        -11    1    3    3    0    0  0.43266288265E+02 -0.96412248756E+02 -0.77084404538E+02  0.13080251845E+03  0.00000000000E+00 0.  1.
         22    1    1    2    0    0 -0.16345718294E+03  0.14167317283E+03  0.47131744527E+03  0.51858429668E+03  0.00000000000E+00 0. -1.
<mgrwt>
<rscale>  0 0.77023451E+03</rscale>
<asrwt>0</asrwt>
<pdfrwt beam="1">  1        2 0.41417199E-01 0.77023451E+03</pdfrwt>
<pdfrwt beam="2">  1       -2 0.84757572E-01 0.77023451E+03</pdfrwt>
<totfact> 0.15150630E+02</totfact>
</mgrwt>
</event>
<event>
 6    1  0.4630212E-004  0.2504443E+04  0.7818608E-02  0.8401405E-01
         -1   -1    0    0    0  501 -0.00000000000E+00  0.00000000000E+00  0.29595425446E+04  0.29595425446E+04  0.00000000000E+00 0. -1.
          1   -1    0    0  501    0  0.00000000000E+00 -0.00000000000E+00 -0.52983128713E+03  0.52983128713E+03  0.00000000000E+00 0.  1.
         23    2    1    2    0    0  0.11282678159E+04 -0.10595364541E+03  0.47952894656E+03  0.12338416362E+04  0.90568941634E+02 0.  0.
         13    1    3    3    0    0  0.96568949746E+03 -0.10822325259E+03  0.43885411647E+03  0.10662370344E+04  0.00000000000E+00 0. -1.
        -13    1    3    3    0    0  0.16257831845E+03  0.22696071826E+01  0.40674830083E+02  0.16760460181E+03  0.00000000000E+00 0.  1.
         22    1    1    2    0    0 -0.11282678159E+04  0.10595364541E+03  0.19501823110E+04  0.22555321956E+04  0.00000000000E+00 0. -1.
<mgrwt>
<rscale>  0 0.25044426E+04</rscale>
<asrwt>0</asrwt>
<pdfrwt beam="1">  1        1 0.81512507E-01 0.25044426E+04</pdfrwt>
<pdfrwt beam="2">  1       -1 0.45531423E+00 0.25044426E+04</pdfrwt>
<totfact> 0.10788106E-01</totfact>
</mgrwt>
</event>
<event>
 6    1  0.4630212E-004  0.2232705E+04  0.7818608E-02  0.8504937E-01
         -2   -1    0    0    0  501 -0.00000000000E+00  0.00000000000E+00  0.38226778296E+03  0.38226778296E+03  0.00000000000E+00 0. -1.
          2   -1    0    0  501    0  0.00000000000E+00 -0.00000000000E+00 -0.32601312307E+04  0.32601312307E+04  0.00000000000E+00 0.  1.
         23    2    1    2    0    0 -0.44863208340E+03  0.45995622385E+03 -0.29269582725E+04  0.29980072260E+04  0.90178292676E+02 0.  0.
         13    1    3    3    0    0 -0.13248063033E+03  0.18234311841E+03 -0.11546814301E+04  0.11764732616E+04  0.00000000000E+00 0. -1.
        -13    1    3    3    0    0 -0.31615145307E+03  0.27761310544E+03 -0.17722768424E+04  0.18215339644E+04  0.00000000000E+00 0.  1.
         22    1    1    2    0    0  0.44863208340E+03 -0.45995622385E+03  0.49094824746E+02  0.64439178761E+03  0.00000000000E+00 0. -1.
<mgrwt>
<rscale>  0 0.22327052E+04</rscale>
<asrwt>0</asrwt>
<pdfrwt beam="1">  1        2 0.50155868E+00 0.22327052E+04</pdfrwt>
<pdfrwt beam="2">  1       -2 0.58810425E-01 0.22327052E+04</pdfrwt>
<totfact> 0.29220205E+00</totfact>
</mgrwt>
</event>
<event>
 6    1  0.4630212E-004  0.1058152E+04  0.7818608E-02  0.9246968E-01
          1   -1    0    0  501    0  0.00000000000E+00  0.00000000000E+00  0.11854089700E+04  0.11854089700E+04  0.00000000000E+00 0.  1.
         -1   -1    0    0    0  501 -0.00000000000E+00 -0.00000000000E+00 -0.23613924534E+03  0.23613924534E+03  0.00000000000E+00 0. -1.
         23    2    1    2    0    0  0.16016800681E+03  0.43147454071E+03  0.81821391771E+03  0.94300909026E+03  0.89263987636E+02 0.  0.
         13    1    3    3    0    0  0.72461745242E+02  0.18657162341E+03  0.26888334094E+03  0.33519833863E+03  0.00000000000E+00 0.  1.
        -13    1    3    3    0    0  0.87706261567E+02  0.24490291730E+03  0.54933057677E+03  0.60781075163E+03  0.00000000000E+00 0. -1.
         22    1    1    2    0    0 -0.16016800681E+03 -0.43147454071E+03  0.13105580693E+03  0.47853912506E+03  0.00000000000E+00 0. -1.
<mgrwt>
<rscale>  0 0.10581523E+04</rscale>
<asrwt>0</asrwt>
<pdfrwt beam="1">  1        1 0.18237061E+00 0.10581523E+04</pdfrwt>
<pdfrwt beam="2">  1       -1 0.36329115E-01 0.10581523E+04</pdfrwt>
<totfact> 0.79333645E+01</totfact>
</mgrwt>
</event>
<event>
 6    1  0.4630212E-004  0.6840212E+04  0.7818608E-02  0.7594143E-01
          2   -1    0    0  501    0  0.00000000000E+00  0.00000000000E+00  0.36305728953E+04  0.36305728953E+04  0.00000000000E+00 0.  1.
         -2   -1    0    0    0  501 -0.00000000000E+00 -0.00000000000E+00 -0.32218401100E+04  0.32218401100E+04  0.00000000000E+00 0. -1.
         23    2    1    2    0    0 -0.12743069508E+04  0.15688089688E+04  0.29675557790E+04  0.35916470066E+04  0.92309982163E+02 0.  0.
         11    1    3    3    0    0 -0.75688822766E+03  0.89453250887E+03  0.17889337710E+04  0.21385397437E+04  0.00000000000E+00 0. -1.
        -11    1    3    3    0    0 -0.51741872311E+03  0.67427645998E+03  0.11786220080E+04  0.14531072628E+04  0.00000000000E+00 0.  1.
         22    1    1    2    0    0  0.12743069508E+04 -0.15688089688E+04 -0.25588229937E+04  0.32607659988E+04  0.00000000000E+00 0. -1.
<mgrwt>
<rscale>  0 0.68402121E+04</rscale>
<asrwt>0</asrwt>
<pdfrwt beam="1">  1        2 0.55854968E+00 0.68402121E+04</pdfrwt>
<pdfrwt beam="2">  1       -2 0.49566771E+00 0.68402121E+04</pdfrwt>
<totfact> 0.73474376E-04</totfact>
</mgrwt>
</event>
<event>
 6    1  0.4630212E-004  0.7407493E+03  0.7818608E-02  0.9649976E-01
          3   -1    0    0  501    0  0.00000000000E+00  0.00000000000E+00  0.32934738387E+03  0.32934738387E+03  0.00000000000E+00 0.  1.
         -3   -1    0    0    0  501 -0.00000000000E+00 -0.00000000000E+00 -0.41651270997E+03  0.41651270997E+03  0.00000000000E+00 0. -1.
         23    2    1    2    0    0 -0.14931793711E+03  0.17035353946E+03 -0.33206347018E+03  0.41225662305E+03  0.91505192585E+02 0.  0.
         11    1    3    3    0    0 -0.11361042479E+03  0.13258034153E+03 -0.17662392677E+03  0.24835637115E+03  0.00000000000E+00 0. -1.
        -11    1    3    3    0    0 -0.35707512320E+02  0.37773197928E+02 -0.15543954341E+03  0.16390025190E+03  0.00000000000E+00 0.  1.
         22    1    1    2    0    0  0.14931793711E+03 -0.17035353946E+03  0.24489814409E+03  0.33360347079E+03  0.00000000000E+00 0.  1.
<mgrwt>
<rscale>  0 0.74074927E+03</rscale>
<asrwt>0</asrwt>
<pdfrwt beam="1">  1        3 0.50668828E-01 0.74074927E+03</pdfrwt>
<pdfrwt beam="2">  1       -3 0.64078878E-01 0.74074927E+03</pdfrwt>
<totfact> 0.24024601E+01</totfact>
</mgrwt>
</event>
<event>
 6    1  0.4630212E-004  0.6551444E+03  0.7818608E-02  0.9797174E-01
         -2   -1    0    0    0  501 -0.00000000000E+00  0.00000000000E+00  0.10732939730E+03  0.10732939730E+03  0.00000000000E+00 0. -1.
          2   -1    0    0  501    0  0.00000000000E+00 -0.00000000000E+00 -0.99975901671E+03  0.99975901671E+03  0.00000000000E+00 0.  1.
         23    2    1    2    0    0  0.12512302251E+02 -0.27547150461E+03 -0.19013841246E+03  0.35259915172E+03  0.11014734832E+03 0.  0.
         11    1    3    3    0    0  0.47789391530E+01 -0.14374413412E+03 -0.33287017914E+02  0.14762533629E+03  0.00000000000E+00 0.  1.
        -11    1    3    3    0    0  0.77333630980E+01 -0.13172737049E+03 -0.15685139455E+03  0.20497381543E+03  0.00000000000E+00 0. -1.
         22    1    1    2    0    0 -0.12512302251E+02  0.27547150461E+03 -0.70229120694E+03  0.75448926229E+03  0.00000000000E+00 0.  1.
<mgrwt>
<rscale>  0 0.65514436E+03</rscale>
<asrwt>0</asrwt>
<pdfrwt beam="1">  1        2 0.15380908E+00 0.65514436E+03</pdfrwt>
<pdfrwt beam="2">  1       -2 0.16512215E-01 0.65514436E+03</pdfrwt>
<totfact> 0.75532329E+02</totfact>
</mgrwt>
</event>
<event>
 6    1  0.4630212E-004  0.1356598E+04  0.7818608E-02  0.8985849E-01
          2   -1    0    0  501    0  0.00000000000E+00  0.00000000000E+00  0.63950480638E+03  0.63950480638E+03  0.00000000000E+00 0.  1.
         -2   -1    0    0    0  501 -0.00000000000E+00 -0.00000000000E+00 -0.71944623935E+03  0.71944623935E+03  0.00000000000E+00 0. -1.
         23    2    1    2    0    0  0.24256501944E+03 -0.62051158325E+03 -0.15014945313E+03  0.68902449774E+03  0.91309838543E+02 0.  0.
         11    1    3    3    0    0  0.33990801620E+02 -0.18261848148E+03 -0.63548654993E+02  0.19632451687E+03  0.00000000000E+00 0. -1.
        -11    1    3    3    0    0  0.20857421782E+03 -0.43789310177E+03 -0.86600798140E+02  0.49269998087E+03  0.00000000000E+00 0.  1.
         22    1    1    2    0    0 -0.24256501944E+03  0.62051158325E+03  0.70208020166E+02  0.66992654798E+03  0.00000000000E+00 0.  1.
<mgrwt>
<rscale>  0 0.13565977E+04</rscale>
<asrwt>0</asrwt>
<pdfrwt beam="1">  1        2 0.98385355E-01 0.13565977E+04</pdfrwt>
<pdfrwt beam="2">  1       -2 0.11068404E+00 0.13565977E+04</pdfrwt>
<totfact> 0.28989779E+01</totfact>
</mgrwt>
</event>
<event>
 6    1  0.4630212E-004  0.1494247E+04  0.7818608E-02  0.8888287E-01
         -2   -1    0    0    0  501 -0.00000000000E+00  0.00000000000E+00  0.14894174455E+04  0.14894174455E+04  0.00000000000E+00 0. -1.
          2   -1    0    0  501    0  0.00000000000E+00 -0.00000000000E+00 -0.37477321046E+03  0.37477321046E+03  0.00000000000E+00 0.  1.
         23    2    1    2    0    0  0.67846744670E+03 -0.15572353146E+03  0.23107883880E+03  0.73935479954E+03  0.93167566171E+02 0.  0.
         13    1    3    3    0    0  0.73748323211E+02  0.60728018791E+01  0.64347623361E+01  0.74277185362E+02  0.00000000000E+00 0.  1.
        -13    1    3    3    0    0  0.60471912349E+03 -0.16179633334E+03  0.22464407646E+03  0.66507761418E+03  0.00000000000E+00 0. -1.
         22    1    1    2    0    0 -0.67846744670E+03  0.15572353146E+03  0.88356539626E+03  0.11248358564E+04  0.00000000000E+00 0. -1.
<mgrwt>
<rscale>  0 0.14942473E+04</rscale>
<asrwt>0</asrwt>
<pdfrwt beam="1">  1        2 0.57657418E-01 0.14942473E+04</pdfrwt>
<pdfrwt beam="2">  1       -2 0.22914114E+00 0.14942473E+04</pdfrwt>
<totfact> 0.71586685E+00</totfact>
</mgrwt>
</event>
<event>
 6    1  0.4630212E-004  0.3662522E+04  0.7818608E-02  0.8076319E-01
         -2   -1    0    0    0  501 -0.00000000000E+00  0.00000000000E+00  0.27831163761E+04  0.27831163761E+04  0.00000000000E+00 0. -1.
          2   -1    0    0  501    0  0.00000000000E+00 -0.00000000000E+00 -0.12049500400E+04  0.12049500400E+04  0.00000000000E+00 0.  1.
         23    2    1    2    0    0  0.16119918402E+04 -0.38431846654E+03 -0.55818618196E+02  0.16608094024E+04  0.94624396483E+02 0.  0.
         11    1    3    3    0    0  0.13440568555E+04 -0.35277375672E+03 -0.61830292603E+02  0.13909569149E+04  0.00000000000E+00 0.  1.
        -11    1    3    3    0    0  0.26793498474E+03 -0.31544709819E+02  0.60116744074E+01  0.26985248747E+03  0.00000000000E+00 0. -1.
         22    1    1    2    0    0 -0.16119918402E+04  0.38431846654E+03  0.16339849543E+04  0.23272570137E+04  0.00000000000E+00 0. -1.
<mgrwt>
<rscale>  0 0.36625216E+04</rscale>
<asrwt>0</asrwt>
<pdfrwt beam="1">  1        2 0.18537693E+00 0.36625216E+04</pdfrwt>
<pdfrwt beam="2">  1       -2 0.42817175E+00 0.36625216E+04</pdfrwt>
<totfact> 0.73792246E-02</totfact>
</mgrwt>
</event>
<event>
 6    1  0.4630212E-004  0.1375608E+04  0.7818608E-02  0.8971667E-01
          2   -1    0    0  501    0  0.00000000000E+00  0.00000000000E+00  0.18144532361E+03  0.18144532361E+03  0.00000000000E+00 0. -1.
         -2   -1    0    0    0  501 -0.00000000000E+00 -0.00000000000E+00 -0.26072546352E+04  0.26072546352E+04  0.00000000000E+00 0.  1.
         23    2    1    2    0    0  0.17705015251E+03  0.27885610775E+03 -0.24342543662E+04  0.24582777981E+04  0.91803745319E+02 0.  0.
         13    1    3    3    0    0  0.91308762697E+02  0.20131502679E+03 -0.18057533910E+04  0.18192334483E+04  0.00000000000E+00 0. -1.
        -13    1    3    3    0    0  0.85741389813E+02  0.77541080965E+02 -0.62850097521E+03  0.63904434980E+03  0.00000000000E+00 0.  1.
         22    1    1    2    0    0 -0.17705015251E+03 -0.27885610775E+03  0.84450546760E+01  0.33042216070E+03  0.00000000000E+00 0. -1.
<mgrwt>
<rscale>  0 0.13756077E+04</rscale>
<asrwt>0</asrwt>
<pdfrwt beam="1">  1        2 0.27914664E-01 0.13756077E+04</pdfrwt>
<pdfrwt beam="2">  1       -2 0.40111612E+00 0.13756077E+04</pdfrwt>
<totfact> 0.13932014E+00</totfact>
</mgrwt>
</event>
<event>
 6    1  0.4630212E-004  0.1562112E+04  0.7818608E-02  0.8844168E-01
          2   -1    0    0  501    0  0.00000000000E+00  0.00000000000E+00  0.12661088907E+04  0.12661088907E+04  0.00000000000E+00 0.  1.
         -2   -1    0    0    0  501 -0.00000000000E+00 -0.00000000000E+00 -0.48182967726E+03  0.48182967726E+03  0.00000000000E+00 0. -1.
         23    2    1    2    0    0  0.35781419343E+03 -0.25020904958E+03  0.11145071252E+04  0.12005026911E+04  0.91896755000E+02 0.  0.
         13    1    3    3    0    0  0.10249915018E+03 -0.25050297509E+02  0.24683643896E+03  0.26844332883E+03  0.00000000000E+00 0.  1.
        -13    1    3    3    0    0  0.25531504324E+03 -0.22515875207E+03  0.86767068626E+03  0.93205936224E+03  0.00000000000E+00 0. -1.
         22    1    1    2    0    0 -0.35781419343E+03  0.25020904958E+03 -0.33022791182E+03  0.54743587684E+03  0.00000000000E+00 0. -1.
<mgrwt>
<rscale>  0 0.15621125E+04</rscale>
<asrwt>0</asrwt>
<pdfrwt beam="1">  1        2 0.19478598E+00 0.15621125E+04</pdfrwt>
<pdfrwt beam="2">  1       -2 0.74127643E-01 0.15621125E+04</pdfrwt>
<totfact> 0.27274532E+01</totfact>
</mgrwt>
</event>
<event>
 6    1  0.4630212E-004  0.2003137E+04  0.7818608E-02  0.8605155E-01
          2   -1    0    0  501    0  0.00000000000E+00  0.00000000000E+00  0.22181495289E+04  0.22181495289E+04  0.00000000000E+00 0.  1.
         -2   -1    0    0    0  501 -0.00000000000E+00 -0.00000000000E+00 -0.45224153612E+03  0.45224153612E+03  0.00000000000E+00 0. -1.
         23    2    1    2    0    0  0.53010699054E+03 -0.16789755100E+03  0.19918099431E+04  0.20701955134E+04  0.95914572063E+02 0.  0.
         11    1    3    3    0    0  0.34797118296E+03 -0.65988528861E+02  0.13221939526E+04  0.13688079772E+04  0.00000000000E+00 0. -1.
        -11    1    3    3    0    0  0.18213580758E+03 -0.10190902214E+03  0.66961599047E+03  0.70138753617E+03  0.00000000000E+00 0.  1.
         22    1    1    2    0    0 -0.53010699054E+03  0.16789755100E+03 -0.22590195031E+03  0.60019555164E+03  0.00000000000E+00 0. -1.
<mgrwt>
<rscale>  0 0.20031369E+04</rscale>
<asrwt>0</asrwt>
<pdfrwt beam="1">  1        2 0.34125377E+00 0.20031369E+04</pdfrwt>
<pdfrwt beam="2">  1       -2 0.69575622E-01 0.20031369E+04</pdfrwt>
<totfact> 0.88253201E+00</totfact>
</mgrwt>
</event>
<event>
 6    1  0.4630212E-004  0.1724023E+04  0.7818608E-02  0.8747781E-01
         -2   -1    0    0    0  501 -0.00000000000E+00  0.00000000000E+00  0.54330172216E+03  0.54330172216E+03  0.00000000000E+00 0. -1.
          2   -1    0    0  501    0  0.00000000000E+00 -0.00000000000E+00 -0.13676812396E+04  0.13676812396E+04  0.00000000000E+00 0.  1.
         23    2    1    2    0    0 -0.69752426913E+03  0.38627497390E+03 -0.57797507015E+02  0.80491043242E+03  0.93764550412E+02 0.  0.
         13    1    3    3    0    0 -0.66742012201E+03  0.36405590237E+03 -0.74579348801E+02  0.76390339610E+03  0.00000000000E+00 0. -1.
        -13    1    3    3    0    0 -0.30104147119E+02  0.22219071538E+02  0.16781841786E+02  0.41007036317E+02  0.00000000000E+00 0.  1.
         22    1    1    2    0    0  0.69752426913E+03 -0.38627497390E+03 -0.76658201048E+03  0.11060725294E+04  0.00000000000E+00 0.  1.
<mgrwt>
<rscale>  0 0.17240227E+04</rscale>
<asrwt>0</asrwt>
<pdfrwt beam="1">  1        2 0.21041250E+00 0.17240227E+04</pdfrwt>
<pdfrwt beam="2">  1       -2 0.83584880E-01 0.17240227E+04</pdfrwt>
<totfact> 0.17957406E+01</totfact>
</mgrwt>
</event>
<event>
 6    1  0.4630212E-004  0.2090016E+04  0.7818608E-02  0.8565654E-01
         -2   -1    0    0    0  501 -0.00000000000E+00  0.00000000000E+00  0.94589597764E+03  0.94589597764E+03  0.00000000000E+00 0. -1.
          2   -1    0    0  501    0  0.00000000000E+00 -0.00000000000E+00 -0.11545054642E+04  0.11545054642E+04  0.00000000000E+00 0.  1.
         23    2    1    2    0    0 -0.91857339659E+02  0.64976991856E+03  0.71016219006E+03  0.97133983517E+03  0.92368941199E+02 0.  0.
         11    1    3    3    0    0 -0.60819520227E+01  0.13608573048E+03  0.99107174046E+02  0.16845933672E+03  0.00000000000E+00 0.  1.
        -11    1    3    3    0    0 -0.85775387636E+02  0.51368418807E+03  0.61105501601E+03  0.80288049845E+03  0.00000000000E+00 0. -1.
         22    1    1    2    0    0  0.91857339659E+02 -0.64976991856E+03 -0.91877167661E+03  0.11290616067E+04  0.00000000000E+00 0.  1.
<mgrwt>
<rscale>  0 0.20900163E+04</rscale>
<asrwt>0</asrwt>
<pdfrwt beam="1">  1        2 0.17761622E+00 0.20900163E+04</pdfrwt>
<pdfrwt beam="2">  1       -2 0.14552246E+00 0.20900163E+04</pdfrwt>
<totfact> 0.60401953E+00</totfact>
</mgrwt>
</event>
<event>
 6    1  0.4630212E-004  0.1268908E+04  0.7818608E-02  0.9054591E-01
         -2   -1    0    0    0  501 -0.00000000000E+00  0.00000000000E+00  0.28635242049E+03  0.28635242049E+03  0.00000000000E+00 0. -1.
          2   -1    0    0  501    0  0.00000000000E+00 -0.00000000000E+00 -0.14057227321E+04  0.14057227321E+04  0.00000000000E+00 0.  1.
         23    2    1    2    0    0 -0.32204131395E+03  0.14782737056E+03  0.13395820541E+03  0.38961750993E+03  0.91068457017E+02 0.  0.
         11    1    3    3    0    0 -0.16604693168E+03  0.12496798859E+03  0.85010473566E+02  0.22453365518E+03  0.00000000000E+00 0. -1.
        -11    1    3    3    0    0 -0.15599438227E+03  0.22859381973E+02  0.48947731845E+02  0.16508385475E+03  0.00000000000E+00 0.  1.
         22    1    1    2    0    0  0.32204131395E+03 -0.14782737056E+03 -0.12533285170E+04  0.13024576427E+04  0.00000000000E+00 0.  1.
<mgrwt>
<rscale>  0 0.12689084E+04</rscale>
<asrwt>0</asrwt>
<pdfrwt beam="1">  1        2 0.21626503E+00 0.12689084E+04</pdfrwt>
<pdfrwt beam="2">  1       -2 0.44054219E-01 0.12689084E+04</pdfrwt>
<totfact> 0.68900878E+01</totfact>
</mgrwt>
</event>
<event>
 6    1  0.4630212E-004  0.3158225E+04  0.7818608E-02  0.8199938E-01
         -2   -1    0    0    0  501 -0.00000000000E+00  0.00000000000E+00  0.14674265813E+04  0.14674265813E+04  0.00000000000E+00 0. -1.
          2   -1    0    0  501    0  0.00000000000E+00 -0.00000000000E+00 -0.16992983896E+04  0.16992983896E+04  0.00000000000E+00 0.  1.
         23    2    1    2    0    0 -0.42087791202E+03  0.11020171408E+04 -0.11667192077E+04  0.16615606425E+04  0.89275213575E+02 0.  0.
         11    1    3    3    0    0 -0.17124466909E+03  0.43889480121E+03 -0.52784428325E+03  0.70751181657E+03  0.00000000000E+00 0. -1.
        -11    1    3    3    0    0 -0.24963324292E+03  0.66312233956E+03 -0.63887492441E+03  0.95404882592E+03  0.00000000000E+00 0.  1.
         22    1    1    2    0    0  0.42087791202E+03 -0.11020171408E+04  0.93484739941E+03  0.15051643284E+04  0.00000000000E+00 0. -1.
<mgrwt>
<rscale>  0 0.31582246E+04</rscale>
<asrwt>0</asrwt>
<pdfrwt beam="1">  1        2 0.26143052E+00 0.31582246E+04</pdfrwt>
<pdfrwt beam="2">  1       -2 0.22575794E+00 0.31582246E+04</pdfrwt>
<totfact> 0.75398142E-01</totfact>
</mgrwt>
</event>
<event>
 6    1  0.4630212E-004  0.3711718E+04  0.7818608E-02  0.8065370E-01
          2   -1    0    0  501    0  0.00000000000E+00  0.00000000000E+00  0.21993681504E+04  0.21993681504E+04  0.00000000000E+00 0.  1.
         -2   -1    0    0    0  501 -0.00000000000E+00 -0.00000000000E+00 -0.15660011923E+04  0.15660011923E+04  0.00000000000E+00 0. -1.
         23    2    1    2    0    0 -0.11489126094E+03  0.13286425732E+04  0.16245340331E+04  0.21037727432E+04  0.90872663040E+02 0.  0.
         13    1    3    3    0    0 -0.79407049287E+01  0.32433493099E+03  0.44904661322E+03  0.55398471378E+03  0.00000000000E+00 0.  1.
        -13    1    3    3    0    0 -0.10695055601E+03  0.10043076423E+04  0.11754874199E+04  0.15497880294E+04  0.00000000000E+00 0. -1.
         22    1    1    2    0    0  0.11489126094E+03 -0.13286425732E+04 -0.99116707502E+03  0.16615965996E+04  0.00000000000E+00 0. -1.
<mgrwt>
<rscale>  0 0.37117183E+04</rscale>
<asrwt>0</asrwt>
<pdfrwt beam="1">  1        2 0.33836433E+00 0.37117183E+04</pdfrwt>
<pdfrwt beam="2">  1       -2 0.24092326E+00 0.37117183E+04</pdfrwt>
<totfact> 0.30515335E-01</totfact>
</mgrwt>
</event>
<event>
 6    1  0.4630212E-004  0.3339123E+04  0.7818608E-02  0.8153011E-01
          2   -1    0    0  501    0  0.00000000000E+00  0.00000000000E+00  0.17691901701E+04  0.17691901701E+04  0.00000000000E+00 0.  1.
         -2   -1    0    0    0  501 -0.00000000000E+00 -0.00000000000E+00 -0.15755435102E+04  0.15755435102E+04  0.00000000000E+00 0. -1.
         23    2    1    2    0    0  0.11836599552E+04  0.99527855190E+03  0.72395399531E+03  0.17098464808E+04  0.88517314928E+02 0.  0.
         13    1    3    3    0    0  0.38066643097E+03  0.32096046921E+03  0.18785305247E+03  0.53217602707E+03  0.00000000000E+00 0. -1.
        -13    1    3    3    0    0  0.80299352421E+03  0.67431808269E+03  0.53610094284E+03  0.11776704537E+04  0.00000000000E+00 0.  1.
         22    1    1    2    0    0 -0.11836599552E+04 -0.99527855190E+03 -0.53030733543E+03  0.16348871996E+04  0.00000000000E+00 0. -1.
<mgrwt>
<rscale>  0 0.33391233E+04</rscale>
<asrwt>0</asrwt>
<pdfrwt beam="1">  1        2 0.27218311E+00 0.33391233E+04</pdfrwt>
<pdfrwt beam="2">  1       -2 0.24239131E+00 0.33391233E+04</pdfrwt>
<totfact> 0.53502266E-01</totfact>
</mgrwt>
</event>
<event>
 6    1  0.4630212E-004  0.5569039E+03  0.7818608E-02  0.9999085E-01
          4   -1    0    0  501    0  0.00000000000E+00  0.00000000000E+00  0.15956204357E+03  0.15956204357E+03  0.00000000000E+00 0.  1.
         -4   -1    0    0    0  501 -0.00000000000E+00 -0.00000000000E+00 -0.48592686873E+03  0.48592686873E+03  0.00000000000E+00 0. -1.
         23    2    1    2    0    0 -0.10835775196E+03 -0.75773808520E+02  0.10690939850E+03  0.19248822206E+03  0.90216537717E+02 0.  0.
         13    1    3    3    0    0 -0.98715513339E+01 -0.57217440830E+02  0.25698390037E+02  0.63495592850E+02  0.00000000000E+00 0. -1.
        -13    1    3    3    0    0 -0.98486200625E+02 -0.18556367690E+02  0.81211008460E+02  0.12899262921E+03  0.00000000000E+00 0.  1.
         22    1    1    2    0    0  0.10835775196E+03  0.75773808520E+02 -0.43327422365E+03  0.45300069023E+03  0.00000000000E+00 0. -1.
<mgrwt>
<rscale>  0 0.55690388E+03</rscale>
<asrwt>0</asrwt>
<pdfrwt beam="1">  1        4 0.24548007E-01 0.55690388E+03</pdfrwt>
<pdfrwt beam="2">  1       -4 0.74757978E-01 0.55690388E+03</pdfrwt>
<totfact> 0.50083902E+01</totfact>
</mgrwt>
</event>
<event>
 6    1  0.4630212E-004  0.2746672E+04  0.7818608E-02  0.8320018E-01
          2   -1    0    0  501    0  0.00000000000E+00  0.00000000000E+00  0.26054829866E+04  0.26054829866E+04  0.00000000000E+00 0.  1.
         -2   -1    0    0    0  501 -0.00000000000E+00 -0.00000000000E+00 -0.72387793698E+03  0.72387793698E+03  0.00000000000E+00 0. -1.
         23    2    1    2    0    0  0.10319273543E+04  0.51834575927E+03  0.44090793153E+02  0.11591040186E+04  0.89564151384E+02 0.  0.
         13    1    3    3    0    0  0.75325947484E+03  0.33301028756E+03  0.29586120167E+02  0.82411833286E+03  0.00000000000E+00 0. -1.
        -13    1    3    3    0    0  0.27866787948E+03  0.18533547172E+03  0.14504672987E+02  0.33498568577E+03  0.00000000000E+00 0.  1.
         22    1    1    2    0    0 -0.10319273543E+04 -0.51834575927E+03  0.18375142564E+04  0.21702569049E+04  0.00000000000E+00 0.  1.
<mgrwt>
<rscale>  0 0.27466719E+04</rscale>
<asrwt>0</asrwt>
<pdfrwt beam="1">  1        2 0.40084353E+00 0.27466719E+04</pdfrwt>
<pdfrwt beam="2">  1       -2 0.11136584E+00 0.27466719E+04</pdfrwt>
<totfact> 0.16828673E+00</totfact>
</mgrwt>
</event>
<event>
 6    1  0.4630212E-004  0.2997027E+04  0.7818608E-02  0.8244580E-01
         -2   -1    0    0    0  501 -0.00000000000E+00  0.00000000000E+00  0.16406738384E+04  0.16406738384E+04  0.00000000000E+00 0. -1.
          2   -1    0    0  501    0  0.00000000000E+00 -0.00000000000E+00 -0.13686706921E+04  0.13686706921E+04  0.00000000000E+00 0.  1.
         23    2    1    2    0    0 -0.10922259570E+04 -0.65732878130E+03  0.92446025492E+03  0.15773043962E+04  0.90684768933E+02 0.  0.
         13    1    3    3    0    0 -0.37200729721E+03 -0.19884662757E+03  0.35181915416E+03  0.54927782379E+03  0.00000000000E+00 0. -1.
        -13    1    3    3    0    0 -0.72021865980E+03 -0.45848215373E+03  0.57264110077E+03  0.10280265724E+04  0.00000000000E+00 0.  1.
         22    1    1    2    0    0  0.10922259570E+04  0.65732878130E+03 -0.65245710858E+03  0.14320401344E+04  0.00000000000E+00 0.  1.
<mgrwt>
<rscale>  0 0.29970267E+04</rscale>
<asrwt>0</asrwt>
<pdfrwt beam="1">  1        2 0.21056472E+00 0.29970267E+04</pdfrwt>
<pdfrwt beam="2">  1       -2 0.25241136E+00 0.29970267E+04</pdfrwt>
<totfact> 0.80204853E-01</totfact>
</mgrwt>
</event>
<event>
 6    1  0.4630212E-004  0.2803742E+04  0.7818608E-02  0.8302108E-01
          2   -1    0    0  501    0  0.00000000000E+00  0.00000000000E+00  0.16436477344E+04  0.16436477344E+04  0.00000000000E+00 0.  1.
         -2   -1    0    0    0  501 -0.00000000000E+00 -0.00000000000E+00 -0.11956589707E+04  0.11956589707E+04  0.00000000000E+00 0. -1.
         23    2    1    2    0    0  0.39852133516E+03  0.85042466223E+03 -0.82774392605E+03  0.12551554319E+04  0.90629964694E+02 0.  0.
         11    1    3    3    0    0  0.15891408631E+03  0.24179416373E+03 -0.26213257084E+03  0.39042488284E+03  0.00000000000E+00 0. -1.
        -11    1    3    3    0    0  0.23960724885E+03  0.60863049851E+03 -0.56561135521E+03  0.86473054910E+03  0.00000000000E+00 0.  1.
         22    1    1    2    0    0 -0.39852133516E+03 -0.85042466223E+03  0.12757326898E+04  0.15841512732E+04  0.00000000000E+00 0.  1.
<mgrwt>
<rscale>  0 0.28037419E+04</rscale>
<asrwt>0</asrwt>
<pdfrwt beam="1">  1        2 0.25286888E+00 0.28037419E+04</pdfrwt>
<pdfrwt beam="2">  1       -2 0.18394754E+00 0.28037419E+04</pdfrwt>
<totfact> 0.15624393E+00</totfact>
</mgrwt>
</event>
<event>
 6    1  0.4630212E-004  0.1592785E+04  0.7818608E-02  0.8824992E-01
          2   -1    0    0  501    0  0.00000000000E+00  0.00000000000E+00  0.82000819872E+03  0.82000819872E+03  0.00000000000E+00 0.  1.
         -2   -1    0    0    0  501 -0.00000000000E+00 -0.00000000000E+00 -0.77345735315E+03  0.77345735315E+03  0.00000000000E+00 0. -1.
         23    2    1    2    0    0  0.35836614937E+03  0.13139021502E+03 -0.67294466763E+03  0.77899426378E+03  0.91037638863E+02 0.  0.
         13    1    3    3    0    0  0.15480366694E+03  0.10505563211E+03 -0.32744639900E+03  0.37712332910E+03  0.00000000000E+00 0.  1.
        -13    1    3    3    0    0  0.20356248242E+03  0.26334582910E+02 -0.34549826863E+03  0.40187093467E+03  0.00000000000E+00 0. -1.
         22    1    1    2    0    0 -0.35836614937E+03 -0.13139021502E+03  0.71949551320E+03  0.81447128809E+03  0.00000000000E+00 0.  1.
<mgrwt>
<rscale>  0 0.15927854E+04</rscale>
<asrwt>0</asrwt>
<pdfrwt beam="1">  1        2 0.12615511E+00 0.15927854E+04</pdfrwt>
<pdfrwt beam="2">  1       -2 0.11899344E+00 0.15927854E+04</pdfrwt>
<totfact> 0.17336627E+01</totfact>
</mgrwt>
</event>
<event>
 6    1  0.4630212E-004  0.1438788E+04  0.7818608E-02  0.8926211E-01
          2   -1    0    0  501    0  0.00000000000E+00  0.00000000000E+00  0.33928077079E+03  0.33928077079E+03  0.00000000000E+00 0.  1.
         -2   -1    0    0    0  501 -0.00000000000E+00 -0.00000000000E+00 -0.15253661078E+04  0.15253661078E+04  0.00000000000E+00 0. -1.
         23    2    1    2    0    0  0.62364583312E+03  0.31788460209E+03 -0.78899078369E+03  0.10598681328E+04  0.10406371457E+03 0.  0.
         13    1    3    3    0    0  0.47226008297E+03  0.19099254927E+03 -0.58978041442E+03  0.77932578366E+03  0.00000000000E+00 0. -1.
        -13    1    3    3    0    0  0.15138575015E+03  0.12689205282E+03 -0.19921036927E+03  0.28054234911E+03  0.00000000000E+00 0.  1.
         22    1    1    2    0    0 -0.62364583312E+03 -0.31788460209E+03 -0.39709455330E+03  0.80477874579E+03  0.00000000000E+00 0. -1.
<mgrwt>
<rscale>  0 0.14387875E+04</rscale>
<asrwt>0</asrwt>
<pdfrwt beam="1">  1        2 0.52197041E-01 0.14387875E+04</pdfrwt>
<pdfrwt beam="2">  1       -2 0.23467171E+00 0.14387875E+04</pdfrwt>
<totfact> 0.74251712E+00</totfact>
</mgrwt>
</event>
<event>
 6    1  0.4630212E-004  0.3435965E+04  0.7818608E-02  0.8129135E-01
          2   -1    0    0  501    0  0.00000000000E+00  0.00000000000E+00  0.27196411607E+04  0.27196411607E+04  0.00000000000E+00 0.  1.
         -2   -1    0    0    0  501 -0.00000000000E+00 -0.00000000000E+00 -0.10852401818E+04  0.10852401818E+04  0.00000000000E+00 0. -1.
         23    2    1    2    0    0 -0.11364084588E+04  0.10604973003E+04  0.16249270029E+04  0.22504784136E+04  0.90479921441E+02 0.  0.
         11    1    3    3    0    0 -0.77269988234E+03  0.77734077544E+03  0.11491482272E+04  0.15880382355E+04  0.00000000000E+00 0. -1.
        -11    1    3    3    0    0 -0.36370857649E+03  0.28315652481E+03  0.47577877575E+03  0.66244017814E+03  0.00000000000E+00 0.  1.
         22    1    1    2    0    0  0.11364084588E+04 -0.10604973003E+04  0.94739760414E+01  0.15544029289E+04  0.00000000000E+00 0. -1.
<mgrwt>
<rscale>  0 0.34359650E+04</rscale>
<asrwt>0</asrwt>
<pdfrwt beam="1">  1        2 0.41840633E+00 0.34359650E+04</pdfrwt>
<pdfrwt beam="2">  1       -2 0.16696003E+00 0.34359650E+04</pdfrwt>
<totfact> 0.47827262E-01</totfact>
</mgrwt>
</event>
<event>
 6    1  0.4630212E-004  0.1782175E+04  0.7818608E-02  0.8715837E-01
          2   -1    0    0  501    0  0.00000000000E+00  0.00000000000E+00  0.98604619362E+03  0.98604619362E+03  0.00000000000E+00 0.  1.
         -2   -1    0    0    0  501 -0.00000000000E+00 -0.00000000000E+00 -0.80527321962E+03  0.80527321962E+03  0.00000000000E+00 0. -1.
         23    2    1    2    0    0 -0.82298191754E+03  0.15200251825E+02 -0.24616027904E+03  0.86406416962E+03  0.92096264832E+02 0.  0.
         11    1    3    3    0    0 -0.40067961531E+03  0.42559240718E+02 -0.15108565734E+03  0.43032815263E+03  0.00000000000E+00 0. -1.
        -11    1    3    3    0    0 -0.42230230224E+03 -0.27358988894E+02 -0.95074621700E+02  0.43373601699E+03  0.00000000000E+00 0.  1.
         22    1    1    2    0    0  0.82298191754E+03 -0.15200251825E+02  0.42693325305E+03  0.92725524362E+03  0.00000000000E+00 0.  1.
<mgrwt>
<rscale>  0 0.17821746E+04</rscale>
<asrwt>0</asrwt>
<pdfrwt beam="1">  1        2 0.15169941E+00 0.17821746E+04</pdfrwt>
<pdfrwt beam="2">  1       -2 0.12388819E+00 0.17821746E+04</pdfrwt>
<totfact> 0.11922126E+01</totfact>
</mgrwt>
</event>
<event>
 6    1  0.4630212E-004  0.1710674E+04  0.7818608E-02  0.8755300E-01
          2   -1    0    0  501    0  0.00000000000E+00  0.00000000000E+00  0.25588371646E+04  0.25588371646E+04  0.00000000000E+00 0.  1.
         -2   -1    0    0    0  501 -0.00000000000E+00 -0.00000000000E+00 -0.28591165256E+03  0.28591165256E+03  0.00000000000E+00 0. -1.
         23    2    1    2    0    0 -0.40590047787E+03 -0.11267623585E+03 -0.93094024067E+02  0.44152190792E+03  0.93935966444E+02 0.  0.
         13    1    3    3    0    0 -0.27700607161E+03 -0.10394620139E+03 -0.99564525100E+02  0.31217025988E+03  0.00000000000E+00 0. -1.
        -13    1    3    3    0    0 -0.12889440626E+03 -0.87300344563E+01  0.64705010333E+01  0.12935164804E+03  0.00000000000E+00 0.  1.
         22    1    1    2    0    0  0.40590047787E+03  0.11267623585E+03  0.23660195361E+04  0.24032269093E+04  0.00000000000E+00 0.  1.
<mgrwt>
<rscale>  0 0.17106740E+04</rscale>
<asrwt>0</asrwt>
<pdfrwt beam="1">  1        2 0.39366724E+00 0.17106740E+04</pdfrwt>
<pdfrwt beam="2">  1       -2 0.43986410E-01 0.17106740E+04</pdfrwt>
<totfact> 0.15019459E+01</totfact>
</mgrwt>
</event>
<event>
 6    1  0.4630212E-004  0.1993772E+04  0.7818608E-02  0.8609538E-01
         -2   -1    0    0    0  501 -0.00000000000E+00  0.00000000000E+00  0.20368713287E+03  0.20368713287E+03  0.00000000000E+00 0. -1.
          2   -1    0    0  501    0  0.00000000000E+00 -0.00000000000E+00 -0.48789620957E+04  0.48789620957E+04  0.00000000000E+00 0.  1.
         23    2    1    2    0    0  0.30042308322E+03 -0.55522285752E+03 -0.43025568441E+04  0.43495426562E+04  0.89439760724E+02 0.  0.
         13    1    3    3    0    0  0.89252441548E+02 -0.20156084363E+03 -0.12449976156E+04  0.12643622245E+04  0.00000000000E+00 0. -1.
        -13    1    3    3    0    0  0.21117064167E+03 -0.35366201389E+03 -0.30575592285E+04  0.30851804317E+04  0.00000000000E+00 0.  1.
         22    1    1    2    0    0 -0.30042308322E+03  0.55522285752E+03 -0.37271811872E+03  0.73310657238E+03  0.00000000000E+00 0. -1.
<mgrwt>
<rscale>  0 0.19937721E+04</rscale>
<asrwt>0</asrwt>
<pdfrwt beam="1">  1        2 0.75060955E+00 0.19937721E+04</pdfrwt>
<pdfrwt beam="2">  1       -2 0.31336482E-01 0.19937721E+04</pdfrwt>
<totfact> 0.43371841E-01</totfact>
</mgrwt>
</event>
<event>
 6    1  0.4630212E-004  0.2315605E+04  0.7818608E-02  0.8471793E-01
         -2   -1    0    0    0  501 -0.00000000000E+00  0.00000000000E+00  0.36390659770E+03  0.36390659770E+03  0.00000000000E+00 0. -1.
          2   -1    0    0  501    0  0.00000000000E+00 -0.00000000000E+00 -0.36836570808E+04  0.36836570808E+04  0.00000000000E+00 0.  1.
         23    2    1    2    0    0 -0.78667668509E+03 -0.27967837182E+03 -0.26552977461E+03  0.88128126300E+03  0.95238672770E+02 0.  0.
         11    1    3    3    0    0 -0.35678025386E+03 -0.80821303316E+02 -0.13535240123E+03  0.39005705369E+03  0.00000000000E+00 0.  1.
        -11    1    3    3    0    0 -0.42989643123E+03 -0.19885706850E+03 -0.13017737338E+03  0.49122420932E+03  0.00000000000E+00 0. -1.
         22    1    1    2    0    0  0.78667668509E+03  0.27967837182E+03 -0.30542207085E+04  0.31662824155E+04  0.00000000000E+00 0.  1.
<mgrwt>
<rscale>  0 0.23156054E+04</rscale>
<asrwt>0</asrwt>
<pdfrwt beam="1">  1        2 0.56671649E+00 0.23156054E+04</pdfrwt>
<pdfrwt beam="2">  1       -2 0.55985628E-01 0.23156054E+04</pdfrwt>
<totfact> 0.16337379E+00</totfact>
</mgrwt>
</event>
<event>
 6    1  0.4630212E-004  0.1609641E+04  0.7818608E-02  0.8814647E-01
          2   -1    0    0  501    0  0.00000000000E+00  0.00000000000E+00  0.15513998463E+04  0.15513998463E+04  0.00000000000E+00 0.  1.
         -2   -1    0    0    0  501 -0.00000000000E+00 -0.00000000000E+00 -0.41751716853E+03  0.41751716853E+03  0.00000000000E+00 0. -1.
         23    2    1    2    0    0 -0.43810893645E+03  0.44097744069E+03 -0.51730296226E+02  0.63023158969E+03  0.90084902797E+02 0.  0.
         11    1    3    3    0    0 -0.27963246825E+02  0.65893517277E+02  0.37195804015E+01  0.71677988745E+02  0.00000000000E+00 0. -1.
        -11    1    3    3    0    0 -0.41014568962E+03  0.37508392341E+03 -0.55449876627E+02  0.55855360095E+03  0.00000000000E+00 0.  1.
         22    1    1    2    0    0  0.43810893645E+03 -0.44097744069E+03  0.11856129740E+04  0.13386854251E+04  0.00000000000E+00 0.  1.
<mgrwt>
<rscale>  0 0.16096410E+04</rscale>
<asrwt>0</asrwt>
<pdfrwt beam="1">  1        2 0.23867690E+00 0.16096410E+04</pdfrwt>
<pdfrwt beam="2">  1       -2 0.64233411E-01 0.16096410E+04</pdfrwt>
<totfact> 0.25479920E+01</totfact>
</mgrwt>
</event>
<event>
 6    1  0.4630212E-004  0.2389895E+04  0.7818608E-02  0.8443297E-01
          2   -1    0    0  501    0  0.00000000000E+00  0.00000000000E+00  0.81443277561E+03  0.81443277561E+03  0.00000000000E+00 0.  1.
         -2   -1    0    0    0  501 -0.00000000000E+00 -0.00000000000E+00 -0.17532434905E+04  0.17532434905E+04  0.00000000000E+00 0. -1.
         23    2    1    2    0    0  0.58605315059E+03 -0.64584135540E+03  0.40486075840E+03  0.96579537797E+03  0.90989706914E+02 0.  0.
         11    1    3    3    0    0  0.32581661387E+03 -0.29178750738E+03  0.20761571422E+03  0.48414946053E+03  0.00000000000E+00 0. -1.
        -11    1    3    3    0    0  0.26023653672E+03 -0.35405384801E+03  0.19724504417E+03  0.48164591744E+03  0.00000000000E+00 0.  1.
         22    1    1    2    0    0 -0.58605315059E+03  0.64584135540E+03 -0.13436714733E+04  0.16018808882E+04  0.00000000000E+00 0. -1.
<mgrwt>
<rscale>  0 0.23898945E+04</rscale>
<asrwt>0</asrwt>
<pdfrwt beam="1">  1        2 0.12529735E+00 0.23898945E+04</pdfrwt>
<pdfrwt beam="2">  1       -2 0.26972977E+00 0.23898945E+04</pdfrwt>
<totfact> 0.14725415E+00</totfact>
</mgrwt>
</event>
<event>
 6    1  0.4630212E-004  0.2700860E+04  0.7818608E-02  0.8334726E-01
         -1   -1    0    0    0  501 -0.00000000000E+00  0.00000000000E+00  0.66842984537E+03  0.66842984537E+03  0.00000000000E+00 0. -1.
          1   -1    0    0  501    0  0.00000000000E+00 -0.00000000000E+00 -0.27282753877E+04  0.27282753877E+04  0.00000000000E+00 0.  1.
         23    2    1    2    0    0  0.10695520566E+04 -0.37214506774E+02 -0.20637239720E+04  0.23264989149E+04  0.91181395807E+02 0.  0.
         13    1    3    3    0    0  0.11337182015E+03  0.14461622738E+02 -0.26958584464E+03  0.29281194608E+03  0.00000000000E+00 0.  1.
        -13    1    3    3    0    0  0.95618023646E+03 -0.51676129512E+02 -0.17941381273E+04  0.20336869688E+04  0.00000000000E+00 0. -1.
         22    1    1    2    0    0 -0.10695520566E+04  0.37214506774E+02  0.38784296674E+01  0.10702063182E+04  0.00000000000E+00 0. -1.
<mgrwt>
<rscale>  0 0.27008596E+04</rscale>
<asrwt>0</asrwt>
<pdfrwt beam="1">  1        1 0.41973467E+00 0.27008596E+04</pdfrwt>
<pdfrwt beam="2">  1       -1 0.10283536E+00 0.27008596E+04</pdfrwt>
<totfact> 0.73084870E-01</totfact>
</mgrwt>
</event>
<event>
 6    1  0.4630212E-004  0.4556908E+03  0.7818608E-02  0.1026038E+00
          2   -1    0    0  501    0  0.00000000000E+00  0.00000000000E+00  0.31781600506E+03  0.31781600506E+03  0.00000000000E+00 0.  1.
         -2   -1    0    0    0  501 -0.00000000000E+00 -0.00000000000E+00 -0.16334457044E+03  0.16334457044E+03  0.00000000000E+00 0. -1.
         23    2    1    2    0    0  0.21674819867E+03  0.58950446094E+01  0.49718811006E+02  0.24035433528E+03  0.91014906144E+02 0.  0.
         13    1    3    3    0    0  0.78360554927E+02  0.19731377584E+02 -0.22174269508E+02  0.83793806800E+02  0.00000000000E+00 0. -1.
        -13    1    3    3    0    0  0.13838764375E+03 -0.13836332974E+02  0.71893080514E+02  0.15656052848E+03  0.00000000000E+00 0.  1.
         22    1    1    2    0    0 -0.21674819867E+03 -0.58950446094E+01  0.10475262361E+03  0.24080624023E+03  0.00000000000E+00 0.  1.
<mgrwt>
<rscale>  0 0.45569077E+03</rscale>
<asrwt>0</asrwt>
<pdfrwt beam="1">  1        2 0.48894770E-01 0.45569077E+03</pdfrwt>
<pdfrwt beam="2">  1       -2 0.25129934E-01 0.45569077E+03</pdfrwt>
<totfact> 0.14561034E+03</totfact>
</mgrwt>
</event>
<event>
 6    1  0.4630212E-004  0.2578346E+04  0.7818608E-02  0.8375594E-01
         -2   -1    0    0    0  501 -0.00000000000E+00  0.00000000000E+00  0.55986668634E+03  0.55986668634E+03  0.00000000000E+00 0. -1.
          2   -1    0    0  501    0  0.00000000000E+00 -0.00000000000E+00 -0.29685060287E+04  0.29685060287E+04  0.00000000000E+00 0.  1.
         23    2    1    2    0    0 -0.13873877957E+03  0.10494723629E+04 -0.22087431548E+04  0.24510616294E+04  0.92282707878E+02 0.  0.
         13    1    3    3    0    0 -0.69906192176E+02  0.82164529722E+03 -0.17174735997E+04  0.19051780588E+04  0.00000000000E+00 0. -1.
        -13    1    3    3    0    0 -0.68832587395E+02  0.22782706567E+03 -0.49126955504E+03  0.54588357060E+03  0.00000000000E+00 0.  1.
         22    1    1    2    0    0  0.13873877957E+03 -0.10494723629E+04 -0.19989618764E+03  0.10773110856E+04  0.00000000000E+00 0. -1.
<mgrwt>
<rscale>  0 0.25783465E+04</rscale>
<asrwt>0</asrwt>
<pdfrwt beam="1">  1        2 0.45669323E+00 0.25783465E+04</pdfrwt>
<pdfrwt beam="2">  1       -2 0.86133338E-01 0.25783465E+04</pdfrwt>
<totfact> 0.18872721E+00</totfact>
</mgrwt>
</event>
<event>
 6    1  0.4630212E-004  0.1862352E+04  0.7818608E-02  0.8673826E-01
          2   -1    0    0  501    0  0.00000000000E+00  0.00000000000E+00  0.27938206919E+04  0.27938206919E+04  0.00000000000E+00 0.  1.
         -2   -1    0    0    0  501 -0.00000000000E+00 -0.00000000000E+00 -0.31035964574E+03  0.31035964574E+03  0.00000000000E+00 0. -1.
         23    2    1    2    0    0  0.66189691545E+03  0.43252668352E+03  0.43213105850E+03  0.90573962275E+03  0.91870309931E+02 0.  0.
         11    1    3    3    0    0  0.48214142180E+03  0.27046472818E+03  0.27779946046E+03  0.61869545015E+03  0.00000000000E+00 0.  1.
        -11    1    3    3    0    0  0.17975549366E+03  0.16206195534E+03  0.15433159804E+03  0.28704417260E+03  0.00000000000E+00 0. -1.
         22    1    1    2    0    0 -0.66189691545E+03 -0.43252668352E+03  0.20513299877E+04  0.21984407149E+04  0.00000000000E+00 0.  1.
<mgrwt>
<rscale>  0 0.18623525E+04</rscale>
<asrwt>0</asrwt>
<pdfrwt beam="1">  1        2 0.42981855E+00 0.18623525E+04</pdfrwt>
<pdfrwt beam="2">  1       -2 0.47747640E-01 0.18623525E+04</pdfrwt>
<totfact> 0.91262199E+00</totfact>
</mgrwt>
</event>
<event>
 6    1  0.4630212E-004  0.3177130E+04  0.7818608E-02  0.8194883E-01
          2   -1    0    0  501    0  0.00000000000E+00  0.00000000000E+00  0.13317280881E+04  0.13317280881E+04  0.00000000000E+00 0.  1.
         -2   -1    0    0    0  501 -0.00000000000E+00 -0.00000000000E+00 -0.18949354194E+04  0.18949354194E+04  0.00000000000E+00 0. -1.
         23    2    1    2    0    0  0.26607112780E+03 -0.13578089305E+04 -0.10717093353E+04  0.17525491209E+04  0.91807326116E+02 0.  0.
         11    1    3    3    0    0  0.15591669429E+03 -0.56086591022E+03 -0.45463819570E+03  0.73863148714E+03  0.00000000000E+00 0. -1.
        -11    1    3    3    0    0  0.11015443351E+03 -0.79694302026E+03 -0.61707113964E+03  0.10139176338E+04  0.00000000000E+00 0.  1.
         22    1    1    2    0    0 -0.26607112780E+03  0.13578089305E+04  0.50850200402E+03  0.14741143866E+04  0.00000000000E+00 0. -1.
<mgrwt>
<rscale>  0 0.31771300E+04</rscale>
<asrwt>0</asrwt>
<pdfrwt beam="1">  1        2 0.20488124E+00 0.31771300E+04</pdfrwt>
<pdfrwt beam="2">  1       -2 0.29152853E+00 0.31771300E+04</pdfrwt>
<totfact> 0.47862066E-01</totfact>
</mgrwt>
</event>
<event>
 6    1  0.4630212E-004  0.4179377E+04  0.7818608E-02  0.7969307E-01
         -2   -1    0    0    0  501 -0.00000000000E+00  0.00000000000E+00  0.11260860225E+04  0.11260860225E+04  0.00000000000E+00 0. -1.
          2   -1    0    0  501    0  0.00000000000E+00 -0.00000000000E+00 -0.38778547831E+04  0.38778547831E+04  0.00000000000E+00 0.  1.
         23    2    1    2    0    0  0.14580169997E+04 -0.60998519246E+02 -0.31659973292E+04  0.34869966083E+04  0.77922184471E+02 0.  0.
         11    1    3    3    0    0  0.33052904711E+03 -0.16768619348E+01 -0.79134856515E+03  0.85760411287E+03  0.00000000000E+00 0. -1.
        -11    1    3    3    0    0  0.11274879526E+04 -0.59321657312E+02 -0.23746487641E+04  0.26293924954E+04  0.00000000000E+00 0.  1.
         22    1    1    2    0    0 -0.14580169997E+04  0.60998519246E+02  0.41422856862E+03  0.15169441973E+04  0.00000000000E+00 0. -1.
<mgrwt>
<rscale>  0 0.41793770E+04</rscale>
<asrwt>0</asrwt>
<pdfrwt beam="1">  1        2 0.59659304E+00 0.41793770E+04</pdfrwt>
<pdfrwt beam="2">  1       -2 0.17324401E+00 0.41793770E+04</pdfrwt>
<totfact> 0.67022341E-02</totfact>
</mgrwt>
</event>
<event>
 6    1  0.4630212E-004  0.1518794E+04  0.7818608E-02  0.8872051E-01
          2   -1    0    0  501    0  0.00000000000E+00  0.00000000000E+00  0.20833824291E+04  0.20833824291E+04  0.00000000000E+00 0.  1.
         -2   -1    0    0    0  501 -0.00000000000E+00 -0.00000000000E+00 -0.27680154388E+03  0.27680154388E+03  0.00000000000E+00 0. -1.
         23    2    1    2    0    0 -0.54801809923E+03 -0.47953915674E+03  0.12267577310E+04  0.14293367621E+04  0.88246296570E+02 0.  0.
         11    1    3    3    0    0 -0.30132291368E+03 -0.27999430092E+03  0.77332185241E+03  0.87591038027E+03  0.00000000000E+00 0. -1.
        -11    1    3    3    0    0 -0.24669518555E+03 -0.19954485581E+03  0.45343587860E+03  0.55342638179E+03  0.00000000000E+00 0.  1.
         22    1    1    2    0    0  0.54801809923E+03  0.47953915674E+03  0.57982315423E+03  0.93084721094E+03  0.00000000000E+00 0.  1.
<mgrwt>
<rscale>  0 0.15187936E+04</rscale>
<asrwt>0</asrwt>
<pdfrwt beam="1">  1        2 0.32052036E+00 0.15187936E+04</pdfrwt>
<pdfrwt beam="2">  1       -2 0.42584854E-01 0.15187936E+04</pdfrwt>
<totfact> 0.30293348E+01</totfact>
</mgrwt>
</event>
<event>
 6    1  0.4630212E-004  0.2302850E+04  0.7818608E-02  0.8476798E-01
         -2   -1    0    0    0  501 -0.00000000000E+00  0.00000000000E+00  0.93738473147E+03  0.93738473147E+03  0.00000000000E+00 0. -1.
          2   -1    0    0  501    0  0.00000000000E+00 -0.00000000000E+00 -0.14143391528E+04  0.14143391528E+04  0.00000000000E+00 0.  1.
         23    2    1    2    0    0  0.15204524641E+03 -0.11174580569E+04 -0.46613029473E+03  0.12239174170E+04  0.94160108868E+02 0.  0.
         11    1    3    3    0    0  0.55592526699E+02 -0.16232572342E+03 -0.76751438173E+02  0.18796529672E+03  0.00000000000E+00 0. -1.
        -11    1    3    3    0    0  0.96452719712E+02 -0.95513233348E+03 -0.38937885655E+03  0.10359521203E+04  0.00000000000E+00 0.  1.
         22    1    1    2    0    0 -0.15204524641E+03  0.11174580569E+04 -0.10824126603E+02  0.11278064673E+04  0.00000000000E+00 0. -1.
<mgrwt>
<rscale>  0 0.23028503E+04</rscale>
<asrwt>0</asrwt>
<pdfrwt beam="1">  1        2 0.21759064E+00 0.23028503E+04</pdfrwt>
<pdfrwt beam="2">  1       -2 0.14421303E+00 0.23028503E+04</pdfrwt>
<totfact> 0.42788400E+00</totfact>
</mgrwt>
</event>
<event>
 6    1  0.4630212E-004  0.7706615E+03  0.7818608E-02  0.9603482E-01
         -2   -1    0    0    0  501 -0.00000000000E+00  0.00000000000E+00  0.18279669393E+03  0.18279669393E+03  0.00000000000E+00 0. -1.
          2   -1    0    0  501    0  0.00000000000E+00 -0.00000000000E+00 -0.81226733567E+03  0.81226733567E+03  0.00000000000E+00 0.  1.
         23    2    1    2    0    0  0.23096064268E+03  0.26421867900E+03 -0.50676236336E+03  0.62329575449E+03  0.92386015417E+02 0.  0.
         13    1    3    3    0    0  0.19349299547E+03  0.17685044680E+03 -0.41700888993E+03  0.49255663036E+03  0.00000000000E+00 0.  1.
        -13    1    3    3    0    0  0.37467647205E+02  0.87368232204E+02 -0.89753473436E+02  0.13073912413E+03  0.00000000000E+00 0. -1.
         22    1    1    2    0    0 -0.23096064268E+03 -0.26421867900E+03 -0.12270827838E+03  0.37176827511E+03  0.00000000000E+00 0. -1.
<mgrwt>
<rscale>  0 0.77066149E+03</rscale>
<asrwt>0</asrwt>
<pdfrwt beam="1">  1        2 0.12496421E+00 0.77066149E+03</pdfrwt>
<pdfrwt beam="2">  1       -2 0.28122568E-01 0.77066149E+03</pdfrwt>
<totfact> 0.39210652E+02</totfact>
</mgrwt>
</event>
<event>
 6    1  0.4630212E-004  0.4282788E+04  0.7818608E-02  0.7949808E-01
         -2   -1    0    0    0  501 -0.00000000000E+00  0.00000000000E+00  0.24602160080E+04  0.24602160080E+04  0.00000000000E+00 0.  1.
          2   -1    0    0  501    0  0.00000000000E+00 -0.00000000000E+00 -0.18638885315E+04  0.18638885315E+04  0.00000000000E+00 0. -1.
         23    2    1    2    0    0 -0.68064614507E+03  0.13980917383E+04  0.17833546220E+04  0.23678394430E+04  0.91488996440E+02 0.  0.
         13    1    3    3    0    0 -0.10020399281E+03  0.15519874905E+03  0.18290427529E+03  0.25996435486E+03  0.00000000000E+00 0.  1.
        -13    1    3    3    0    0 -0.58044215226E+03  0.12428929892E+04  0.16004503468E+04  0.21078750881E+04  0.00000000000E+00 0. -1.
         22    1    1    2    0    0  0.68064614507E+03 -0.13980917383E+04 -0.11870271455E+04  0.19562650965E+04  0.00000000000E+00 0. -1.
<mgrwt>
<rscale>  0 0.42827881E+04</rscale>
<asrwt>0</asrwt>
<pdfrwt beam="1">  1        2 0.28675208E+00 0.42827881E+04</pdfrwt>
<pdfrwt beam="2">  1       -2 0.37849477E+00 0.42827881E+04</pdfrwt>
<totfact> 0.62770608E-02</totfact>
</mgrwt>
</event>
<event>
 6    1  0.4630212E-004  0.1845297E+04  0.7818608E-02  0.8682575E-01
          2   -1    0    0  501    0  0.00000000000E+00  0.00000000000E+00  0.28284287288E+04  0.28284287288E+04  0.00000000000E+00 0.  1.
         -2   -1    0    0    0  501 -0.00000000000E+00 -0.00000000000E+00 -0.30097299069E+03  0.30097299069E+03  0.00000000000E+00 0. -1.
         23    2    1    2    0    0  0.29252723635E+03 -0.84965201806E+03  0.92791873164E+03  0.12947357088E+04  0.88468340511E+02 0.  0.
         11    1    3    3    0    0  0.20092307232E+03 -0.46324957813E+03  0.49085262903E+03  0.70420633060E+03  0.00000000000E+00 0.  1.
        -11    1    3    3    0    0  0.91604164036E+02 -0.38640243993E+03  0.43706610261E+03  0.59052937819E+03  0.00000000000E+00 0. -1.
         22    1    1    2    0    0 -0.29252723635E+03  0.84965201806E+03  0.15995370065E+04  0.18346660107E+04  0.00000000000E+00 0. -1.
<mgrwt>
<rscale>  0 0.18452974E+04</rscale>
<asrwt>0</asrwt>
<pdfrwt beam="1">  1        2 0.43514286E+00 0.18452974E+04</pdfrwt>
<pdfrwt beam="2">  1       -2 0.46303539E-01 0.18452974E+04</pdfrwt>
<totfact> 0.92669460E+00</totfact>
</mgrwt>
</event>
<event>
 6    1  0.4630212E-004  0.2807894E+04  0.7818608E-02  0.8300822E-01
         -2   -1    0    0    0  501 -0.00000000000E+00  0.00000000000E+00  0.85682121212E+03  0.85682121212E+03  0.00000000000E+00 0. -1.
          2   -1    0    0  501    0  0.00000000000E+00 -0.00000000000E+00 -0.23004423811E+04  0.23004423811E+04  0.00000000000E+00 0.  1.
         23    2    1    2    0    0 -0.10440682538E+04 -0.67078898621E+03  0.12218002652E+02  0.12442805624E+04  0.89713186412E+02 0.  0.
         13    1    3    3    0    0 -0.56597854382E+03 -0.39535015579E+03 -0.28917464492E+02  0.69099180712E+03  0.00000000000E+00 0.  1.
        -13    1    3    3    0    0 -0.47808970995E+03 -0.27543883043E+03  0.41135467144E+02  0.55328875529E+03  0.00000000000E+00 0. -1.
         22    1    1    2    0    0  0.10440682538E+04  0.67078898621E+03 -0.14558391716E+04  0.19129830308E+04  0.00000000000E+00 0.  1.
<mgrwt>
<rscale>  0 0.28078945E+04</rscale>
<asrwt>0</asrwt>
<pdfrwt beam="1">  1        2 0.35391420E+00 0.28078945E+04</pdfrwt>
<pdfrwt beam="2">  1       -2 0.13181865E+00 0.28078945E+04</pdfrwt>
<totfact> 0.16517159E+00</totfact>
</mgrwt>
</event>
<event>
 6    1  0.4630212E-004  0.2497202E+04  0.7818608E-02  0.8403983E-01
         -2   -1    0    0    0  501 -0.00000000000E+00  0.00000000000E+00  0.36127835641E+03  0.36127835641E+03  0.00000000000E+00 0. -1.
          2   -1    0    0  501    0  0.00000000000E+00 -0.00000000000E+00 -0.43152459983E+04  0.43152459983E+04  0.00000000000E+00 0.  1.
         23    2    1    2    0    0 -0.16480317851E+03 -0.10129532679E+04 -0.33059481855E+04  0.34627848331E+04  0.91383721637E+02 0.  0.
         11    1    3    3    0    0 -0.73773182959E+01 -0.30258797584E+03 -0.98756696238E+03  0.10329096830E+04  0.00000000000E+00 0.  1.
        -11    1    3    3    0    0 -0.15742586021E+03 -0.71036529202E+03 -0.23183812231E+04  0.24298751502E+04  0.00000000000E+00 0. -1.
         22    1    1    2    0    0  0.16480317851E+03  0.10129532679E+04 -0.64801945640E+03  0.12137395216E+04  0.00000000000E+00 0. -1.
<mgrwt>
<rscale>  0 0.24972024E+04</rscale>
<asrwt>0</asrwt>
<pdfrwt beam="1">  1        2 0.66388398E+00 0.24972024E+04</pdfrwt>
<pdfrwt beam="2">  1       -2 0.55581287E-01 0.24972024E+04</pdfrwt>
<totfact> 0.50108854E-01</totfact>
</mgrwt>
</event>
<event>
 6    1  0.4630212E-004  0.2428966E+04  0.7818608E-02  0.8428738E-01
          2   -1    0    0  501    0  0.00000000000E+00  0.00000000000E+00  0.99422378003E+03  0.99422378003E+03  0.00000000000E+00 0.  1.
         -2   -1    0    0    0  501 -0.00000000000E+00 -0.00000000000E+00 -0.14835382424E+04  0.14835382424E+04  0.00000000000E+00 0. -1.
         23    2    1    2    0    0  0.87238373871E+03 -0.42756503090E+03  0.49548214221E+03  0.10944003215E+04  0.91346960658E+02 0.  0.
         11    1    3    3    0    0  0.36435124098E+03 -0.14896974102E+03  0.16021607748E+03  0.42498588450E+03  0.00000000000E+00 0.  1.
        -11    1    3    3    0    0  0.50803249773E+03 -0.27859528988E+03  0.33526606473E+03  0.66941443699E+03  0.00000000000E+00 0. -1.
         22    1    1    2    0    0 -0.87238373871E+03  0.42756503090E+03 -0.98479660453E+03  0.13833617009E+04  0.00000000000E+00 0. -1.
<mgrwt>
<rscale>  0 0.24289660E+04</rscale>
<asrwt>0</asrwt>
<pdfrwt beam="1">  1        2 0.15295750E+00 0.24289660E+04</pdfrwt>
<pdfrwt beam="2">  1       -2 0.22823665E+00 0.24289660E+04</pdfrwt>
<totfact> 0.19984674E+00</totfact>
</mgrwt>
</event>
<event>
 6    1  0.5211686E-004  0.2439891E+04  0.7818608E-02  0.8424718E-01
          2   -1    0    0  501    0  0.00000000000E+00  0.00000000000E+00  0.22146316596E+04  0.22146316596E+04  0.00000000000E+00 0.  1.
         -2   -1    0    0    0  501 -0.00000000000E+00 -0.00000000000E+00 -0.67201537817E+03  0.67201537817E+03  0.00000000000E+00 0. -1.
         23    2    1    2    0    0  0.96739144267E+03  0.54576042079E+03  0.13644027416E+04  0.17617200597E+04  0.91444448503E+02 0.  0.
         11    1    3    3    0    0  0.55647341662E+03  0.35248394751E+03  0.76003352173E+03  0.10057626712E+04  0.00000000000E+00 0.  1.
        -11    1    3    3    0    0  0.41091802605E+03  0.19327647328E+03  0.60436921987E+03  0.75595738847E+03  0.00000000000E+00 0. -1.
         22    1    1    2    0    0 -0.96739144267E+03 -0.54576042079E+03  0.17821353983E+03  0.11249269781E+04  0.00000000000E+00 0. -1.
<mgrwt>
<rscale>  0 0.24398906E+04</rscale>
<asrwt>0</asrwt>
<pdfrwt beam="1">  1        2 0.34071256E+00 0.24398906E+04</pdfrwt>
<pdfrwt beam="2">  1       -2 0.10338698E+00 0.24398906E+04</pdfrwt>
<totfact> 0.34640878E+00</totfact>
</mgrwt>
</event>
<event>
 6    1  0.4630212E-004  0.4534895E+04  0.7818608E-02  0.7904556E-01
          2   -1    0    0  501    0  0.00000000000E+00  0.00000000000E+00  0.34157745417E+04  0.34157745417E+04  0.00000000000E+00 0.  1.
         -2   -1    0    0    0  501 -0.00000000000E+00 -0.00000000000E+00 -0.15051688612E+04  0.15051688612E+04  0.00000000000E+00 0. -1.
         23    2    1    2    0    0  0.64171734115E+03 -0.18958128928E+04 -0.19854030317E+03  0.20132975422E+04  0.89672018761E+02 0.  0.
         11    1    3    3    0    0  0.31685747850E+03 -0.10747473094E+04 -0.10868961634E+03  0.11257414772E+04  0.00000000000E+00 0. -1.
        -11    1    3    3    0    0  0.32485986265E+03 -0.82106558343E+03 -0.89850686831E+02  0.88755606503E+03  0.00000000000E+00 0.  1.
         22    1    1    2    0    0 -0.64171734115E+03  0.18958128928E+04  0.21091459838E+04  0.29076458607E+04  0.00000000000E+00 0.  1.
<mgrwt>
<rscale>  0 0.45348947E+04</rscale>
<asrwt>0</asrwt>
<pdfrwt beam="1">  1        2 0.52550378E+00 0.45348947E+04</pdfrwt>
<pdfrwt beam="2">  1       -2 0.23156444E+00 0.45348947E+04</pdfrwt>
<totfact> 0.58643410E-02</totfact>
</mgrwt>
</event>
<event>
 6    1  0.4630212E-004  0.1177170E+04  0.7818608E-02  0.9133077E-01
         -2   -1    0    0    0  501 -0.00000000000E+00  0.00000000000E+00  0.93971174739E+02  0.93971174739E+02  0.00000000000E+00 0. -1.
          2   -1    0    0  501    0  0.00000000000E+00 -0.00000000000E+00 -0.36865834393E+04  0.36865834393E+04  0.00000000000E+00 0.  1.
         23    2    1    2    0    0 -0.12574803427E+03  0.56929452271E+03 -0.16288163533E+04  0.17320421775E+04  0.83776906340E+02 0.  0.
         13    1    3    3    0    0 -0.10674408990E+03  0.52645283530E+03 -0.15488385496E+04  0.16393436922E+04  0.00000000000E+00 0. -1.
        -13    1    3    3    0    0 -0.19003944377E+02  0.42841687409E+02 -0.79977803780E+02  0.92698485313E+02  0.00000000000E+00 0.  1.
         22    1    1    2    0    0  0.12574803427E+03 -0.56929452271E+03 -0.19637959112E+04  0.20485124365E+04  0.00000000000E+00 0. -1.
<mgrwt>
<rscale>  0 0.11771705E+04</rscale>
<asrwt>0</asrwt>
<pdfrwt beam="1">  1        2 0.56716665E+00 0.11771705E+04</pdfrwt>
<pdfrwt beam="2">  1       -2 0.14457105E-01 0.11771705E+04</pdfrwt>
<totfact> 0.22775999E+01</totfact>
</mgrwt>
</event>
<event>
 6    1  0.4630212E-004  0.4273286E+04  0.7818608E-02  0.7951576E-01
          2   -1    0    0  501    0  0.00000000000E+00  0.00000000000E+00  0.33072536536E+04  0.33072536536E+04  0.00000000000E+00 0.  1.
         -2   -1    0    0    0  501 -0.00000000000E+00 -0.00000000000E+00 -0.13803727711E+04  0.13803727711E+04  0.00000000000E+00 0. -1.
         23    2    1    2    0    0 -0.17093382837E+04 -0.11899313190E+04  0.44546870962E+03  0.21317790235E+04  0.90914914791E+02 0.  0.
         13    1    3    3    0    0 -0.65889867553E+03 -0.40640551873E+03  0.17505719333E+03  0.79369889203E+03  0.00000000000E+00 0.  1.
        -13    1    3    3    0    0 -0.10504396081E+04 -0.78352580028E+03  0.27041151629E+03  0.13380801315E+04  0.00000000000E+00 0. -1.
         22    1    1    2    0    0  0.17093382837E+04  0.11899313190E+04  0.14814121729E+04  0.25558474012E+04  0.00000000000E+00 0.  1.
<mgrwt>
<rscale>  0 0.42732858E+04</rscale>
<asrwt>0</asrwt>
<pdfrwt beam="1">  1        2 0.50880825E+00 0.42732858E+04</pdfrwt>
<pdfrwt beam="2">  1       -2 0.21236504E+00 0.42732858E+04</pdfrwt>
<totfact> 0.93863590E-02</totfact>
</mgrwt>
</event>
<event>
 6    1  0.4630212E-004  0.5555698E+04  0.7818608E-02  0.7748071E-01
          2   -1    0    0  501    0  0.00000000000E+00  0.00000000000E+00  0.32014447476E+04  0.32014447476E+04  0.00000000000E+00 0.  1.
         -2   -1    0    0    0  501 -0.00000000000E+00 -0.00000000000E+00 -0.24103007736E+04  0.24103007736E+04  0.00000000000E+00 0. -1.
         23    2    1    2    0    0  0.99700886222E+03  0.20387304566E+04 -0.12210223177E+04  0.25787170460E+04  0.91856175593E+02 0.  0.
         11    1    3    3    0    0  0.23828173733E+03  0.55957813243E+03 -0.29841102579E+03  0.67746218563E+03  0.00000000000E+00 0. -1.
        -11    1    3    3    0    0  0.75872712489E+03  0.14791523242E+04 -0.92261129190E+03  0.19012548604E+04  0.00000000000E+00 0.  1.
         22    1    1    2    0    0 -0.99700886222E+03 -0.20387304566E+04  0.20121662917E+04  0.30330284752E+04  0.00000000000E+00 0. -1.
<mgrwt>
<rscale>  0 0.55556979E+04</rscale>
<asrwt>0</asrwt>
<pdfrwt beam="1">  1        2 0.49252996E+00 0.55556979E+04</pdfrwt>
<pdfrwt beam="2">  1       -2 0.37081550E+00 0.55556979E+04</pdfrwt>
<totfact> 0.10335615E-02</totfact>
</mgrwt>
</event>
<event>
 6    1  0.4630212E-004  0.1108196E+04  0.7818608E-02  0.9197241E-01
          4   -1    0    0  501    0  0.00000000000E+00  0.00000000000E+00  0.41626649887E+03  0.41626649887E+03  0.00000000000E+00 0.  1.
         -4   -1    0    0    0  501 -0.00000000000E+00 -0.00000000000E+00 -0.73756681138E+03  0.73756681138E+03  0.00000000000E+00 0. -1.
         23    2    1    2    0    0  0.90966077253E+02  0.15514581142E+03 -0.70325897462E+03  0.73165151343E+03  0.91628061822E+02 0.  0.
         11    1    3    3    0    0  0.34353493808E+02  0.29794296424E+02 -0.34348996942E+03  0.34648697195E+03  0.00000000000E+00 0. -1.
        -11    1    3    3    0    0  0.56612583445E+02  0.12535151500E+03 -0.35976900520E+03  0.38516454148E+03  0.00000000000E+00 0.  1.
         22    1    1    2    0    0 -0.90966077253E+02 -0.15514581142E+03  0.38195866210E+03  0.42218179682E+03  0.00000000000E+00 0.  1.
<mgrwt>
<rscale>  0 0.11081956E+04</rscale>
<asrwt>0</asrwt>
<pdfrwt beam="1">  1        4 0.64041000E-01 0.11081956E+04</pdfrwt>
<pdfrwt beam="2">  1       -4 0.11347182E+00 0.11081956E+04</pdfrwt>
<totfact> 0.27345070E+00</totfact>
</mgrwt>
</event>
<event>
 6    1  0.4630212E-004  0.2536872E+04  0.7818608E-02  0.8389966E-01
         -2   -1    0    0    0  501 -0.00000000000E+00  0.00000000000E+00  0.11204474573E+04  0.11204474573E+04  0.00000000000E+00 0. -1.
          2   -1    0    0  501    0  0.00000000000E+00 -0.00000000000E+00 -0.14359708913E+04  0.14359708913E+04  0.00000000000E+00 0.  1.
         23    2    1    2    0    0  0.83272084157E+03 -0.72830204834E+03  0.46392098297E+03  0.12031329121E+04  0.91968755727E+02 0.  0.
         13    1    3    3    0    0  0.68344342304E+03 -0.62870838638E+03  0.36156669936E+03  0.99654384032E+03  0.00000000000E+00 0.  1.
        -13    1    3    3    0    0  0.14927741854E+03 -0.99593661954E+02  0.10235428360E+03  0.20658907173E+03  0.00000000000E+00 0. -1.
         22    1    1    2    0    0 -0.83272084157E+03  0.72830204834E+03 -0.77944441704E+03  0.13532854366E+04  0.00000000000E+00 0.  1.
<mgrwt>
<rscale>  0 0.25368720E+04</rscale>
<asrwt>0</asrwt>
<pdfrwt beam="1">  1        2 0.22091860E+00 0.25368720E+04</pdfrwt>
<pdfrwt beam="2">  1       -2 0.17237653E+00 0.25368720E+04</pdfrwt>
<totfact> 0.25163830E+00</totfact>
</mgrwt>
</event>
<event>
 6    1  0.4630212E-004  0.2734480E+04  0.7818608E-02  0.8323903E-01
          2   -1    0    0  501    0  0.00000000000E+00  0.00000000000E+00  0.20671355769E+04  0.20671355769E+04  0.00000000000E+00 0.  1.
         -2   -1    0    0    0  501 -0.00000000000E+00 -0.00000000000E+00 -0.90431683659E+03  0.90431683659E+03  0.00000000000E+00 0. -1.
         23    2    1    2    0    0 -0.44353100003E+02  0.53750975073E+03  0.19455110141E+04  0.20209309119E+04  0.90910477258E+02 0.  0.
         13    1    3    3    0    0 -0.16938041090E+02  0.36821502567E+03  0.11703215379E+04  0.12269970270E+04  0.00000000000E+00 0.  1.
        -13    1    3    3    0    0 -0.27415058913E+02  0.16929472505E+03  0.77518947624E+03  0.79393388482E+03  0.00000000000E+00 0. -1.
         22    1    1    2    0    0  0.44353100003E+02 -0.53750975073E+03 -0.78269227379E+03  0.95052150163E+03  0.00000000000E+00 0. -1.
<mgrwt>
<rscale>  0 0.27344802E+04</rscale>
<asrwt>0</asrwt>
<pdfrwt beam="1">  1        2 0.31802086E+00 0.27344802E+04</pdfrwt>
<pdfrwt beam="2">  1       -2 0.13912567E+00 0.27344802E+04</pdfrwt>
<totfact> 0.19576148E+00</totfact>
</mgrwt>
</event>
<event>
 6    1  0.4630212E-004  0.1507302E+04  0.7818608E-02  0.8879612E-01
          2   -1    0    0  501    0  0.00000000000E+00  0.00000000000E+00  0.69679193769E+03  0.69679193769E+03  0.00000000000E+00 0. -1.
         -2   -1    0    0    0  501 -0.00000000000E+00 -0.00000000000E+00 -0.81514996054E+03  0.81514996054E+03  0.00000000000E+00 0.  1.
         23    2    1    2    0    0 -0.37446715481E+03  0.49743022119E+03 -0.48050610075E+03  0.79165466018E+03  0.90379827064E+02 0.  0.
         11    1    3    3    0    0 -0.12208943119E+03  0.21272645158E+03 -0.22914887347E+03  0.33565991512E+03  0.00000000000E+00 0.  1.
        -11    1    3    3    0    0 -0.25237772362E+03  0.28470376961E+03 -0.25135722728E+03  0.45599474506E+03  0.00000000000E+00 0. -1.
         22    1    1    2    0    0  0.37446715481E+03 -0.49743022119E+03  0.36214807790E+03  0.72028723806E+03  0.00000000000E+00 0. -1.
<mgrwt>
<rscale>  0 0.15073021E+04</rscale>
<asrwt>0</asrwt>
<pdfrwt beam="1">  1        2 0.10719876E+00 0.15073021E+04</pdfrwt>
<pdfrwt beam="2">  1       -2 0.12540769E+00 0.15073021E+04</pdfrwt>
<totfact> 0.18922382E+01</totfact>
</mgrwt>
</event>
<event>
 6    1  0.4630212E-004  0.2789058E+04  0.7818608E-02  0.8306673E-01
         -2   -1    0    0    0  501 -0.00000000000E+00  0.00000000000E+00  0.98853624229E+03  0.98853624229E+03  0.00000000000E+00 0.  1.
          2   -1    0    0  501    0  0.00000000000E+00 -0.00000000000E+00 -0.19672637767E+04  0.19672637767E+04  0.00000000000E+00 0. -1.
         23    2    1    2    0    0 -0.27273915487E+02  0.40120403472E+03  0.92359943792E+03  0.10114347103E+04  0.90860924384E+02 0.  0.
         11    1    3    3    0    0 -0.22515074026E+02  0.40221431475E+03  0.88309300881E+03  0.97063718544E+03  0.00000000000E+00 0.  1.
        -11    1    3    3    0    0 -0.47588414618E+01 -0.10102800216E+01  0.40506429105E+02  0.40797524883E+02  0.00000000000E+00 0. -1.
         22    1    1    2    0    0  0.27273915487E+02 -0.40120403472E+03 -0.19023269723E+04  0.19443653086E+04  0.00000000000E+00 0. -1.
<mgrwt>
<rscale>  0 0.27890583E+04</rscale>
<asrwt>0</asrwt>
<pdfrwt beam="1">  1        2 0.30265597E+00 0.27890583E+04</pdfrwt>
<pdfrwt beam="2">  1       -2 0.15208250E+00 0.27890583E+04</pdfrwt>
<totfact> 0.17528048E+00</totfact>
</mgrwt>
</event>
<event>
 6    1  0.4630212E-004  0.2037922E+04  0.7818608E-02  0.8589093E-01
         -2   -1    0    0    0  501 -0.00000000000E+00  0.00000000000E+00  0.98974913655E+03  0.98974913655E+03  0.00000000000E+00 0. -1.
          2   -1    0    0  501    0  0.00000000000E+00 -0.00000000000E+00 -0.10490347400E+04  0.10490347400E+04  0.00000000000E+00 0.  1.
         23    2    1    2    0    0 -0.68976874637E+03  0.40635989999E+03 -0.65694971935E+03  0.10397284791E+04  0.92428809114E+02 0.  0.
         13    1    3    3    0    0 -0.24523096089E+03  0.12270173938E+03 -0.27702821067E+03  0.38979298420E+03  0.00000000000E+00 0. -1.
        -13    1    3    3    0    0 -0.44453778548E+03  0.28365816061E+03 -0.37992150869E+03  0.64993549492E+03  0.00000000000E+00 0.  1.
         22    1    1    2    0    0  0.68976874637E+03 -0.40635989999E+03  0.59766411588E+03  0.99905539746E+03  0.00000000000E+00 0. -1.
<mgrwt>
<rscale>  0 0.20379217E+04</rscale>
<asrwt>0</asrwt>
<pdfrwt beam="1">  1        2 0.16138996E+00 0.20379217E+04</pdfrwt>
<pdfrwt beam="2">  1       -2 0.15226910E+00 0.20379217E+04</pdfrwt>
<totfact> 0.62500960E+00</totfact>
</mgrwt>
</event>
<event>
 6    1  0.4630212E-004  0.2933688E+04  0.7818608E-02  0.8262924E-01
         -2   -1    0    0    0  501 -0.00000000000E+00  0.00000000000E+00  0.27856592227E+04  0.27856592227E+04  0.00000000000E+00 0. -1.
          2   -1    0    0  501    0  0.00000000000E+00 -0.00000000000E+00 -0.77239582978E+03  0.77239582978E+03  0.00000000000E+00 0.  1.
         23    2    1    2    0    0  0.14016048395E+04 -0.10194914404E+03  0.50365861191E+03  0.14955816953E+04  0.90569618645E+02 0.  0.
         13    1    3    3    0    0  0.20175601410E+03  0.78275300082E+01  0.48801507386E+02  0.20772180092E+03  0.00000000000E+00 0. -1.
        -13    1    3    3    0    0  0.11998488254E+04 -0.10977667405E+03  0.45485710452E+03  0.12878598944E+04  0.00000000000E+00 0.  1.
         22    1    1    2    0    0 -0.14016048395E+04  0.10194914404E+03  0.15096047810E+04  0.20624733572E+04  0.00000000000E+00 0. -1.
<mgrwt>
<rscale>  0 0.29336882E+04</rscale>
<asrwt>0</asrwt>
<pdfrwt beam="1">  1        2 0.11883013E+00 0.29336882E+04</pdfrwt>
<pdfrwt beam="2">  1       -2 0.42856295E+00 0.29336882E+04</pdfrwt>
<totfact> 0.14931909E-01</totfact>
</mgrwt>
</event>
<event>
 6    1  0.5583777E-004  0.3336928E+04  0.7818608E-02  0.8153562E-01
          2   -1    0    0  501    0  0.00000000000E+00  0.00000000000E+00  0.24203535877E+04  0.24203535877E+04  0.00000000000E+00 0.  1.
         -2   -1    0    0    0  501 -0.00000000000E+00 -0.00000000000E+00 -0.11501506649E+04  0.11501506649E+04  0.00000000000E+00 0. -1.
         23    2    1    2    0    0  0.60832864674E+03  0.98128816571E+03 -0.65189043059E+03  0.13283104461E+04  0.80357333827E+02 0.  0.
         11    1    3    3    0    0  0.42313917917E+03  0.71615509644E+03 -0.50496509356E+03  0.97309538732E+03  0.00000000000E+00 0.  1.
        -11    1    3    3    0    0  0.18518946757E+03  0.26513306927E+03 -0.14692533703E+03  0.35521505877E+03  0.00000000000E+00 0. -1.
         22    1    1    2    0    0 -0.60832864674E+03 -0.98128816571E+03  0.19220933534E+04  0.22421938065E+04  0.00000000000E+00 0.  1.
<mgrwt>
<rscale>  0 0.33369275E+04</rscale>
<asrwt>0</asrwt>
<pdfrwt beam="1">  1        2 0.37236209E+00 0.33369275E+04</pdfrwt>
<pdfrwt beam="2">  1       -2 0.17694626E+00 0.33369275E+04</pdfrwt>
<totfact> 0.61353019E-01</totfact>
</mgrwt>
</event>
<event>
 6    1  0.4630212E-004  0.1664663E+04  0.7818608E-02  0.8781779E-01
          2   -1    0    0  501    0  0.00000000000E+00  0.00000000000E+00  0.69628509233E+03  0.69628509233E+03  0.00000000000E+00 0.  1.
         -2   -1    0    0    0  501 -0.00000000000E+00 -0.00000000000E+00 -0.99495959780E+03  0.99495959780E+03  0.00000000000E+00 0. -1.
         23    2    1    2    0    0  0.48424827554E+03 -0.50905857085E+03 -0.59848670627E+03  0.92735701732E+03  0.90375212724E+02 0.  0.
         13    1    3    3    0    0  0.20284846802E+03 -0.24436595779E+03 -0.32213563192E+03  0.45236444119E+03  0.00000000000E+00 0. -1.
        -13    1    3    3    0    0  0.28139980753E+03 -0.26469261307E+03 -0.27635107435E+03  0.47499257613E+03  0.00000000000E+00 0.  1.
         22    1    1    2    0    0 -0.48424827554E+03  0.50905857085E+03  0.29981220080E+03  0.76388767281E+03  0.00000000000E+00 0.  1.
<mgrwt>
<rscale>  0 0.16646628E+04</rscale>
<asrwt>0</asrwt>
<pdfrwt beam="1">  1        2 0.10712078E+00 0.16646628E+04</pdfrwt>
<pdfrwt beam="2">  1       -2 0.15307071E+00 0.16646628E+04</pdfrwt>
<totfact> 0.11166913E+01</totfact>
</mgrwt>
</event>
<event>
 6    1  0.4630212E-004  0.1091164E+04  0.7818608E-02  0.9213847E-01
         -2   -1    0    0    0  501 -0.00000000000E+00  0.00000000000E+00  0.16046431701E+03  0.16046431701E+03  0.00000000000E+00 0. -1.
          2   -1    0    0  501    0  0.00000000000E+00 -0.00000000000E+00 -0.18549888913E+04  0.18549888913E+04  0.00000000000E+00 0.  1.
         23    2    1    2    0    0 -0.51934654267E+03  0.84392415060E+02 -0.10911823529E+04  0.12149129237E+04  0.92149736090E+02 0.  0.
         11    1    3    3    0    0 -0.64738460809E+02  0.35639694321E+02 -0.11115497041E+03  0.13347915030E+03  0.00000000000E+00 0.  1.
        -11    1    3    3    0    0 -0.45460808186E+03  0.48752720739E+02 -0.98002738251E+03  0.10814337734E+04  0.00000000000E+00 0. -1.
         22    1    1    2    0    0  0.51934654267E+03 -0.84392415060E+02 -0.60334222134E+03  0.80054028453E+03  0.00000000000E+00 0.  1.
<mgrwt>
<rscale>  0 0.10911636E+04</rscale>
<asrwt>0</asrwt>
<pdfrwt beam="1">  1        2 0.28538291E+00 0.10911636E+04</pdfrwt>
<pdfrwt beam="2">  1       -2 0.24686818E-01 0.10911636E+04</pdfrwt>
<totfact> 0.11739321E+02</totfact>
</mgrwt>
</event>
<event>
 6    1  0.4630212E-004  0.2971910E+04  0.7818608E-02  0.8251798E-01
         -2   -1    0    0    0  501 -0.00000000000E+00  0.00000000000E+00  0.13336599511E+04  0.13336599511E+04  0.00000000000E+00 0. -1.
          2   -1    0    0  501    0  0.00000000000E+00 -0.00000000000E+00 -0.16556414314E+04  0.16556414314E+04  0.00000000000E+00 0.  1.
         23    2    1    2    0    0 -0.64741800330E+03  0.61391821133E+03 -0.13547177294E+04  0.16245340758E+04  0.88347019431E+02 0.  0.
         11    1    3    3    0    0 -0.49857071167E+03  0.50842775205E+03 -0.10323052855E+04  0.12540836240E+04  0.00000000000E+00 0. -1.
        -11    1    3    3    0    0 -0.14884729163E+03  0.10549045928E+03 -0.32241244393E+03  0.37045045178E+03  0.00000000000E+00 0.  1.
         22    1    1    2    0    0  0.64741800330E+03 -0.61391821133E+03  0.10327362491E+04  0.13647673067E+04  0.00000000000E+00 0. -1.
<mgrwt>
<rscale>  0 0.29719103E+04</rscale>
<asrwt>0</asrwt>
<pdfrwt beam="1">  1        2 0.25471406E+00 0.29719103E+04</pdfrwt>
<pdfrwt beam="2">  1       -2 0.20517846E+00 0.29719103E+04</pdfrwt>
<totfact> 0.10959654E+00</totfact>
</mgrwt>
</event>
<event>
 6    1  0.4630212E-004  0.3862001E+04  0.7818608E-02  0.8032979E-01
          2   -1    0    0  501    0  0.00000000000E+00  0.00000000000E+00  0.17811771353E+04  0.17811771353E+04  0.00000000000E+00 0. -1.
         -2   -1    0    0    0  501 -0.00000000000E+00 -0.00000000000E+00 -0.20934261882E+04  0.20934261882E+04  0.00000000000E+00 0.  1.
         23    2    1    2    0    0 -0.10027560639E+04 -0.16040137958E+04  0.22743906889E+03  0.19074624415E+04  0.91128783827E+02 0.  0.
         13    1    3    3    0    0 -0.21426807026E+03 -0.29509907677E+03  0.69658814519E+02  0.37127701448E+03  0.00000000000E+00 0. -1.
        -13    1    3    3    0    0 -0.78848799361E+03 -0.13089147190E+04  0.15778025438E+03  0.15361854271E+04  0.00000000000E+00 0.  1.
         22    1    1    2    0    0  0.10027560639E+04  0.16040137958E+04 -0.53968812182E+03  0.19671408819E+04  0.00000000000E+00 0.  1.
<mgrwt>
<rscale>  0 0.38620010E+04</rscale>
<asrwt>0</asrwt>
<pdfrwt beam="1">  1        2 0.27402725E+00 0.38620010E+04</pdfrwt>
<pdfrwt beam="2">  1       -2 0.32206557E+00 0.38620010E+04</pdfrwt>
<totfact> 0.16392392E-01</totfact>
</mgrwt>
</event>
<event>
 6    1  0.4630212E-004  0.5402597E+03  0.7818608E-02  0.1003774E+00
         -1   -1    0    0    0  501 -0.00000000000E+00  0.00000000000E+00  0.20631807674E+03  0.20631807674E+03  0.00000000000E+00 0. -1.
          1   -1    0    0  501    0  0.00000000000E+00 -0.00000000000E+00 -0.35367781535E+03  0.35367781535E+03  0.00000000000E+00 0.  1.
         23    2    1    2    0    0 -0.10967484213E+03  0.11171609566E+03 -0.29678945512E+03  0.34357431924E+03  0.73825978810E+02 0.  0.
         13    1    3    3    0    0 -0.28158959912E+02  0.20540332437E+02 -0.14244782187E+03  0.14664997182E+03  0.00000000000E+00 0. -1.
        -13    1    3    3    0    0 -0.81515882216E+02  0.91175763220E+02 -0.15434163325E+03  0.19692434742E+03  0.00000000000E+00 0.  1.
         22    1    1    2    0    0  0.10967484213E+03 -0.11171609566E+03  0.14942971650E+03  0.21642157286E+03  0.00000000000E+00 0. -1.
<mgrwt>
<rscale>  0 0.54025967E+03</rscale>
<asrwt>0</asrwt>
<pdfrwt beam="1">  1        1 0.54411971E-01 0.54025967E+03</pdfrwt>
<pdfrwt beam="2">  1       -1 0.31741243E-01 0.54025967E+03</pdfrwt>
<totfact> 0.65782418E+02</totfact>
</mgrwt>
</event>
<event>
 6    1  0.5615838E-004  0.2123846E+04  0.7818608E-02  0.8550811E-01
          2   -1    0    0  501    0  0.00000000000E+00  0.00000000000E+00  0.20537487571E+04  0.20537487571E+04  0.00000000000E+00 0.  1.
         -2   -1    0    0    0  501 -0.00000000000E+00 -0.00000000000E+00 -0.54908390945E+03  0.54908390945E+03  0.00000000000E+00 0. -1.
         23    2    1    2    0    0 -0.32415262407E+03  0.76477601666E+03 -0.53264672508E+02  0.83730111227E+03  0.90987625139E+02 0.  0.
         13    1    3    3    0    0 -0.21879542329E+03  0.61102191445E+03 -0.49061866883E+02  0.65086579567E+03  0.00000000000E+00 0. -1.
        -13    1    3    3    0    0 -0.10535720078E+03  0.15375410221E+03 -0.42028056252E+01  0.18643531660E+03  0.00000000000E+00 0.  1.
         22    1    1    2    0    0  0.32415262407E+03 -0.76477601666E+03  0.15579295201E+04  0.17655315543E+04  0.00000000000E+00 0.  1.
<mgrwt>
<rscale>  0 0.21238459E+04</rscale>
<asrwt>0</asrwt>
<pdfrwt beam="1">  1        2 0.31596134E+00 0.21238459E+04</pdfrwt>
<pdfrwt beam="2">  1       -2 0.84474448E-01 0.21238459E+04</pdfrwt>
<totfact> 0.70085197E+00</totfact>
</mgrwt>
</event>
<event>
 6    1  0.4630212E-004  0.1794907E+04  0.7818608E-02  0.8709012E-01
         -2   -1    0    0    0  501 -0.00000000000E+00  0.00000000000E+00  0.72926909304E+03  0.72926909304E+03  0.00000000000E+00 0. -1.
          2   -1    0    0  501    0  0.00000000000E+00 -0.00000000000E+00 -0.11044249187E+04  0.11044249187E+04  0.00000000000E+00 0.  1.
         23    2    1    2    0    0 -0.68651997980E+03 -0.34640758742E+03  0.28008540530E+03  0.82342228093E+03  0.90931398273E+02 0.  0.
         13    1    3    3    0    0 -0.47164058397E+03 -0.28322262963E+03  0.20753171820E+03  0.58798751045E+03  0.00000000000E+00 0.  1.
        -13    1    3    3    0    0 -0.21487939582E+03 -0.63184957784E+02  0.72553687101E+02  0.23543477048E+03  0.00000000000E+00 0. -1.
         22    1    1    2    0    0  0.68651997980E+03  0.34640758742E+03 -0.65524123093E+03  0.10102717308E+04  0.00000000000E+00 0.  1.
<mgrwt>
<rscale>  0 0.17949072E+04</rscale>
<asrwt>0</asrwt>
<pdfrwt beam="1">  1        2 0.16991153E+00 0.17949072E+04</pdfrwt>
<pdfrwt beam="2">  1       -2 0.11219525E+00 0.17949072E+04</pdfrwt>
<totfact> 0.12806593E+01</totfact>
</mgrwt>
</event>
<event>
 6    1  0.4630212E-004  0.4640788E+04  0.7818608E-02  0.7886442E-01
          2   -1    0    0  501    0  0.00000000000E+00  0.00000000000E+00  0.35701026863E+04  0.35701026863E+04  0.00000000000E+00 0.  1.
         -2   -1    0    0    0  501 -0.00000000000E+00 -0.00000000000E+00 -0.15081436391E+04  0.15081436391E+04  0.00000000000E+00 0. -1.
         23    2    1    2    0    0 -0.22035951276E+04  0.13890418652E+03  0.25382156196E+03  0.22243915596E+04  0.91468932472E+02 0.  0.
         13    1    3    3    0    0 -0.15548188995E+04  0.66540506804E+02  0.20644084248E+03  0.15698749220E+04  0.00000000000E+00 0.  1.
        -13    1    3    3    0    0 -0.64877622805E+03  0.72363679720E+02  0.47380719483E+02  0.65451663753E+03  0.00000000000E+00 0. -1.
         22    1    1    2    0    0  0.22035951276E+04 -0.13890418652E+03  0.18081374852E+04  0.28538547658E+04  0.00000000000E+00 0.  1.
<mgrwt>
<rscale>  0 0.46407877E+04</rscale>
<asrwt>0</asrwt>
<pdfrwt beam="1">  1        2 0.54924656E+00 0.46407877E+04</pdfrwt>
<pdfrwt beam="2">  1       -2 0.23202210E+00 0.46407877E+04</pdfrwt>
<totfact> 0.45022822E-02</totfact>
</mgrwt>
</event>
<event>
 6    1  0.4630212E-004  0.5046952E+04  0.7818608E-02  0.7821305E-01
          2   -1    0    0  501    0  0.00000000000E+00  0.00000000000E+00  0.28301003481E+04  0.28301003481E+04  0.00000000000E+00 0.  1.
         -2   -1    0    0    0  501 -0.00000000000E+00 -0.00000000000E+00 -0.22500728357E+04  0.22500728357E+04  0.00000000000E+00 0. -1.
         23    2    1    2    0    0 -0.21021273259E+04 -0.99350666379E+03  0.12751503325E+04  0.26534077397E+04  0.92571469471E+02 0.  0.
         11    1    3    3    0    0 -0.20343963317E+03 -0.98256472563E+02  0.15594852426E+03  0.27452133062E+03  0.00000000000E+00 0. -1.
        -11    1    3    3    0    0 -0.18986876928E+04 -0.89525019123E+03  0.11192018083E+04  0.23788864091E+04  0.00000000000E+00 0.  1.
         22    1    1    2    0    0  0.21021273259E+04  0.99350666379E+03 -0.69512282015E+03  0.24267654441E+04  0.00000000000E+00 0.  1.
<mgrwt>
<rscale>  0 0.50469523E+04</rscale>
<asrwt>0</asrwt>
<pdfrwt beam="1">  1        2 0.43540005E+00 0.50469523E+04</pdfrwt>
<pdfrwt beam="2">  1       -2 0.34616505E+00 0.50469523E+04</pdfrwt>
<totfact> 0.26446830E-02</totfact>
</mgrwt>
</event>
<event>
 6    1  0.4630212E-004  0.2439090E+04  0.7818608E-02  0.8425012E-01
          1   -1    0    0  501    0  0.00000000000E+00  0.00000000000E+00  0.13660326932E+04  0.13660326932E+04  0.00000000000E+00 0.  1.
         -1   -1    0    0    0  501 -0.00000000000E+00 -0.00000000000E+00 -0.10887656931E+04  0.10887656931E+04  0.00000000000E+00 0. -1.
         23    2    1    2    0    0  0.36538169717E+03  0.40886396093E+03  0.12331479921E+04  0.13528083708E+04  0.93610866936E+02 0.  0.
         13    1    3    3    0    0  0.14820653130E+03  0.11181006070E+03  0.35323018952E+03  0.39904665439E+03  0.00000000000E+00 0.  1.
        -13    1    3    3    0    0  0.21717516587E+03  0.29705390023E+03  0.87991780262E+03  0.95376171641E+03  0.00000000000E+00 0. -1.
         22    1    1    2    0    0 -0.36538169717E+03 -0.40886396093E+03 -0.95588099211E+03  0.11019900155E+04  0.00000000000E+00 0. -1.
<mgrwt>
<rscale>  0 0.24390896E+04</rscale>
<asrwt>0</asrwt>
<pdfrwt beam="1">  1        1 0.21015888E+00 0.24390896E+04</pdfrwt>
<pdfrwt beam="2">  1       -1 0.16750241E+00 0.24390896E+04</pdfrwt>
<totfact> 0.18616334E+00</totfact>
</mgrwt>
</event>
<event>
 6    1  0.4630212E-004  0.2416133E+04  0.7818608E-02  0.8433488E-01
          1   -1    0    0  501    0  0.00000000000E+00  0.00000000000E+00  0.24504233989E+04  0.24504233989E+04  0.00000000000E+00 0.  1.
         -1   -1    0    0    0  501 -0.00000000000E+00 -0.00000000000E+00 -0.59558071252E+03  0.59558071252E+03  0.00000000000E+00 0. -1.
         23    2    1    2    0    0  0.18698503508E+03 -0.11446233053E+04  0.51091587947E+03  0.12708237891E+04  0.93979533563E+02 0.  0.
         11    1    3    3    0    0  0.97461360323E+02 -0.84918582585E+03  0.36683459721E+03  0.93015208718E+03  0.00000000000E+00 0.  1.
        -11    1    3    3    0    0  0.89523674754E+02 -0.29543747944E+03  0.14408128226E+03  0.34067170193E+03  0.00000000000E+00 0. -1.
         22    1    1    2    0    0 -0.18698503508E+03  0.11446233053E+04  0.13439268069E+04  0.17751803223E+04  0.00000000000E+00 0. -1.
<mgrwt>
<rscale>  0 0.24161332E+04</rscale>
<asrwt>0</asrwt>
<pdfrwt beam="1">  1        1 0.37698821E+00 0.24161332E+04</pdfrwt>
<pdfrwt beam="2">  1       -1 0.91627803E-01 0.24161332E+04</pdfrwt>
<totfact> 0.15228508E+00</totfact>
</mgrwt>
</event>
<event>
 6    1  0.4630212E-004  0.1535882E+04  0.7818608E-02  0.8860936E-01
          2   -1    0    0  501    0  0.00000000000E+00  0.00000000000E+00  0.31990872187E+04  0.31990872187E+04  0.00000000000E+00 0.  1.
         -2   -1    0    0    0  501 -0.00000000000E+00 -0.00000000000E+00 -0.18434433563E+03  0.18434433563E+03  0.00000000000E+00 0. -1.
         23    2    1    2    0    0 -0.23744787765E+03 -0.21216808405E+03  0.30455563762E+04  0.30635155312E+04  0.91197471271E+02 0.  0.
         11    1    3    3    0    0 -0.22128434672E+03 -0.19320451918E+03  0.24678914091E+04  0.24853134119E+04  0.00000000000E+00 0.  1.
        -11    1    3    3    0    0 -0.16163530932E+02 -0.18963564875E+02  0.57766496712E+03  0.57820211930E+03  0.00000000000E+00 0. -1.
         22    1    1    2    0    0  0.23744787765E+03  0.21216808405E+03 -0.30813493140E+02  0.31991602312E+03  0.00000000000E+00 0. -1.
<mgrwt>
<rscale>  0 0.15358823E+04</rscale>
<asrwt>0</asrwt>
<pdfrwt beam="1">  1        2 0.49216722E+00 0.15358823E+04</pdfrwt>
<pdfrwt beam="2">  1       -2 0.28360669E-01 0.15358823E+04</pdfrwt>
<totfact> 0.14374998E+01</totfact>
</mgrwt>
</event>
<event>
 6    1  0.4630212E-004  0.3232854E+04  0.7818608E-02  0.8180194E-01
          2   -1    0    0  501    0  0.00000000000E+00  0.00000000000E+00  0.37500417301E+04  0.37500417301E+04  0.00000000000E+00 0.  1.
         -2   -1    0    0    0  501 -0.00000000000E+00 -0.00000000000E+00 -0.69674878408E+03  0.69674878408E+03  0.00000000000E+00 0. -1.
         23    2    1    2    0    0 -0.14272549267E+04  0.56897409332E+03  0.84307754621E+03  0.17549806661E+04  0.91592821439E+02 0.  0.
         13    1    3    3    0    0 -0.84200965769E+03  0.37569660700E+03  0.53386755511E+03  0.10654307911E+04  0.00000000000E+00 0. -1.
        -13    1    3    3    0    0 -0.58524526898E+03  0.19327748631E+03  0.30920999110E+03  0.68954987505E+03  0.00000000000E+00 0.  1.
         22    1    1    2    0    0  0.14272549267E+04 -0.56897409332E+03  0.22102153998E+04  0.26918098481E+04  0.00000000000E+00 0. -1.
<mgrwt>
<rscale>  0 0.32328545E+04</rscale>
<asrwt>0</asrwt>
<pdfrwt beam="1">  1        2 0.57692948E+00 0.32328545E+04</pdfrwt>
<pdfrwt beam="2">  1       -2 0.10719212E+00 0.32328545E+04</pdfrwt>
<totfact> 0.31414762E-01</totfact>
</mgrwt>
</event>
<event>
 6    1  0.4630212E-004  0.4549374E+04  0.7818608E-02  0.7902049E-01
         -1   -1    0    0    0  501 -0.00000000000E+00  0.00000000000E+00  0.27555862208E+04  0.27555862208E+04  0.00000000000E+00 0. -1.
          1   -1    0    0  501    0  0.00000000000E+00 -0.00000000000E+00 -0.18777130466E+04  0.18777130466E+04  0.00000000000E+00 0.  1.
         23    2    1    2    0    0  0.13857305177E+04  0.16160137161E+04 -0.37483737973E+03  0.21632723182E+04  0.86571723391E+02 0.  0.
         13    1    3    3    0    0  0.35466252022E+03  0.37872294236E+03 -0.61553523247E+02  0.52249919286E+03  0.00000000000E+00 0. -1.
        -13    1    3    3    0    0  0.10310679975E+04  0.12372907737E+04 -0.31328385648E+03  0.16407731253E+04  0.00000000000E+00 0.  1.
         22    1    1    2    0    0 -0.13857305177E+04 -0.16160137161E+04  0.12527105539E+04  0.24700269493E+04  0.00000000000E+00 0. -1.
<mgrwt>
<rscale>  0 0.45493737E+04</rscale>
<asrwt>0</asrwt>
<pdfrwt beam="1">  1        1 0.28887893E+00 0.45493737E+04</pdfrwt>
<pdfrwt beam="2">  1       -1 0.42393634E+00 0.45493737E+04</pdfrwt>
<totfact> 0.13227592E-02</totfact>
</mgrwt>
</event>
<event>
 6    1  0.4630212E-004  0.2526807E+04  0.7818608E-02  0.8393497E-01
         -2   -1    0    0    0  501 -0.00000000000E+00  0.00000000000E+00  0.79600710670E+03  0.79600710670E+03  0.00000000000E+00 0. -1.
          2   -1    0    0  501    0  0.00000000000E+00 -0.00000000000E+00 -0.20052441122E+04  0.20052441122E+04  0.00000000000E+00 0.  1.
         23    2    1    2    0    0 -0.43189184546E+03  0.85379572095E+03 -0.15172676599E+04  0.17960743273E+04  0.91017240726E+02 0.  0.
         13    1    3    3    0    0 -0.25295056851E+03  0.41383413523E+03 -0.81063780904E+03  0.94465673079E+03  0.00000000000E+00 0.  1.
        -13    1    3    3    0    0 -0.17894127694E+03  0.43996158572E+03 -0.70662985085E+03  0.85141759650E+03  0.00000000000E+00 0. -1.
         22    1    1    2    0    0  0.43189184546E+03 -0.85379572095E+03  0.30803065442E+03  0.10051768916E+04  0.00000000000E+00 0. -1.
<mgrwt>
<rscale>  0 0.25268071E+04</rscale>
<asrwt>0</asrwt>
<pdfrwt beam="1">  1        2 0.30849909E+00 0.25268071E+04</pdfrwt>
<pdfrwt beam="2">  1       -2 0.12246263E+00 0.25268071E+04</pdfrwt>
<totfact> 0.29811226E+00</totfact>
</mgrwt>
</event>
<event>
 6    1  0.4630212E-004  0.1778461E+04  0.7818608E-02  0.8717838E-01
         -2   -1    0    0    0  501 -0.00000000000E+00  0.00000000000E+00  0.43954664559E+03  0.43954664559E+03  0.00000000000E+00 0. -1.
          2   -1    0    0  501    0  0.00000000000E+00 -0.00000000000E+00 -0.17989684016E+04  0.17989684016E+04  0.00000000000E+00 0.  1.
         23    2    1    2    0    0  0.52930819711E+03  0.19318459759E+03 -0.15435939693E+04  0.16457192472E+04  0.90675478457E+02 0.  0.
         11    1    3    3    0    0  0.38828028625E+03  0.10215481105E+03 -0.11388202219E+04  0.12075217115E+04  0.00000000000E+00 0.  1.
        -11    1    3    3    0    0  0.14102791085E+03  0.91029786540E+02 -0.40477374745E+03  0.43819753571E+03  0.00000000000E+00 0. -1.
         22    1    1    2    0    0 -0.52930819711E+03 -0.19318459759E+03  0.18417221330E+03  0.59279579994E+03  0.00000000000E+00 0. -1.
<mgrwt>
<rscale>  0 0.17784606E+04</rscale>
<asrwt>0</asrwt>
<pdfrwt beam="1">  1        2 0.27676437E+00 0.17784606E+04</pdfrwt>
<pdfrwt beam="2">  1       -2 0.67622560E-01 0.17784606E+04</pdfrwt>
<totfact> 0.16374891E+01</totfact>
</mgrwt>
</event>
<event>
 6    1  0.4630212E-004  0.6423690E+04  0.7818608E-02  0.7639979E-01
         -1   -1    0    0    0  501 -0.00000000000E+00  0.00000000000E+00  0.29623239026E+04  0.29623239026E+04  0.00000000000E+00 0. -1.
          1   -1    0    0  501    0  0.00000000000E+00 -0.00000000000E+00 -0.34823837831E+04  0.34823837831E+04  0.00000000000E+00 0.  1.
         23    2    1    2    0    0  0.20479275224E+04 -0.64341118195E+02  0.22205739229E+04  0.30228338481E+04  0.91809640040E+02 0.  0.
         11    1    3    3    0    0  0.11762949748E+04  0.58123580070E+01  0.12511235136E+04  0.17172692560E+04  0.00000000000E+00 0.  1.
        -11    1    3    3    0    0  0.87163254759E+03 -0.70153476202E+02  0.96945040928E+03  0.13055645922E+04  0.00000000000E+00 0. -1.
         22    1    1    2    0    0 -0.20479275224E+04  0.64341118195E+02 -0.27406338033E+04  0.34218738376E+04  0.00000000000E+00 0.  1.
<mgrwt>
<rscale>  0 0.64236901E+04</rscale>
<asrwt>0</asrwt>
<pdfrwt beam="1">  1        1 0.53575135E+00 0.64236901E+04</pdfrwt>
<pdfrwt beam="2">  1       -1 0.45574214E+00 0.64236901E+04</pdfrwt>
<totfact> 0.49520732E-04</totfact>
</mgrwt>
</event>
<event>
 6    1  0.4630212E-004  0.9720481E+03  0.7818608E-02  0.9339745E-01
         -2   -1    0    0    0  501 -0.00000000000E+00  0.00000000000E+00  0.44782495481E+03  0.44782495481E+03  0.00000000000E+00 0. -1.
          2   -1    0    0  501    0  0.00000000000E+00 -0.00000000000E+00 -0.52748152609E+03  0.52748152609E+03  0.00000000000E+00 0.  1.
         23    2    1    2    0    0  0.33561311473E+03  0.26312899920E+03  0.18484134934E+03  0.47347764253E+03  0.90231483166E+02 0.  0.
         11    1    3    3    0    0  0.12848290897E+03  0.12097962048E+03  0.31807388106E+02  0.17931992753E+03  0.00000000000E+00 0.  1.
        -11    1    3    3    0    0  0.20713020575E+03  0.14214937872E+03  0.15303396124E+03  0.29415771501E+03  0.00000000000E+00 0. -1.
         22    1    1    2    0    0 -0.33561311473E+03 -0.26312899920E+03 -0.26449792062E+03  0.50182883836E+03  0.00000000000E+00 0. -1.
<mgrwt>
<rscale>  0 0.97204813E+03</rscale>
<asrwt>0</asrwt>
<pdfrwt beam="1">  1        2 0.81151004E-01 0.97204813E+03</pdfrwt>
<pdfrwt beam="2">  1       -2 0.68896147E-01 0.97204813E+03</pdfrwt>
<totfact> 0.11138508E+02</totfact>
</mgrwt>
</event>
<event>
 6    1  0.6675701E-004  0.2161150E+04  0.7818608E-02  0.8534775E-01
          2   -1    0    0  501    0  0.00000000000E+00  0.00000000000E+00  0.18473602710E+04  0.18473602710E+04  0.00000000000E+00 0.  1.
         -2   -1    0    0    0  501 -0.00000000000E+00 -0.00000000000E+00 -0.63205989585E+03  0.63205989585E+03  0.00000000000E+00 0. -1.
         23    2    1    2    0    0 -0.72129126818E+03  0.70352378069E+03  0.16575260753E+03  0.10245121560E+04  0.83333230739E+02 0.  0.
         11    1    3    3    0    0 -0.30477277927E+03  0.27681942065E+03  0.29018805901E+02  0.41274390332E+03  0.00000000000E+00 0. -1.
        -11    1    3    3    0    0 -0.41651848891E+03  0.42670436005E+03  0.13673380163E+03  0.61176825268E+03  0.00000000000E+00 0.  1.
         22    1    1    2    0    0  0.72129126818E+03 -0.70352378069E+03  0.10495477676E+04  0.14549080109E+04  0.00000000000E+00 0.  1.
<mgrwt>
<rscale>  0 0.21611500E+04</rscale>
<asrwt>0</asrwt>
<pdfrwt beam="1">  1        2 0.28420927E+00 0.21611500E+04</pdfrwt>
<pdfrwt beam="2">  1       -2 0.97239985E-01 0.21611500E+04</pdfrwt>
<totfact> 0.65716979E+00</totfact>
</mgrwt>
</event>
<event>
 6    1  0.4630212E-004  0.2995075E+04  0.7818608E-02  0.8245139E-01
         -2   -1    0    0    0  501 -0.00000000000E+00  0.00000000000E+00  0.83220613977E+03  0.83220613977E+03  0.00000000000E+00 0. -1.
          2   -1    0    0  501    0  0.00000000000E+00 -0.00000000000E+00 -0.26947879160E+04  0.26947879160E+04  0.00000000000E+00 0.  1.
         23    2    1    2    0    0  0.34926520193E+03 -0.13135009706E+04 -0.16684815403E+04  0.21540607425E+04  0.94212797416E+02 0.  0.
         11    1    3    3    0    0  0.27911768685E+03 -0.98361643328E+03 -0.13114732764E+04  0.16629402050E+04  0.00000000000E+00 0. -1.
        -11    1    3    3    0    0  0.70147515089E+02 -0.32988453733E+03 -0.35700826392E+03  0.49112053749E+03  0.00000000000E+00 0.  1.
         22    1    1    2    0    0 -0.34926520193E+03  0.13135009706E+04 -0.19410023599E+03  0.13729333133E+04  0.00000000000E+00 0.  1.
<mgrwt>
<rscale>  0 0.29950753E+04</rscale>
<asrwt>0</asrwt>
<pdfrwt beam="1">  1        2 0.41458275E+00 0.29950753E+04</pdfrwt>
<pdfrwt beam="2">  1       -2 0.12803172E+00 0.29950753E+04</pdfrwt>
<totfact> 0.10334950E+00</totfact>
</mgrwt>
</event>
<event>
 6    1  0.4630212E-004  0.3514832E+04  0.7818608E-02  0.8110284E-01
         -2   -1    0    0    0  501 -0.00000000000E+00  0.00000000000E+00  0.22134369715E+04  0.22134369715E+04  0.00000000000E+00 0. -1.
          2   -1    0    0  501    0  0.00000000000E+00 -0.00000000000E+00 -0.13953460825E+04  0.13953460825E+04  0.00000000000E+00 0.  1.
         23    2    1    2    0    0 -0.12315120770E+04 -0.12429922492E+04  0.56384985832E+03  0.18406512068E+04  0.91752248168E+02 0.  0.
         13    1    3    3    0    0 -0.47406775727E+03 -0.52133076654E+03  0.26209362101E+03  0.75181052986E+03  0.00000000000E+00 0. -1.
        -13    1    3    3    0    0 -0.75744431970E+03 -0.72166148267E+03  0.30175623731E+03  0.10888406769E+04  0.00000000000E+00 0.  1.
         22    1    1    2    0    0  0.12315120770E+04  0.12429922492E+04  0.25424103070E+03  0.17681318472E+04  0.00000000000E+00 0.  1.
<mgrwt>
<rscale>  0 0.35148318E+04</rscale>
<asrwt>0</asrwt>
<pdfrwt beam="1">  1        2 0.21466863E+00 0.35148318E+04</pdfrwt>
<pdfrwt beam="2">  1       -2 0.34052877E+00 0.35148318E+04</pdfrwt>
<totfact> 0.21315512E-01</totfact>
</mgrwt>
</event>
<event>
 6    1  0.4630212E-004  0.1048843E+04  0.7818608E-02  0.9256539E-01
          2   -1    0    0  501    0  0.00000000000E+00  0.00000000000E+00  0.45941252310E+03  0.45941252310E+03  0.00000000000E+00 0.  1.
         -2   -1    0    0    0  501 -0.00000000000E+00 -0.00000000000E+00 -0.59862989310E+03  0.59862989310E+03  0.00000000000E+00 0. -1.
         23    2    1    2    0    0 -0.10236921444E+02 -0.45669108368E+03  0.18176342152E+03  0.49974123494E+03  0.89620421931E+02 0.  0.
         11    1    3    3    0    0 -0.40917619777E+02 -0.17186147954E+03  0.94031558160E+02  0.20013134110E+03  0.00000000000E+00 0.  1.
        -11    1    3    3    0    0  0.30680698333E+02 -0.28482960413E+03  0.87731863363E+02  0.29960989385E+03  0.00000000000E+00 0. -1.
         22    1    1    2    0    0  0.10236921444E+02  0.45669108368E+03 -0.32098079152E+03  0.55830118126E+03  0.00000000000E+00 0.  1.
<mgrwt>
<rscale>  0 0.10488433E+04</rscale>
<asrwt>0</asrwt>
<pdfrwt beam="1">  1        2 0.70678850E-01 0.10488433E+04</pdfrwt>
<pdfrwt beam="2">  1       -2 0.92096907E-01 0.10488433E+04</pdfrwt>
<totfact> 0.67790727E+01</totfact>
</mgrwt>
</event>
<event>
 6    1  0.4630212E-004  0.3024645E+04  0.7818608E-02  0.8236728E-01
         -2   -1    0    0    0  501 -0.00000000000E+00  0.00000000000E+00  0.10130302677E+04  0.10130302677E+04  0.00000000000E+00 0. -1.
          2   -1    0    0  501    0  0.00000000000E+00 -0.00000000000E+00 -0.22577016037E+04  0.22577016037E+04  0.00000000000E+00 0.  1.
         23    2    1    2    0    0 -0.32094952872E+03 -0.13293695086E+04  0.71846401912E+02  0.13724561158E+04  0.90785427076E+02 0.  0.
         13    1    3    3    0    0 -0.25946861120E+03 -0.89423396078E+03  0.49085986479E+02  0.93240965829E+03  0.00000000000E+00 0.  1.
        -13    1    3    3    0    0 -0.61480917521E+02 -0.43513554784E+03  0.22760415433E+02  0.44004645746E+03  0.00000000000E+00 0. -1.
         22    1    1    2    0    0  0.32094952872E+03  0.13293695086E+04 -0.13165177379E+04  0.18982757557E+04  0.00000000000E+00 0.  1.
<mgrwt>
<rscale>  0 0.30246455E+04</rscale>
<asrwt>0</asrwt>
<pdfrwt beam="1">  1        2 0.34733870E+00 0.30246455E+04</pdfrwt>
<pdfrwt beam="2">  1       -2 0.15585081E+00 0.30246455E+04</pdfrwt>
<totfact> 0.11070513E+00</totfact>
</mgrwt>
</event>
<event>
 6    1  0.4630212E-004  0.2868324E+04  0.7818608E-02  0.8282365E-01
         -2   -1    0    0    0  501 -0.00000000000E+00  0.00000000000E+00  0.17421186665E+04  0.17421186665E+04  0.00000000000E+00 0. -1.
          2   -1    0    0  501    0  0.00000000000E+00 -0.00000000000E+00 -0.11806434477E+04  0.11806434477E+04  0.00000000000E+00 0.  1.
         23    2    1    2    0    0  0.10297295557E+03  0.13995707165E+04 -0.13146695178E+02  0.14063215568E+04  0.90365179321E+02 0.  0.
         13    1    3    3    0    0  0.10841656075E+03  0.11019770275E+04  0.14542849979E+02  0.11073928906E+04  0.00000000000E+00 0. -1.
        -13    1    3    3    0    0 -0.54436051778E+01  0.29759368899E+03 -0.27689545157E+02  0.29892866619E+03  0.00000000000E+00 0.  1.
         22    1    1    2    0    0 -0.10297295557E+03 -0.13995707165E+04  0.57462191393E+03  0.15164405573E+04  0.00000000000E+00 0.  1.
<mgrwt>
<rscale>  0 0.28683242E+04</rscale>
<asrwt>0</asrwt>
<pdfrwt beam="1">  1        2 0.18163745E+00 0.28683242E+04</pdfrwt>
<pdfrwt beam="2">  1       -2 0.26801826E+00 0.28683242E+04</pdfrwt>
<totfact> 0.83893857E-01</totfact>
</mgrwt>
</event>
<event>
 6    1  0.4630212E-004  0.2771050E+04  0.7818608E-02  0.8312313E-01
         -2   -1    0    0    0  501 -0.00000000000E+00  0.00000000000E+00  0.13038660624E+04  0.13038660624E+04  0.00000000000E+00 0. -1.
          2   -1    0    0  501    0  0.00000000000E+00 -0.00000000000E+00 -0.14722984446E+04  0.14722984446E+04  0.00000000000E+00 0.  1.
         23    2    1    2    0    0 -0.10486873661E+04  0.19177467726E+03  0.79999909862E+03  0.13358929175E+04  0.89936702795E+02 0.  0.
         13    1    3    3    0    0 -0.33117419683E+03  0.84824190827E+02  0.21382130862E+03  0.40322579781E+03  0.00000000000E+00 0.  1.
        -13    1    3    3    0    0 -0.71751316927E+03  0.10695048643E+03  0.58617779000E+03  0.93266711967E+03  0.00000000000E+00 0. -1.
         22    1    1    2    0    0  0.10486873661E+04 -0.19177467726E+03 -0.96843148080E+03  0.14402715895E+04  0.00000000000E+00 0.  1.
<mgrwt>
<rscale>  0 0.27710503E+04</rscale>
<asrwt>0</asrwt>
<pdfrwt beam="1">  1        2 0.22650745E+00 0.27710503E+04</pdfrwt>
<pdfrwt beam="2">  1       -2 0.20059478E+00 0.27710503E+04</pdfrwt>
<totfact> 0.15131808E+00</totfact>
</mgrwt>
</event>
<event>
 6    1  0.4630212E-004  0.1224828E+04  0.7818608E-02  0.9091398E-01
         -2   -1    0    0    0  501 -0.00000000000E+00  0.00000000000E+00  0.13433824578E+03  0.13433824578E+03  0.00000000000E+00 0. -1.
          2   -1    0    0  501    0  0.00000000000E+00 -0.00000000000E+00 -0.27918388086E+04  0.27918388086E+04  0.00000000000E+00 0.  1.
         23    2    1    2    0    0  0.57157589419E+03 -0.20229305998E+03 -0.14719761043E+04  0.15946029007E+04  0.91778398554E+02 0.  0.
         13    1    3    3    0    0  0.77447948241E+02  0.70985331408E+00 -0.15114743675E+03  0.16983590967E+03  0.00000000000E+00 0.  1.
        -13    1    3    3    0    0  0.49412794595E+03 -0.20300291330E+03 -0.13208286675E+04  0.14247669910E+04  0.00000000000E+00 0. -1.
         22    1    1    2    0    0 -0.57157589419E+03  0.20229305998E+03 -0.11855244586E+04  0.13315741537E+04  0.00000000000E+00 0. -1.
<mgrwt>
<rscale>  0 0.12248277E+04</rscale>
<asrwt>0</asrwt>
<pdfrwt beam="1">  1        2 0.42951362E+00 0.12248277E+04</pdfrwt>
<pdfrwt beam="2">  1       -2 0.20667425E-01 0.12248277E+04</pdfrwt>
<totfact> 0.46952443E+01</totfact>
</mgrwt>
</event>
<event>
 6    1  0.4630212E-004  0.1777126E+04  0.7818608E-02  0.8718559E-01
         -1   -1    0    0    0  501 -0.00000000000E+00  0.00000000000E+00  0.51847214853E+03  0.51847214853E+03  0.00000000000E+00 0. -1.
          1   -1    0    0  501    0  0.00000000000E+00 -0.00000000000E+00 -0.15228277669E+04  0.15228277669E+04  0.00000000000E+00 0.  1.
         23    2    1    2    0    0 -0.65229542364E+03  0.59389602497E+03 -0.40217141706E+03  0.97320459176E+03  0.84755652059E+02 0.  0.
         13    1    3    3    0    0 -0.30755589448E+03  0.32416236809E+03 -0.17347471767E+03  0.47933844701E+03  0.00000000000E+00 0. -1.
        -13    1    3    3    0    0 -0.34473952916E+03  0.26973365688E+03 -0.22869669939E+03  0.49386614475E+03  0.00000000000E+00 0.  1.
         22    1    1    2    0    0  0.65229542364E+03 -0.59389602497E+03 -0.60218420134E+03  0.10680953237E+04  0.00000000000E+00 0. -1.
<mgrwt>
<rscale>  0 0.17771255E+04</rscale>
<asrwt>0</asrwt>
<pdfrwt beam="1">  1        1 0.23428119E+00 0.17771255E+04</pdfrwt>
<pdfrwt beam="2">  1       -1 0.79764947E-01 0.17771255E+04</pdfrwt>
<totfact> 0.93605746E+00</totfact>
</mgrwt>
</event>
<event>
 6    1  0.4630212E-004  0.1181477E+04  0.7818608E-02  0.9129226E-01
         -1   -1    0    0    0  501 -0.00000000000E+00  0.00000000000E+00  0.15387151102E+03  0.15387151102E+03  0.00000000000E+00 0. -1.
          1   -1    0    0  501    0  0.00000000000E+00 -0.00000000000E+00 -0.22679431407E+04  0.22679431407E+04  0.00000000000E+00 0.  1.
         23    2    1    2    0    0 -0.60145945330E+02 -0.34028890389E+03 -0.20364537408E+04  0.20676415167E+04  0.92647344552E+02 0.  0.
         11    1    3    3    0    0 -0.57376828641E+02 -0.86787435328E+02 -0.56074926005E+03  0.57031911422E+03  0.00000000000E+00 0. -1.
        -11    1    3    3    0    0 -0.27691166894E+01 -0.25350146856E+03 -0.14757044808E+04  0.14973224025E+04  0.00000000000E+00 0.  1.
         22    1    1    2    0    0  0.60145945330E+02  0.34028890389E+03 -0.77617888849E+02  0.35417313495E+03  0.00000000000E+00 0. -1.
<mgrwt>
<rscale>  0 0.11814768E+04</rscale>
<asrwt>0</asrwt>
<pdfrwt beam="1">  1        1 0.34891433E+00 0.11814768E+04</pdfrwt>
<pdfrwt beam="2">  1       -1 0.23672540E-01 0.11814768E+04</pdfrwt>
<totfact> 0.29964761E+01</totfact>
</mgrwt>
</event>
<event>
 6    1  0.4630212E-004  0.2596091E+04  0.7818608E-02  0.8369530E-01
          2   -1    0    0  501    0  0.00000000000E+00  0.00000000000E+00  0.74210907835E+03  0.74210907835E+03  0.00000000000E+00 0.  1.
         -2   -1    0    0    0  501 -0.00000000000E+00 -0.00000000000E+00 -0.22704512184E+04  0.22704512184E+04  0.00000000000E+00 0. -1.
         23    2    1    2    0    0 -0.65969364259E+02 -0.82619583534E+03 -0.19219504302E+04  0.20950206510E+04  0.90920607199E+02 0.  0.
         13    1    3    3    0    0 -0.74941732739E+02 -0.61472669911E+03 -0.15047781223E+04  0.16272253610E+04  0.00000000000E+00 0. -1.
        -13    1    3    3    0    0  0.89723684797E+01 -0.21146913623E+03 -0.41717230784E+03  0.46779529006E+03  0.00000000000E+00 0.  1.
         22    1    1    2    0    0  0.65969364259E+02  0.82619583534E+03  0.39360829016E+03  0.91753964570E+03  0.00000000000E+00 0.  1.
<mgrwt>
<rscale>  0 0.25960913E+04</rscale>
<asrwt>0</asrwt>
<pdfrwt beam="1">  1        2 0.11417063E+00 0.25960913E+04</pdfrwt>
<pdfrwt beam="2">  1       -2 0.34930018E+00 0.25960913E+04</pdfrwt>
<totfact> 0.52887330E-01</totfact>
</mgrwt>
</event>
<event>
 6    1  0.4630212E-004  0.3129924E+04  0.7818608E-02  0.8207573E-01
         -2   -1    0    0    0  501 -0.00000000000E+00  0.00000000000E+00  0.26395778813E+04  0.26395778813E+04  0.00000000000E+00 0. -1.
          2   -1    0    0  501    0  0.00000000000E+00 -0.00000000000E+00 -0.92783994298E+03  0.92783994298E+03  0.00000000000E+00 0.  1.
         23    2    1    2    0    0 -0.60796658753E+03  0.10332654615E+04  0.20006989633E+04  0.23342271013E+04  0.92514502184E+02 0.  0.
         11    1    3    3    0    0 -0.36993659233E+03  0.58804635654E+03  0.12370559838E+04  0.14187879006E+04  0.00000000000E+00 0. -1.
        -11    1    3    3    0    0 -0.23802999520E+03  0.44521910494E+03  0.76364297955E+03  0.91543920073E+03  0.00000000000E+00 0.  1.
         22    1    1    2    0    0  0.60796658753E+03 -0.10332654615E+04 -0.28896102496E+03  0.12331907230E+04  0.00000000000E+00 0.  1.
<mgrwt>
<rscale>  0 0.31299238E+04</rscale>
<asrwt>0</asrwt>
<pdfrwt beam="1">  1        2 0.14274461E+00 0.31299238E+04</pdfrwt>
<pdfrwt beam="2">  1       -2 0.40608890E+00 0.31299238E+04</pdfrwt>
<totfact> 0.16090174E-01</totfact>
</mgrwt>
</event>
<event>
 6    1  0.4630212E-004  0.2409021E+04  0.7818608E-02  0.8436134E-01
         -2   -1    0    0    0  501 -0.00000000000E+00  0.00000000000E+00  0.14443531386E+04  0.14443531386E+04  0.00000000000E+00 0. -1.
          2   -1    0    0  501    0  0.00000000000E+00 -0.00000000000E+00 -0.10044950831E+04  0.10044950831E+04  0.00000000000E+00 0.  1.
         23    2    1    2    0    0  0.77769929923E+02 -0.67378767461E+03 -0.78948229456E+03  0.10448127204E+04  0.91177490839E+02 0.  0.
         13    1    3    3    0    0  0.30736608546E+02 -0.56294736603E+03 -0.65928165916E+03  0.86747148779E+03  0.00000000000E+00 0.  1.
        -13    1    3    3    0    0  0.47033321378E+02 -0.11084030858E+03 -0.13020063540E+03  0.17734123261E+03  0.00000000000E+00 0. -1.
         22    1    1    2    0    0 -0.77769929923E+02  0.67378767461E+03  0.12293403501E+04  0.14040355013E+04  0.00000000000E+00 0. -1.
<mgrwt>
<rscale>  0 0.24090211E+04</rscale>
<asrwt>0</asrwt>
<pdfrwt beam="1">  1        2 0.15453771E+00 0.24090211E+04</pdfrwt>
<pdfrwt beam="2">  1       -2 0.22220817E+00 0.24090211E+04</pdfrwt>
<totfact> 0.21513692E+00</totfact>
</mgrwt>
</event>
<event>
 6    1  0.4630212E-004  0.3257714E+04  0.7818608E-02  0.8173739E-01
          2   -1    0    0  501    0  0.00000000000E+00  0.00000000000E+00  0.19924494563E+04  0.19924494563E+04  0.00000000000E+00 0.  1.
         -2   -1    0    0    0  501 -0.00000000000E+00 -0.00000000000E+00 -0.13316147086E+04  0.13316147086E+04  0.00000000000E+00 0. -1.
         23    2    1    2    0    0 -0.64106513955E+03 -0.58213545345E+03 -0.10754961794E+04  0.13837829256E+04  0.91197334734E+02 0.  0.
         13    1    3    3    0    0 -0.37675977102E+03 -0.33014971581E+03 -0.55097449828E+03  0.74466076684E+03  0.00000000000E+00 0.  1.
        -13    1    3    3    0    0 -0.26430536852E+03 -0.25198573764E+03 -0.52452168116E+03  0.63912215876E+03  0.00000000000E+00 0. -1.
         22    1    1    2    0    0  0.64106513955E+03  0.58213545345E+03  0.17363309272E+04  0.19402812394E+04  0.00000000000E+00 0.  1.
<mgrwt>
<rscale>  0 0.32577139E+04</rscale>
<asrwt>0</asrwt>
<pdfrwt beam="1">  1        2 0.30653069E+00 0.32577139E+04</pdfrwt>
<pdfrwt beam="2">  1       -2 0.20486380E+00 0.32577139E+04</pdfrwt>
<totfact> 0.69893808E-01</totfact>
</mgrwt>
</event>
<event>
 6    1  0.4630212E-004  0.1297496E+04  0.7818608E-02  0.9031553E-01
         -2   -1    0    0    0  501 -0.00000000000E+00  0.00000000000E+00  0.39655592693E+03  0.39655592693E+03  0.00000000000E+00 0. -1.
          2   -1    0    0  501    0  0.00000000000E+00 -0.00000000000E+00 -0.10613236870E+04  0.10613236870E+04  0.00000000000E+00 0.  1.
         23    2    1    2    0    0 -0.15333230553E+03  0.43219169455E+03 -0.84461910675E+03  0.96528752740E+03  0.89989545580E+02 0.  0.
         13    1    3    3    0    0 -0.12784505633E+03  0.22972051056E+03 -0.45655463015E+03  0.52683773755E+03  0.00000000000E+00 0. -1.
        -13    1    3    3    0    0 -0.25487249196E+02  0.20247118399E+03 -0.38806447661E+03  0.43844978985E+03  0.00000000000E+00 0.  1.
         22    1    1    2    0    0  0.15333230553E+03 -0.43219169455E+03  0.17985134672E+03  0.49259208649E+03  0.00000000000E+00 0. -1.
<mgrwt>
<rscale>  0 0.12974964E+04</rscale>
<asrwt>0</asrwt>
<pdfrwt beam="1">  1        2 0.16328057E+00 0.12974964E+04</pdfrwt>
<pdfrwt beam="2">  1       -2 0.61008604E-01 0.12974964E+04</pdfrwt>
<totfact> 0.56442765E+01</totfact>
</mgrwt>
</event>
<event>
 6    1  0.4630212E-004  0.2970795E+04  0.7818608E-02  0.8252120E-01
          2   -1    0    0  501    0  0.00000000000E+00  0.00000000000E+00  0.30768025939E+04  0.30768025939E+04  0.00000000000E+00 0.  1.
         -2   -1    0    0    0  501 -0.00000000000E+00 -0.00000000000E+00 -0.71711013241E+03  0.71711013241E+03  0.00000000000E+00 0. -1.
         23    2    1    2    0    0  0.10473826334E+04 -0.59088298875E+03  0.70540131038E+02  0.12081108238E+04  0.91666598434E+02 0.  0.
         11    1    3    3    0    0  0.68580537457E+03 -0.43493632095E+03  0.57319770200E+02  0.81411557603E+03  0.00000000000E+00 0. -1.
        -11    1    3    3    0    0  0.36157725883E+03 -0.15594666780E+03  0.13220360838E+02  0.39399524774E+03  0.00000000000E+00 0.  1.
         22    1    1    2    0    0 -0.10473826334E+04  0.59088298875E+03  0.22891523304E+04  0.25858019025E+04  0.00000000000E+00 0.  1.
<mgrwt>
<rscale>  0 0.29707954E+04</rscale>
<asrwt>0</asrwt>
<pdfrwt beam="1">  1        2 0.47335424E+00 0.29707954E+04</pdfrwt>
<pdfrwt beam="2">  1       -2 0.11032464E+00 0.29707954E+04</pdfrwt>
<totfact> 0.87101135E-01</totfact>
</mgrwt>
</event>
<event>
 6    1  0.4630212E-004  0.2270844E+04  0.7818608E-02  0.8489506E-01
         -2   -1    0    0    0  501 -0.00000000000E+00  0.00000000000E+00  0.21507949340E+04  0.21507949340E+04  0.00000000000E+00 0. -1.
          2   -1    0    0  501    0  0.00000000000E+00 -0.00000000000E+00 -0.59939850262E+03  0.59939850262E+03  0.00000000000E+00 0.  1.
         23    2    1    2    0    0  0.44453079941E+03  0.48299769614E+03 -0.34244069402E+03  0.74581985276E+03  0.89928959492E+02 0.  0.
         11    1    3    3    0    0  0.77184888034E+02  0.13325542338E+03 -0.59989477211E+02  0.16526721446E+03  0.00000000000E+00 0. -1.
        -11    1    3    3    0    0  0.36734591137E+03  0.34974227277E+03 -0.28245121681E+03  0.58055263830E+03  0.00000000000E+00 0.  1.
         22    1    1    2    0    0 -0.44453079941E+03 -0.48299769614E+03  0.18938371254E+04  0.20043735839E+04  0.00000000000E+00 0. -1.
<mgrwt>
<rscale>  0 0.22708441E+04</rscale>
<asrwt>0</asrwt>
<pdfrwt beam="1">  1        2 0.92215156E-01 0.22708441E+04</pdfrwt>
<pdfrwt beam="2">  1       -2 0.33089152E+00 0.22708441E+04</pdfrwt>
<totfact> 0.92572174E-01</totfact>
</mgrwt>
</event>
<event>
 6    1  0.4630212E-004  0.3720359E+04  0.7818608E-02  0.8063465E-01
          2   -1    0    0  501    0  0.00000000000E+00  0.00000000000E+00  0.39279623809E+04  0.39279623809E+04  0.00000000000E+00 0.  1.
         -2   -1    0    0    0  501 -0.00000000000E+00 -0.00000000000E+00 -0.88093206794E+03  0.88093206794E+03  0.00000000000E+00 0. -1.
         23    2    1    2    0    0 -0.96109861226E+03 -0.15592949583E+04  0.19345899614E+04  0.26658510883E+04  0.94933642029E+02 0.  0.
         13    1    3    3    0    0 -0.49660709919E+03 -0.83014371013E+03  0.10877614442E+04  0.14556724048E+04  0.00000000000E+00 0. -1.
        -13    1    3    3    0    0 -0.46449151307E+03 -0.72915124819E+03  0.84682851721E+03  0.12101786835E+04  0.00000000000E+00 0.  1.
         22    1    1    2    0    0  0.96109861226E+03  0.15592949583E+04  0.11124403515E+04  0.21430433605E+04  0.00000000000E+00 0. -1.
<mgrwt>
<rscale>  0 0.37203591E+04</rscale>
<asrwt>0</asrwt>
<pdfrwt beam="1">  1        2 0.60430189E+00 0.37203591E+04</pdfrwt>
<pdfrwt beam="2">  1       -2 0.13552801E+00 0.37203591E+04</pdfrwt>
<totfact> 0.12280695E-01</totfact>
</mgrwt>
</event>
<event>
 6    1  0.4630212E-004  0.3301352E+04  0.7818608E-02  0.8162551E-01
         -2   -1    0    0    0  501 -0.00000000000E+00  0.00000000000E+00  0.12891991051E+04  0.12891991051E+04  0.00000000000E+00 0. -1.
          2   -1    0    0  501    0  0.00000000000E+00 -0.00000000000E+00 -0.21135074836E+04  0.21135074836E+04  0.00000000000E+00 0.  1.
         23    2    1    2    0    0  0.11590447764E+04  0.46210914513E+03 -0.15243427096E+04  0.19719802975E+04  0.90310252720E+02 0.  0.
         13    1    3    3    0    0  0.18610506204E+03  0.56555123174E+02 -0.19475017759E+03  0.27524753904E+03  0.00000000000E+00 0. -1.
        -13    1    3    3    0    0  0.97293971432E+03  0.40555402196E+03 -0.13295925320E+04  0.16967327584E+04  0.00000000000E+00 0.  1.
         22    1    1    2    0    0 -0.11590447764E+04 -0.46210914513E+03  0.70003433111E+03  0.14307262912E+04  0.00000000000E+00 0. -1.
<mgrwt>
<rscale>  0 0.33013524E+04</rscale>
<asrwt>0</asrwt>
<pdfrwt beam="1">  1        2 0.32515500E+00 0.33013524E+04</pdfrwt>
<pdfrwt beam="2">  1       -2 0.19833832E+00 0.33013524E+04</pdfrwt>
<totfact> 0.65777175E-01</totfact>
</mgrwt>
</event>
<event>
 6    1  0.4630212E-004  0.2081617E+04  0.7818608E-02  0.8569385E-01
          2   -1    0    0  501    0  0.00000000000E+00  0.00000000000E+00  0.34901486835E+04  0.34901486835E+04  0.00000000000E+00 0.  1.
         -2   -1    0    0    0  501 -0.00000000000E+00 -0.00000000000E+00 -0.31038295635E+03  0.31038295635E+03  0.00000000000E+00 0. -1.
         23    2    1    2    0    0 -0.38160444515E+03  0.25433893105E+03  0.32947246429E+04  0.33277464913E+04  0.91520451013E+02 0.  0.
         13    1    3    3    0    0 -0.27964308298E+03  0.15418231916E+03  0.20285043285E+04  0.20534853913E+04  0.00000000000E+00 0. -1.
        -13    1    3    3    0    0 -0.10196136217E+03  0.10015661189E+03  0.12662203144E+04  0.12742611000E+04  0.00000000000E+00 0.  1.
         22    1    1    2    0    0  0.38160444515E+03 -0.25433893105E+03 -0.11495891579E+03  0.47278514859E+03  0.00000000000E+00 0. -1.
<mgrwt>
<rscale>  0 0.20816173E+04</rscale>
<asrwt>0</asrwt>
<pdfrwt beam="1">  1        2 0.53694592E+00 0.20816173E+04</pdfrwt>
<pdfrwt beam="2">  1       -2 0.47751227E-01 0.20816173E+04</pdfrwt>
<totfact> 0.31827461E+00</totfact>
</mgrwt>
</event>
<event>
 6    1  0.4630212E-004  0.1780471E+04  0.7818608E-02  0.8716754E-01
          2   -1    0    0  501    0  0.00000000000E+00  0.00000000000E+00  0.53354917042E+03  0.53354917042E+03  0.00000000000E+00 0.  1.
         -2   -1    0    0    0  501 -0.00000000000E+00 -0.00000000000E+00 -0.14853719320E+04  0.14853719320E+04  0.00000000000E+00 0. -1.
         23    2    1    2    0    0  0.26601356387E+03  0.31248502666E+03  0.41557003439E+03  0.59127507958E+03  0.92182743508E+02 0.  0.
         13    1    3    3    0    0  0.19749277777E+03  0.27327090114E+03  0.29997674500E+03  0.45129417260E+03  0.00000000000E+00 0. -1.
        -13    1    3    3    0    0  0.68520786099E+02  0.39214125528E+02  0.11559328939E+03  0.13998090699E+03  0.00000000000E+00 0.  1.
         22    1    1    2    0    0 -0.26601356387E+03 -0.31248502666E+03 -0.13673927959E+04  0.14276460228E+04  0.00000000000E+00 0. -1.
<mgrwt>
<rscale>  0 0.17804707E+04</rscale>
<asrwt>0</asrwt>
<pdfrwt beam="1">  1        2 0.82084488E-01 0.17804707E+04</pdfrwt>
<pdfrwt beam="2">  1       -2 0.22851876E+00 0.17804707E+04</pdfrwt>
<totfact> 0.47104396E+00</totfact>
</mgrwt>
</event>
<event>
 6    1  0.4630212E-004  0.4073126E+04  0.7818608E-02  0.7989955E-01
         -2   -1    0    0    0  501 -0.00000000000E+00  0.00000000000E+00  0.16552416806E+04  0.16552416806E+04  0.00000000000E+00 0. -1.
          2   -1    0    0  501    0  0.00000000000E+00 -0.00000000000E+00 -0.25057301984E+04  0.25057301984E+04  0.00000000000E+00 0.  1.
         23    2    1    2    0    0  0.10719044619E+04  0.16942808154E+04 -0.65947193757E+02  0.20080502023E+04  0.91377929503E+02 0.  0.
         13    1    3    3    0    0  0.22867450646E+03  0.35292378580E+03 -0.50833079353E+02  0.42359323702E+03  0.00000000000E+00 0.  1.
        -13    1    3    3    0    0  0.84322995543E+03  0.13413570296E+04 -0.15114114403E+02  0.15844569653E+04  0.00000000000E+00 0. -1.
         22    1    1    2    0    0 -0.10719044619E+04 -0.16942808154E+04 -0.78454132406E+03  0.21529216767E+04  0.00000000000E+00 0.  1.
<mgrwt>
<rscale>  0 0.40731261E+04</rscale>
<asrwt>0</asrwt>
<pdfrwt beam="1">  1        2 0.38549695E+00 0.40731261E+04</pdfrwt>
<pdfrwt beam="2">  1       -2 0.25465257E+00 0.40731261E+04</pdfrwt>
<totfact> 0.16300528E-01</totfact>
</mgrwt>
</event>
<event>
 6    1  0.4630212E-004  0.3960121E+04  0.7818608E-02  0.8012640E-01
          2   -1    0    0  501    0  0.00000000000E+00  0.00000000000E+00  0.10869579198E+04  0.10869579198E+04  0.00000000000E+00 0.  1.
         -2   -1    0    0    0  501 -0.00000000000E+00 -0.00000000000E+00 -0.36069846832E+04  0.36069846832E+04  0.00000000000E+00 0. -1.
         23    2    1    2    0    0 -0.14095114310E+04  0.16077371433E+03  0.37458683995E+03  0.14703795784E+04  0.95551778723E+02 0.  0.
         13    1    3    3    0    0 -0.58803698319E+03  0.22764521214E+02  0.13789304037E+03  0.60441724629E+03  0.00000000000E+00 0.  1.
        -13    1    3    3    0    0 -0.82147444781E+03  0.13800919312E+03  0.23669379958E+03  0.86596233207E+03  0.00000000000E+00 0. -1.
         22    1    1    2    0    0  0.14095114310E+04 -0.16077371433E+03 -0.28946136033E+04  0.32235630247E+04  0.00000000000E+00 0. -1.
<mgrwt>
<rscale>  0 0.39601215E+04</rscale>
<asrwt>0</asrwt>
<pdfrwt beam="1">  1        2 0.16722429E+00 0.39601215E+04</pdfrwt>
<pdfrwt beam="2">  1       -2 0.55492073E+00 0.39601215E+04</pdfrwt>
<totfact> 0.14160928E-02</totfact>
</mgrwt>
</event>
<event>
 6    1  0.4630212E-004  0.2502141E+04  0.7818608E-02  0.8402223E-01
          2   -1    0    0  501    0  0.00000000000E+00  0.00000000000E+00  0.15180713041E+04  0.15180713041E+04  0.00000000000E+00 0.  1.
         -2   -1    0    0    0  501 -0.00000000000E+00 -0.00000000000E+00 -0.10310301913E+04  0.10310301913E+04  0.00000000000E+00 0. -1.
         23    2    1    2    0    0 -0.80455015339E+03  0.86335476736E+02 -0.72501700898E+03  0.10917615713E+04  0.10741927875E+03 0.  0.
         13    1    3    3    0    0 -0.65135302419E+03  0.50916344723E+02 -0.53019990611E+03  0.84140666549E+03  0.00000000000E+00 0. -1.
        -13    1    3    3    0    0 -0.15319712920E+03  0.35419132013E+02 -0.19481710287E+03  0.25035490584E+03  0.00000000000E+00 0.  1.
         22    1    1    2    0    0  0.80455015339E+03 -0.86335476736E+02  0.12120581217E+04  0.14573399241E+04  0.00000000000E+00 0.  1.
<mgrwt>
<rscale>  0 0.25021410E+04</rscale>
<asrwt>0</asrwt>
<pdfrwt beam="1">  1        2 0.23354943E+00 0.25021410E+04</pdfrwt>
<pdfrwt beam="2">  1       -2 0.15862003E+00 0.25021410E+04</pdfrwt>
<totfact> 0.28519425E+00</totfact>
</mgrwt>
</event>
<event>
 6    1  0.4630212E-004  0.2899495E+04  0.7818608E-02  0.8273028E-01
          2   -1    0    0  501    0  0.00000000000E+00  0.00000000000E+00  0.10890178811E+04  0.10890178811E+04  0.00000000000E+00 0. -1.
         -2   -1    0    0    0  501 -0.00000000000E+00 -0.00000000000E+00 -0.19299665372E+04  0.19299665372E+04  0.00000000000E+00 0.  1.
         23    2    1    2    0    0 -0.44445033993E+03  0.13651413082E+04 -0.22221393119E+03  0.14556611773E+04  0.91779824104E+02 0.  0.
         11    1    3    3    0    0 -0.30673328422E+03  0.84272108957E+03 -0.10615569321E+03  0.90306875356E+03  0.00000000000E+00 0. -1.
        -11    1    3    3    0    0 -0.13771705571E+03  0.52242021858E+03 -0.11605823798E+03  0.55259242378E+03  0.00000000000E+00 0.  1.
         22    1    1    2    0    0  0.44445033993E+03 -0.13651413082E+04 -0.61873472492E+03  0.15633232410E+04  0.00000000000E+00 0.  1.
<mgrwt>
<rscale>  0 0.28994952E+04</rscale>
<asrwt>0</asrwt>
<pdfrwt beam="1">  1        2 0.16754121E+00 0.28994952E+04</pdfrwt>
<pdfrwt beam="2">  1       -2 0.29691793E+00 0.28994952E+04</pdfrwt>
<totfact> 0.63400016E-01</totfact>
</mgrwt>
</event>
<event>
 6    1  0.4630212E-004  0.2411087E+04  0.7818608E-02  0.8435365E-01
         -2   -1    0    0    0  501 -0.00000000000E+00  0.00000000000E+00  0.45727779161E+03  0.45727779161E+03  0.00000000000E+00 0. -1.
          2   -1    0    0  501    0  0.00000000000E+00 -0.00000000000E+00 -0.31782315342E+04  0.31782315342E+04  0.00000000000E+00 0.  1.
         23    2    1    2    0    0 -0.18195219452E+03  0.74780969211E+03  0.33556558379E+02  0.77550007149E+03  0.89153696305E+02 0.  0.
         11    1    3    3    0    0 -0.90379551136E+02  0.35404624147E+03 -0.28429618236E+02  0.36650436226E+03  0.00000000000E+00 0.  1.
        -11    1    3    3    0    0 -0.91572643385E+02  0.39376345064E+03  0.61986176615E+02  0.40899570923E+03  0.00000000000E+00 0. -1.
         22    1    1    2    0    0  0.18195219452E+03 -0.74780969211E+03 -0.27545103009E+04  0.28600092543E+04  0.00000000000E+00 0.  1.
<mgrwt>
<rscale>  0 0.24110866E+04</rscale>
<asrwt>0</asrwt>
<pdfrwt beam="1">  1        2 0.48895869E+00 0.24110866E+04</pdfrwt>
<pdfrwt beam="2">  1       -2 0.70350430E-01 0.24110866E+04</pdfrwt>
<totfact> 0.22151331E+00</totfact>
</mgrwt>
</event>
<event>
 6    1  0.4630212E-004  0.3272051E+04  0.7818608E-02  0.8170044E-01
         -2   -1    0    0    0  501 -0.00000000000E+00  0.00000000000E+00  0.15144789359E+04  0.15144789359E+04  0.00000000000E+00 0. -1.
          2   -1    0    0  501    0  0.00000000000E+00 -0.00000000000E+00 -0.17673271323E+04  0.17673271323E+04  0.00000000000E+00 0.  1.
         23    2    1    2    0    0 -0.48534479514E+03 -0.14443697001E+04 -0.72049087318E+03  0.16879261875E+04  0.90688011490E+02 0.  0.
         13    1    3    3    0    0 -0.21958330796E+03 -0.59849555015E+03 -0.25601498174E+03  0.68699157459E+03  0.00000000000E+00 0. -1.
        -13    1    3    3    0    0 -0.26576148718E+03 -0.84587414998E+03 -0.46447589143E+03  0.10009346130E+04  0.00000000000E+00 0.  1.
         22    1    1    2    0    0  0.48534479514E+03  0.14443697001E+04  0.46764267684E+03  0.15938798807E+04  0.00000000000E+00 0. -1.
<mgrwt>
<rscale>  0 0.32720512E+04</rscale>
<asrwt>0</asrwt>
<pdfrwt beam="1">  1        2 0.27189648E+00 0.32720512E+04</pdfrwt>
<pdfrwt beam="2">  1       -2 0.23299676E+00 0.32720512E+04</pdfrwt>
<totfact> 0.61677930E-01</totfact>
</mgrwt>
</event>
<event>
 6    1  0.4630212E-004  0.3698148E+04  0.7818608E-02  0.8068372E-01
          2   -1    0    0  501    0  0.00000000000E+00  0.00000000000E+00  0.32106101384E+04  0.32106101384E+04  0.00000000000E+00 0.  1.
         -2   -1    0    0    0  501 -0.00000000000E+00 -0.00000000000E+00 -0.10649297514E+04  0.10649297514E+04  0.00000000000E+00 0. -1.
         23    2    1    2    0    0  0.76529825122E+03 -0.13207941779E+04  0.22777212846E+04  0.27433475153E+04  0.88105990015E+02 0.  0.
         11    1    3    3    0    0  0.45969625402E+03 -0.87728835723E+03  0.14740552876E+04  0.17758925921E+04  0.00000000000E+00 0. -1.
        -11    1    3    3    0    0  0.30560199721E+03 -0.44350582070E+03  0.80366599703E+03  0.96745492322E+03  0.00000000000E+00 0.  1.
         22    1    1    2    0    0 -0.76529825122E+03  0.13207941779E+04 -0.13204089760E+03  0.15321923745E+04  0.00000000000E+00 0. -1.
<mgrwt>
<rscale>  0 0.36981478E+04</rscale>
<asrwt>0</asrwt>
<pdfrwt beam="1">  1        2 0.49394002E+00 0.36981478E+04</pdfrwt>
<pdfrwt beam="2">  1       -2 0.16383535E+00 0.36981478E+04</pdfrwt>
<totfact> 0.24333426E-01</totfact>
</mgrwt>
</event>
<event>
 6    1  0.4630212E-004  0.1805282E+04  0.7818608E-02  0.8703495E-01
          2   -1    0    0  501    0  0.00000000000E+00  0.00000000000E+00  0.27291859762E+04  0.27291859762E+04  0.00000000000E+00 0.  1.
         -2   -1    0    0    0  501 -0.00000000000E+00 -0.00000000000E+00 -0.29853627120E+03  0.29853627120E+03  0.00000000000E+00 0. -1.
         23    2    1    2    0    0 -0.63016915514E+03  0.19451396238E+03  0.19030558244E+03  0.69232278839E+03  0.90253991393E+02 0.  0.
         13    1    3    3    0    0 -0.22272520293E+03  0.11395257140E+03  0.64718774560E+02  0.25841869965E+03  0.00000000000E+00 0. -1.
        -13    1    3    3    0    0 -0.40744395221E+03  0.80561390983E+02  0.12558680788E+03  0.43390408874E+03  0.00000000000E+00 0.  1.
         22    1    1    2    0    0  0.63016915514E+03 -0.19451396238E+03  0.22403441226E+04  0.23353994590E+04  0.00000000000E+00 0.  1.
<mgrwt>
<rscale>  0 0.18052823E+04</rscale>
<asrwt>0</asrwt>
<pdfrwt beam="1">  1        2 0.41987475E+00 0.18052823E+04</pdfrwt>
<pdfrwt beam="2">  1       -2 0.45928659E-01 0.18052823E+04</pdfrwt>
<totfact> 0.10844678E+01</totfact>
</mgrwt>
</event>
<event>
 6    1  0.4630212E-004  0.3938954E+04  0.7818608E-02  0.8016976E-01
          2   -1    0    0  501    0  0.00000000000E+00  0.00000000000E+00  0.21354091493E+04  0.21354091493E+04  0.00000000000E+00 0.  1.
         -2   -1    0    0    0  501 -0.00000000000E+00 -0.00000000000E+00 -0.18164385906E+04  0.18164385906E+04  0.00000000000E+00 0. -1.
         23    2    1    2    0    0 -0.20727528029E+03  0.16326618766E+04 -0.92388180623E+03  0.18895117232E+04  0.90272448342E+02 0.  0.
         13    1    3    3    0    0 -0.75779813610E+02  0.87258844721E+03 -0.45831557869E+03  0.98853747932E+03  0.00000000000E+00 0.  1.
        -13    1    3    3    0    0 -0.13149546668E+03  0.76007342942E+03 -0.46556622755E+03  0.90097424386E+03  0.00000000000E+00 0. -1.
         22    1    1    2    0    0  0.20727528029E+03 -0.16326618766E+04  0.12428523649E+04  0.20623360168E+04  0.00000000000E+00 0.  1.
<mgrwt>
<rscale>  0 0.39389540E+04</rscale>
<asrwt>0</asrwt>
<pdfrwt beam="1">  1        2 0.32852449E+00 0.39389540E+04</pdfrwt>
<pdfrwt beam="2">  1       -2 0.27945209E+00 0.39389540E+04</pdfrwt>
<totfact> 0.18887791E-01</totfact>
</mgrwt>
</event>
<event>
 6    1  0.4630212E-004  0.3548421E+04  0.7818608E-02  0.8102410E-01
         -2   -1    0    0    0  501 -0.00000000000E+00  0.00000000000E+00  0.11649876579E+04  0.11649876579E+04  0.00000000000E+00 0. -1.
          2   -1    0    0  501    0  0.00000000000E+00 -0.00000000000E+00 -0.27020227549E+04  0.27020227549E+04  0.00000000000E+00 0.  1.
         23    2    1    2    0    0  0.89728954226E+03 -0.11599055354E+04  0.31709640849E+03  0.15030491159E+04  0.89984102889E+02 0.  0.
         11    1    3    3    0    0  0.22135408608E+03 -0.31119723384E+03  0.45552224104E+02  0.38459895332E+03  0.00000000000E+00 0. -1.
        -11    1    3    3    0    0  0.67593545618E+03 -0.84870830153E+03  0.27154418438E+03  0.11184501625E+04  0.00000000000E+00 0.  1.
         22    1    1    2    0    0 -0.89728954226E+03  0.11599055354E+04 -0.18541315055E+04  0.23639612969E+04  0.00000000000E+00 0.  1.
<mgrwt>
<rscale>  0 0.35484211E+04</rscale>
<asrwt>0</asrwt>
<pdfrwt beam="1">  1        2 0.41569580E+00 0.35484211E+04</pdfrwt>
<pdfrwt beam="2">  1       -2 0.17922887E+00 0.35484211E+04</pdfrwt>
<totfact> 0.39776080E-01</totfact>
</mgrwt>
</event>
<event>
 6    1  0.4630212E-004  0.2251030E+04  0.7818608E-02  0.8497483E-01
         -2   -1    0    0    0  501 -0.00000000000E+00  0.00000000000E+00  0.31780011360E+03  0.31780011360E+03  0.00000000000E+00 0. -1.
          2   -1    0    0  501    0  0.00000000000E+00 -0.00000000000E+00 -0.39861031386E+04  0.39861031386E+04  0.00000000000E+00 0.  1.
         23    2    1    2    0    0  0.28145281116E+03  0.99799394873E+03 -0.26648392924E+04  0.28609385717E+04  0.91615772793E+02 0.  0.
         11    1    3    3    0    0  0.20926301347E+03  0.86007567094E+03 -0.22502214008E+04  0.24180606943E+04  0.00000000000E+00 0. -1.
        -11    1    3    3    0    0  0.72189797691E+02  0.13791827780E+03 -0.41461789159E+03  0.44287787738E+03  0.00000000000E+00 0.  1.
         22    1    1    2    0    0 -0.28145281116E+03 -0.99799394873E+03 -0.10034637325E+04  0.14429646805E+04  0.00000000000E+00 0. -1.
<mgrwt>
<rscale>  0 0.22510300E+04</rscale>
<asrwt>0</asrwt>
<pdfrwt beam="1">  1        2 0.61324664E+00 0.22510300E+04</pdfrwt>
<pdfrwt beam="2">  1       -2 0.48892325E-01 0.22510300E+04</pdfrwt>
<totfact> 0.12739097E+00</totfact>
</mgrwt>
</event>
<event>
 6    1  0.4630212E-004  0.2495476E+04  0.7818608E-02  0.8404599E-01
         -2   -1    0    0    0  501 -0.00000000000E+00  0.00000000000E+00  0.15756464392E+04  0.15756464392E+04  0.00000000000E+00 0. -1.
          2   -1    0    0  501    0  0.00000000000E+00 -0.00000000000E+00 -0.98807090521E+03  0.98807090521E+03  0.00000000000E+00 0.  1.
         23    2    1    2    0    0 -0.23352004177E+02 -0.10663515859E+04 -0.36769149305E+03  0.11318702458E+04  0.91006583567E+02 0.  0.
         13    1    3    3    0    0 -0.41945947993E+02 -0.22258616864E+03 -0.75967782919E+02  0.23890410014E+03  0.00000000000E+00 0. -1.
        -13    1    3    3    0    0  0.18593943816E+02 -0.84376541731E+03 -0.29172371013E+03  0.89296614563E+03  0.00000000000E+00 0.  1.
         22    1    1    2    0    0  0.23352004177E+02  0.10663515859E+04  0.95526702706E+03  0.14318470987E+04  0.00000000000E+00 0. -1.
<mgrwt>
<rscale>  0 0.24954762E+04</rscale>
<asrwt>0</asrwt>
<pdfrwt beam="1">  1        2 0.15201091E+00 0.24954762E+04</pdfrwt>
<pdfrwt beam="2">  1       -2 0.24240714E+00 0.24954762E+04</pdfrwt>
<totfact> 0.16371357E+00</totfact>
</mgrwt>
</event>
<event>
 6    1  0.4630212E-004  0.1716778E+04  0.7818608E-02  0.8751853E-01
          2   -1    0    0  501    0  0.00000000000E+00  0.00000000000E+00  0.99414856379E+03  0.99414856379E+03  0.00000000000E+00 0.  1.
         -2   -1    0    0    0  501 -0.00000000000E+00 -0.00000000000E+00 -0.74116815564E+03  0.74116815564E+03  0.00000000000E+00 0. -1.
         23    2    1    2    0    0  0.45236236314E+03  0.32243496507E+03 -0.53135542037E+03  0.77418264648E+03  0.91783294014E+02 0.  0.
         11    1    3    3    0    0  0.34298546257E+03  0.28617966786E+03 -0.44149656535E+03  0.62805815578E+03  0.00000000000E+00 0. -1.
        -11    1    3    3    0    0  0.10937690057E+03  0.36255297212E+02 -0.89858855026E+02  0.14612449070E+03  0.00000000000E+00 0.  1.
         22    1    1    2    0    0 -0.45236236314E+03 -0.32243496507E+03  0.78433582851E+03  0.96113407295E+03  0.00000000000E+00 0. -1.
<mgrwt>
<rscale>  0 0.17167775E+04</rscale>
<asrwt>0</asrwt>
<pdfrwt beam="1">  1        2 0.15294593E+00 0.17167775E+04</pdfrwt>
<pdfrwt beam="2">  1       -2 0.11402587E+00 0.17167775E+04</pdfrwt>
<totfact> 0.14537634E+01</totfact>
</mgrwt>
</event>
<event>
 6    1  0.4630212E-004  0.3361694E+04  0.7818608E-02  0.8147372E-01
          2   -1    0    0  501    0  0.00000000000E+00  0.00000000000E+00  0.18889770292E+04  0.18889770292E+04  0.00000000000E+00 0.  1.
         -2   -1    0    0    0  501 -0.00000000000E+00 -0.00000000000E+00 -0.14956487725E+04  0.14956487725E+04  0.00000000000E+00 0. -1.
         23    2    1    2    0    0  0.12215258764E+04  0.46155756304E+03 -0.86685845257E+03  0.15698995433E+04  0.89331676625E+02 0.  0.
         13    1    3    3    0    0  0.45246425299E+03  0.18372364359E+03 -0.37442894765E+03  0.61536600026E+03  0.00000000000E+00 0.  1.
        -13    1    3    3    0    0  0.76906162339E+03  0.27783391945E+03 -0.49242950493E+03  0.95453354299E+03  0.00000000000E+00 0. -1.
         22    1    1    2    0    0 -0.12215258764E+04 -0.46155756304E+03  0.12601867093E+04  0.18147262584E+04  0.00000000000E+00 0.  1.
<mgrwt>
<rscale>  0 0.33616937E+04</rscale>
<asrwt>0</asrwt>
<pdfrwt beam="1">  1        2 0.29061185E+00 0.33616937E+04</pdfrwt>
<pdfrwt beam="2">  1       -2 0.23009981E+00 0.33616937E+04</pdfrwt>
<totfact> 0.54643666E-01</totfact>
</mgrwt>
</event>
<event>
 6    1  0.4630212E-004  0.2459853E+04  0.7818608E-02  0.8417429E-01
         -2   -1    0    0    0  501 -0.00000000000E+00  0.00000000000E+00  0.11847513065E+04  0.11847513065E+04  0.00000000000E+00 0. -1.
          2   -1    0    0  501    0  0.00000000000E+00 -0.00000000000E+00 -0.12768238278E+04  0.12768238278E+04  0.00000000000E+00 0.  1.
         23    2    1    2    0    0  0.81603416644E+03 -0.78823287515E+03  0.42467518546E+03  0.12148790932E+04  0.91429600104E+02 0.  0.
         11    1    3    3    0    0  0.32640685287E+03 -0.33796547693E+03  0.13119542473E+03  0.48782613364E+03  0.00000000000E+00 0.  1.
        -11    1    3    3    0    0  0.48962731357E+03 -0.45026739822E+03  0.29347976073E+03  0.72705295960E+03  0.00000000000E+00 0. -1.
         22    1    1    2    0    0 -0.81603416644E+03  0.78823287515E+03 -0.51674770676E+03  0.12466960410E+04  0.00000000000E+00 0. -1.
<mgrwt>
<rscale>  0 0.24598526E+04</rscale>
<asrwt>0</asrwt>
<pdfrwt beam="1">  1        2 0.19643444E+00 0.24598526E+04</pdfrwt>
<pdfrwt beam="2">  1       -2 0.18226943E+00 0.24598526E+04</pdfrwt>
<totfact> 0.26697014E+00</totfact>
</mgrwt>
</event>
<event>
 6    1  0.4630212E-004  0.1011038E+04  0.7818608E-02  0.9296521E-01
         -2   -1    0    0    0  501 -0.00000000000E+00  0.00000000000E+00  0.46400612135E+03  0.46400612135E+03  0.00000000000E+00 0. -1.
          2   -1    0    0  501    0  0.00000000000E+00 -0.00000000000E+00 -0.55074534977E+03  0.55074534977E+03  0.00000000000E+00 0.  1.
         23    2    1    2    0    0 -0.40779460880E+03 -0.18335421250E+03  0.18411568205E+03  0.49199187749E+03  0.90786634104E+02 0.  0.
         11    1    3    3    0    0 -0.24660107423E+03 -0.14354882402E+03  0.15046586660E+03  0.32258073671E+03  0.00000000000E+00 0. -1.
        -11    1    3    3    0    0 -0.16119353457E+03 -0.39805388487E+02  0.33649815454E+02  0.16941114078E+03  0.00000000000E+00 0.  1.
         22    1    1    2    0    0  0.40779460880E+03  0.18335421250E+03 -0.27085491047E+03  0.52275959363E+03  0.00000000000E+00 0.  1.
<mgrwt>
<rscale>  0 0.10110375E+04</rscale>
<asrwt>0</asrwt>
<pdfrwt beam="1">  1        2 0.84730054E-01 0.10110375E+04</pdfrwt>
<pdfrwt beam="2">  1       -2 0.71385557E-01 0.10110375E+04</pdfrwt>
<totfact> 0.97738275E+01</totfact>
</mgrwt>
</event>
<event>
 6    1  0.4630212E-004  0.1819245E+04  0.7818608E-02  0.8696132E-01
          2   -1    0    0  501    0  0.00000000000E+00  0.00000000000E+00  0.54001909589E+03  0.54001909589E+03  0.00000000000E+00 0.  1.
         -2   -1    0    0    0  501 -0.00000000000E+00 -0.00000000000E+00 -0.15321918481E+04  0.15321918481E+04  0.00000000000E+00 0. -1.
         23    2    1    2    0    0 -0.81745156219E+03  0.12055830230E+03 -0.70368257660E+02  0.83427520780E+03  0.91115695081E+02 0.  0.
         11    1    3    3    0    0 -0.26818796177E+02 -0.35034178829E+01 -0.17519452345E+02  0.32225036474E+02  0.00000000000E+00 0.  1.
        -11    1    3    3    0    0 -0.79063276601E+03  0.12406172018E+03 -0.52848805315E+02  0.80205017133E+03  0.00000000000E+00 0. -1.
         22    1    1    2    0    0  0.81745156219E+03 -0.12055830230E+03 -0.92180449458E+03  0.12379357362E+04  0.00000000000E+00 0. -1.
<mgrwt>
<rscale>  0 0.18192447E+04</rscale>
<asrwt>0</asrwt>
<pdfrwt beam="1">  1        2 0.83079862E-01 0.18192447E+04</pdfrwt>
<pdfrwt beam="2">  1       -2 0.23572182E+00 0.18192447E+04</pdfrwt>
<totfact> 0.41743334E+00</totfact>
</mgrwt>
</event>
<event>
 6    1  0.4630212E-004  0.4354721E+04  0.7818608E-02  0.7936576E-01
          2   -1    0    0  501    0  0.00000000000E+00  0.00000000000E+00  0.33564455969E+04  0.33564455969E+04  0.00000000000E+00 0.  1.
         -2   -1    0    0    0  501 -0.00000000000E+00 -0.00000000000E+00 -0.14124758577E+04  0.14124758577E+04  0.00000000000E+00 0. -1.
         23    2    1    2    0    0 -0.19307708570E+04 -0.85014577173E+03  0.38650224363E+03  0.21466459284E+04  0.89893393261E+02 0.  0.
         11    1    3    3    0    0 -0.60007550384E+03 -0.24420494955E+03  0.15660167196E+03  0.66652138102E+03  0.00000000000E+00 0. -1.
        -11    1    3    3    0    0 -0.13306953532E+04 -0.60594082218E+03  0.22990057167E+03  0.14801245474E+04  0.00000000000E+00 0.  1.
         22    1    1    2    0    0  0.19307708570E+04  0.85014577173E+03  0.15574674955E+04  0.26222755262E+04  0.00000000000E+00 0.  1.
<mgrwt>
<rscale>  0 0.43547208E+04</rscale>
<asrwt>0</asrwt>
<pdfrwt beam="1">  1        2 0.51637625E+00 0.43547208E+04</pdfrwt>
<pdfrwt beam="2">  1       -2 0.21730398E+00 0.43547208E+04</pdfrwt>
<totfact> 0.80336144E-02</totfact>
</mgrwt>
</event>
<event>
 6    1  0.4630212E-004  0.4996974E+04  0.7818608E-02  0.7828974E-01
          2   -1    0    0  501    0  0.00000000000E+00  0.00000000000E+00  0.25429247571E+04  0.25429247571E+04  0.00000000000E+00 0.  1.
         -2   -1    0    0    0  501 -0.00000000000E+00 -0.00000000000E+00 -0.24548256700E+04  0.24548256700E+04  0.00000000000E+00 0. -1.
         23    2    1    2    0    0 -0.45502746828E+03 -0.86289917737E+03 -0.22555465186E+04  0.24591839592E+04  0.91927475824E+02 0.  0.
         13    1    3    3    0    0 -0.21857105796E+03 -0.31891401767E+03 -0.87622337221E+03  0.95773005385E+03  0.00000000000E+00 0. -1.
        -13    1    3    3    0    0 -0.23645641032E+03 -0.54398515970E+03 -0.13793231463E+04  0.15014539054E+04  0.00000000000E+00 0.  1.
         22    1    1    2    0    0  0.45502746828E+03  0.86289917737E+03  0.23436456056E+04  0.25385664679E+04  0.00000000000E+00 0.  1.
<mgrwt>
<rscale>  0 0.49969739E+04</rscale>
<asrwt>0</asrwt>
<pdfrwt beam="1">  1        2 0.39121919E+00 0.49969739E+04</pdfrwt>
<pdfrwt beam="2">  1       -2 0.37766549E+00 0.49969739E+04</pdfrwt>
<totfact> 0.24815456E-02</totfact>
</mgrwt>
</event>
<event>
 6    1  0.4630212E-004  0.3211045E+04  0.7818608E-02  0.8185906E-01
          2   -1    0    0  501    0  0.00000000000E+00  0.00000000000E+00  0.25483401694E+04  0.25483401694E+04  0.00000000000E+00 0.  1.
         -2   -1    0    0    0  501 -0.00000000000E+00 -0.00000000000E+00 -0.10115223595E+04  0.10115223595E+04  0.00000000000E+00 0. -1.
         23    2    1    2    0    0  0.14068587935E+02  0.71210207729E+03 -0.82453318623E+03  0.10934347840E+04  0.91963895685E+02 0.  0.
         13    1    3    3    0    0 -0.20313684255E+02  0.60645464467E+03 -0.68613218769E+03  0.91595701908E+03  0.00000000000E+00 0.  1.
        -13    1    3    3    0    0  0.34382272189E+02  0.10564743261E+03 -0.13840099854E+03  0.17747776496E+03  0.00000000000E+00 0. -1.
         22    1    1    2    0    0 -0.14068587935E+02 -0.71210207729E+03  0.23613509962E+04  0.24664277449E+04  0.00000000000E+00 0.  1.
<mgrwt>
<rscale>  0 0.32110454E+04</rscale>
<asrwt>0</asrwt>
<pdfrwt beam="1">  1        2 0.39205233E+00 0.32110454E+04</pdfrwt>
<pdfrwt beam="2">  1       -2 0.15561883E+00 0.32110454E+04</pdfrwt>
<totfact> 0.74534445E-01</totfact>
</mgrwt>
</event>
<event>
 6    1  0.4630212E-004  0.4059523E+04  0.7818608E-02  0.7992645E-01
          2   -1    0    0  501    0  0.00000000000E+00  0.00000000000E+00  0.15386741789E+04  0.15386741789E+04  0.00000000000E+00 0.  1.
         -2   -1    0    0    0  501 -0.00000000000E+00 -0.00000000000E+00 -0.26775860352E+04  0.26775860352E+04  0.00000000000E+00 0. -1.
         23    2    1    2    0    0  0.14351784544E+04 -0.13016116534E+04 -0.11945714084E+04  0.22779547485E+04  0.90260147405E+02 0.  0.
         11    1    3    3    0    0  0.25126916098E+03 -0.26070730450E+03 -0.19369001561E+03  0.41063403662E+03  0.00000000000E+00 0.  1.
        -11    1    3    3    0    0  0.11839092935E+04 -0.10409043489E+04 -0.10008813928E+04  0.18673207119E+04  0.00000000000E+00 0. -1.
         22    1    1    2    0    0 -0.14351784544E+04  0.13016116534E+04  0.55659551999E+02  0.19383054656E+04  0.00000000000E+00 0.  1.
<mgrwt>
<rscale>  0 0.40595234E+04</rscale>
<asrwt>0</asrwt>
<pdfrwt beam="1">  1        2 0.23671911E+00 0.40595234E+04</pdfrwt>
<pdfrwt beam="2">  1       -2 0.41193631E+00 0.40595234E+04</pdfrwt>
<totfact> 0.58714963E-02</totfact>
</mgrwt>
</event>
<event>
 6    1  0.4630212E-004  0.1666746E+04  0.7818608E-02  0.8780561E-01
          2   -1    0    0  501    0  0.00000000000E+00  0.00000000000E+00  0.34632253852E+03  0.34632253852E+03  0.00000000000E+00 0.  1.
         -2   -1    0    0    0  501 -0.00000000000E+00 -0.00000000000E+00 -0.20053858766E+04  0.20053858766E+04  0.00000000000E+00 0. -1.
         23    2    1    2    0    0  0.11551995273E+03 -0.27526622734E+03 -0.19262944920E+04  0.19510479043E+04  0.82831754764E+02 0.  0.
         11    1    3    3    0    0  0.12222921867E+03 -0.20160462605E+03 -0.14840150562E+04  0.15026260660E+04  0.00000000000E+00 0. -1.
        -11    1    3    3    0    0 -0.67092659469E+01 -0.73661601290E+02 -0.44227943577E+03  0.44842183829E+03  0.00000000000E+00 0.  1.
         22    1    1    2    0    0 -0.11551995273E+03  0.27526622734E+03  0.26723115385E+03  0.40066051088E+03  0.00000000000E+00 0.  1.
<mgrwt>
<rscale>  0 0.16667457E+04</rscale>
<asrwt>0</asrwt>
<pdfrwt beam="1">  1        2 0.53280391E-01 0.16667457E+04</pdfrwt>
<pdfrwt beam="2">  1       -2 0.30852090E+00 0.16667457E+04</pdfrwt>
<totfact> 0.25211471E+00</totfact>
</mgrwt>
</event>
<event>
 6    1  0.4630212E-004  0.2277600E+04  0.7818608E-02  0.8486806E-01
         -2   -1    0    0    0  501 -0.00000000000E+00  0.00000000000E+00  0.93137377532E+03  0.93137377532E+03  0.00000000000E+00 0. -1.
          2   -1    0    0  501    0  0.00000000000E+00 -0.00000000000E+00 -0.13924220007E+04  0.13924220007E+04  0.00000000000E+00 0.  1.
         23    2    1    2    0    0  0.99968746408E+03  0.17856098903E+03 -0.75076088125E+03  0.12677690360E+04  0.11107373737E+03 0.  0.
         13    1    3    3    0    0  0.53657950944E+03  0.10562062178E+03 -0.33622510475E+03  0.64196620375E+03  0.00000000000E+00 0.  1.
        -13    1    3    3    0    0  0.46310795464E+03  0.72940367250E+02 -0.41453577651E+03  0.62580283223E+03  0.00000000000E+00 0. -1.
         22    1    1    2    0    0 -0.99968746408E+03 -0.17856098903E+03  0.28971265590E+03  0.10560267400E+04  0.00000000000E+00 0. -1.
<mgrwt>
<rscale>  0 0.22775999E+04</rscale>
<asrwt>0</asrwt>
<pdfrwt beam="1">  1        2 0.21421877E+00 0.22775999E+04</pdfrwt>
<pdfrwt beam="2">  1       -2 0.14328827E+00 0.22775999E+04</pdfrwt>
<totfact> 0.44884473E+00</totfact>
</mgrwt>
</event>
<event>
 6    1  0.5675828E-004  0.2570053E+04  0.7818608E-02  0.8378445E-01
         -2   -1    0    0    0  501 -0.00000000000E+00  0.00000000000E+00  0.10027337617E+04  0.10027337617E+04  0.00000000000E+00 0. -1.
          2   -1    0    0  501    0  0.00000000000E+00 -0.00000000000E+00 -0.16467908722E+04  0.16467908722E+04  0.00000000000E+00 0.  1.
         23    2    1    2    0    0 -0.96434171652E+02 -0.25836815604E+03 -0.16145781638E+04  0.16405822330E+04  0.92702550203E+02 0.  0.
         13    1    3    3    0    0  0.19740282780E+01 -0.10059700611E+03 -0.70964912412E+03  0.71674649200E+03  0.00000000000E+00 0. -1.
        -13    1    3    3    0    0 -0.98408199930E+02 -0.15777114993E+03 -0.90492903966E+03  0.92383574102E+03  0.00000000000E+00 0.  1.
         22    1    1    2    0    0  0.96434171652E+02  0.25836815604E+03  0.97052105321E+03  0.10089424009E+04  0.00000000000E+00 0. -1.
<mgrwt>
<rscale>  0 0.25700528E+04</rscale>
<asrwt>0</asrwt>
<pdfrwt beam="1">  1        2 0.25335244E+00 0.25700528E+04</pdfrwt>
<pdfrwt beam="2">  1       -2 0.15426673E+00 0.25700528E+04</pdfrwt>
<totfact> 0.25891913E+00</totfact>
</mgrwt>
</event>
<event>
 6    1  0.4630212E-004  0.3239642E+04  0.7818608E-02  0.8178425E-01
          1   -1    0    0  501    0  0.00000000000E+00  0.00000000000E+00  0.20891818576E+04  0.20891818576E+04  0.00000000000E+00 0.  1.
         -1   -1    0    0    0  501 -0.00000000000E+00 -0.00000000000E+00 -0.12559082965E+04  0.12559082965E+04  0.00000000000E+00 0. -1.
         23    2    1    2    0    0 -0.72625131973E+03  0.12013945683E+04  0.12500939154E+04  0.18806690754E+04  0.58236462622E+02 0.  0.
         11    1    3    3    0    0 -0.23128622954E+03  0.39668425412E+03  0.44446376907E+03  0.63906162415E+03  0.00000000000E+00 0. -1.
        -11    1    3    3    0    0 -0.49496509019E+03  0.80471031419E+03  0.80563014635E+03  0.12416074512E+04  0.00000000000E+00 0.  1.
         22    1    1    2    0    0  0.72625131973E+03 -0.12013945683E+04 -0.41682035434E+03  0.14644210788E+04  0.00000000000E+00 0. -1.
<mgrwt>
<rscale>  0 0.32396425E+04</rscale>
<asrwt>0</asrwt>
<pdfrwt beam="1">  1        1 0.32141259E+00 0.32396425E+04</pdfrwt>
<pdfrwt beam="2">  1       -1 0.19321666E+00 0.32396425E+04</pdfrwt>
<totfact> 0.36258036E-01</totfact>
</mgrwt>
</event>
<event>
 6    1  0.4630212E-004  0.2951185E+04  0.7818608E-02  0.8257809E-01
         -1   -1    0    0    0  501 -0.00000000000E+00  0.00000000000E+00  0.71453740706E+03  0.71453740706E+03  0.00000000000E+00 0. -1.
          1   -1    0    0  501    0  0.00000000000E+00 -0.00000000000E+00 -0.30472482064E+04  0.30472482064E+04  0.00000000000E+00 0.  1.
         23    2    1    2    0    0  0.14523738148E+04  0.30628252910E+02 -0.84786005924E+03  0.16845014470E+04  0.91381931038E+02 0.  0.
         11    1    3    3    0    0  0.67486561043E+03 -0.27699613913E+02 -0.37288970951E+03  0.77152938778E+03  0.00000000000E+00 0.  1.
        -11    1    3    3    0    0  0.77750820433E+03  0.58327866822E+02 -0.47497034973E+03  0.91297205925E+03  0.00000000000E+00 0. -1.
         22    1    1    2    0    0 -0.14523738148E+04 -0.30628252910E+02 -0.14848507401E+04  0.20772841664E+04  0.00000000000E+00 0.  1.
<mgrwt>
<rscale>  0 0.29511847E+04</rscale>
<asrwt>0</asrwt>
<pdfrwt beam="1">  1        1 0.46880742E+00 0.29511847E+04</pdfrwt>
<pdfrwt beam="2">  1       -1 0.10992883E+00 0.29511847E+04</pdfrwt>
<totfact> 0.36027932E-01</totfact>
</mgrwt>
</event>
<event>
 6    1  0.4630212E-004  0.1092108E+04  0.7818608E-02  0.9212918E-01
         -2   -1    0    0    0  501 -0.00000000000E+00  0.00000000000E+00  0.38250869063E+03  0.38250869063E+03  0.00000000000E+00 0. -1.
          2   -1    0    0  501    0  0.00000000000E+00 -0.00000000000E+00 -0.77952515289E+03  0.77952515289E+03  0.00000000000E+00 0.  1.
         23    2    1    2    0    0 -0.33308744841E+03  0.40016115001E+03 -0.36105432177E+03  0.64014355829E+03  0.91363875146E+02 0.  0.
         13    1    3    3    0    0 -0.45866010137E+02  0.86822638140E+02 -0.10572684269E+03  0.14429146421E+03  0.00000000000E+00 0. -1.
        -13    1    3    3    0    0 -0.28722143827E+03  0.31333851187E+03 -0.25532747908E+03  0.49585209407E+03  0.00000000000E+00 0.  1.
         22    1    1    2    0    0  0.33308744841E+03 -0.40016115001E+03 -0.35962140495E+02  0.52189028523E+03  0.00000000000E+00 0. -1.
<mgrwt>
<rscale>  0 0.10921083E+04</rscale>
<asrwt>0</asrwt>
<pdfrwt beam="1">  1        2 0.11992695E+00 0.10921083E+04</pdfrwt>
<pdfrwt beam="2">  1       -2 0.58847491E-01 0.10921083E+04</pdfrwt>
<totfact> 0.95587935E+01</totfact>
</mgrwt>
</event>
<event>
 6    1  0.4630212E-004  0.2443985E+04  0.7818608E-02  0.8423217E-01
         -2   -1    0    0    0  501 -0.00000000000E+00  0.00000000000E+00  0.71150045056E+03  0.71150045056E+03  0.00000000000E+00 0. -1.
          2   -1    0    0  501    0  0.00000000000E+00 -0.00000000000E+00 -0.20987557934E+04  0.20987557934E+04  0.00000000000E+00 0.  1.
         23    2    1    2    0    0 -0.86363832158E+03 -0.43111899221E+03 -0.15530406062E+04  0.18308587304E+04  0.91508636291E+02 0.  0.
         11    1    3    3    0    0 -0.67128196446E+03 -0.29145637719E+03 -0.11636927536E+04  0.13746807340E+04  0.00000000000E+00 0.  1.
        -11    1    3    3    0    0 -0.19235635712E+03 -0.13966261502E+03 -0.38934785257E+03  0.45617799647E+03  0.00000000000E+00 0. -1.
         22    1    1    2    0    0  0.86363832158E+03  0.43111899221E+03  0.16578526333E+03  0.97939751352E+03  0.00000000000E+00 0. -1.
<mgrwt>
<rscale>  0 0.24439850E+04</rscale>
<asrwt>0</asrwt>
<pdfrwt beam="1">  1        2 0.32288551E+00 0.24439850E+04</pdfrwt>
<pdfrwt beam="2">  1       -2 0.10946161E+00 0.24439850E+04</pdfrwt>
<totfact> 0.35057324E+00</totfact>
</mgrwt>
</event>
<event>
 6    1  0.4630212E-004  0.5255159E+04  0.7818608E-02  0.7790308E-01
          2   -1    0    0  501    0  0.00000000000E+00  0.00000000000E+00  0.28261393464E+04  0.28261393464E+04  0.00000000000E+00 0.  1.
         -2   -1    0    0    0  501 -0.00000000000E+00 -0.00000000000E+00 -0.24429703860E+04  0.24429703860E+04  0.00000000000E+00 0. -1.
         23    2    1    2    0    0 -0.23988134141E+04  0.10668418799E+04  0.10458935649E+03  0.26290218573E+04  0.91430848803E+02 0.  0.
         11    1    3    3    0    0 -0.13091854060E+04  0.61976113590E+03  0.87581346032E+02  0.14511170817E+04  0.00000000000E+00 0. -1.
        -11    1    3    3    0    0 -0.10896280082E+04  0.44708074400E+03  0.17008010456E+02  0.11779047756E+04  0.00000000000E+00 0.  1.
         22    1    1    2    0    0  0.23988134141E+04 -0.10668418799E+04  0.27857960391E+03  0.26400878751E+04  0.00000000000E+00 0.  1.
<mgrwt>
<rscale>  0 0.52551593E+04</rscale>
<asrwt>0</asrwt>
<pdfrwt beam="1">  1        2 0.43479067E+00 0.52551593E+04</pdfrwt>
<pdfrwt beam="2">  1       -2 0.37584160E+00 0.52551593E+04</pdfrwt>
<totfact> 0.16942896E-02</totfact>
</mgrwt>
</event>
<event>
 6    1  0.4630212E-004  0.1892188E+04  0.7818608E-02  0.8658755E-01
         -2   -1    0    0    0  501 -0.00000000000E+00  0.00000000000E+00  0.13664582806E+04  0.13664582806E+04  0.00000000000E+00 0. -1.
          2   -1    0    0  501    0  0.00000000000E+00 -0.00000000000E+00 -0.65504636203E+03  0.65504636203E+03  0.00000000000E+00 0.  1.
         23    2    1    2    0    0 -0.59036599725E+03 -0.56552019677E+03 -0.14785533763E+03  0.83546698673E+03  0.88310709353E+02 0.  0.
         11    1    3    3    0    0 -0.33337565357E+03 -0.25904543475E+03 -0.68592489650E+02  0.42772513755E+03  0.00000000000E+00 0.  1.
        -11    1    3    3    0    0 -0.25699034368E+03 -0.30647476202E+03 -0.79262847983E+02  0.40774184918E+03  0.00000000000E+00 0. -1.
         22    1    1    2    0    0  0.59036599725E+03  0.56552019677E+03  0.85926725623E+03  0.11860376559E+04  0.00000000000E+00 0. -1.
<mgrwt>
<rscale>  0 0.18921876E+04</rscale>
<asrwt>0</asrwt>
<pdfrwt beam="1">  1        2 0.10077636E+00 0.18921876E+04</pdfrwt>
<pdfrwt beam="2">  1       -2 0.21022435E+00 0.18921876E+04</pdfrwt>
<totfact> 0.47598186E+00</totfact>
</mgrwt>
</event>
<event>
 6    1  0.4630212E-004  0.1179898E+04  0.7818608E-02  0.9130636E-01
         -2   -1    0    0    0  501 -0.00000000000E+00  0.00000000000E+00  0.19268142075E+03  0.19268142075E+03  0.00000000000E+00 0. -1.
          2   -1    0    0  501    0  0.00000000000E+00 -0.00000000000E+00 -0.18062959810E+04  0.18062959810E+04  0.00000000000E+00 0.  1.
         23    2    1    2    0    0 -0.30588192376E+03  0.71897170264E+02 -0.16504903057E+04  0.16826029796E+04  0.91113025316E+02 0.  0.
         11    1    3    3    0    0 -0.54146377388E+02 -0.21663648395E+02 -0.32214657509E+03  0.32738289462E+03  0.00000000000E+00 0.  1.
        -11    1    3    3    0    0 -0.25173554638E+03  0.93560818659E+02 -0.13283437306E+04  0.13552200850E+04  0.00000000000E+00 0. -1.
         22    1    1    2    0    0  0.30588192376E+03 -0.71897170264E+02  0.36875745469E+02  0.31637442213E+03  0.00000000000E+00 0. -1.
<mgrwt>
<rscale>  0 0.11798978E+04</rscale>
<asrwt>0</asrwt>
<pdfrwt beam="1">  1        2 0.27789170E+00 0.11798978E+04</pdfrwt>
<pdfrwt beam="2">  1       -2 0.29643295E-01 0.11798978E+04</pdfrwt>
<totfact> 0.88707745E+01</totfact>
</mgrwt>
</event>
<event>
 6    1  0.4630212E-004  0.4676157E+03  0.7818608E-02  0.1022595E+00
         -2   -1    0    0    0  501 -0.00000000000E+00  0.00000000000E+00  0.23957913572E+03  0.23957913572E+03  0.00000000000E+00 0. -1.
          2   -1    0    0  501    0  0.00000000000E+00 -0.00000000000E+00 -0.22817555483E+03  0.22817555483E+03  0.00000000000E+00 0.  1.
         23    2    1    2    0    0  0.17018306297E+03  0.10097874922E+03 -0.10036169308E+03  0.24048731677E+03  0.92750727073E+02 0.  0.
         13    1    3    3    0    0  0.17825299692E+02  0.47489286844E+02 -0.69158009149E+00  0.50729202212E+02  0.00000000000E+00 0.  1.
        -13    1    3    3    0    0  0.15235776328E+03  0.53489462373E+02 -0.99670112991E+02  0.18975811456E+03  0.00000000000E+00 0. -1.
         22    1    1    2    0    0 -0.17018306297E+03 -0.10097874922E+03  0.11176527398E+03  0.22726737378E+03  0.00000000000E+00 0. -1.
<mgrwt>
<rscale>  0 0.46761566E+03</rscale>
<asrwt>0</asrwt>
<pdfrwt beam="1">  1        2 0.35103931E-01 0.46761566E+03</pdfrwt>
<pdfrwt beam="2">  1       -2 0.36858329E-01 0.46761566E+03</pdfrwt>
<totfact> 0.10342505E+03</totfact>
</mgrwt>
</event>
<event>
 6    1  0.4630212E-004  0.1963973E+04  0.7818608E-02  0.8623652E-01
          2   -1    0    0  501    0  0.00000000000E+00  0.00000000000E+00  0.11159700127E+04  0.11159700127E+04  0.00000000000E+00 0.  1.
         -2   -1    0    0    0  501 -0.00000000000E+00 -0.00000000000E+00 -0.86408911234E+03  0.86408911234E+03  0.00000000000E+00 0. -1.
         23    2    1    2    0    0  0.18380718802E+03 -0.35014280927E+03  0.10300921747E+04  0.11071342389E+04  0.90946495977E+02 0.  0.
         13    1    3    3    0    0  0.86362867263E+02 -0.96408903558E+02  0.25901736716E+03  0.28955693399E+03  0.00000000000E+00 0.  1.
        -13    1    3    3    0    0  0.97444320758E+02 -0.25373390571E+03  0.77107480758E+03  0.81757730487E+03  0.00000000000E+00 0. -1.
         22    1    1    2    0    0 -0.18380718802E+03  0.35014280927E+03 -0.77821127441E+03  0.87292488615E+03  0.00000000000E+00 0. -1.
<mgrwt>
<rscale>  0 0.19639731E+04</rscale>
<asrwt>0</asrwt>
<pdfrwt beam="1">  1        2 0.17168769E+00 0.19639731E+04</pdfrwt>
<pdfrwt beam="2">  1       -2 0.13293679E+00 0.19639731E+04</pdfrwt>
<totfact> 0.81436365E+00</totfact>
</mgrwt>
</event>
<event>
 6    1  0.4630212E-004  0.2132526E+04  0.7818608E-02  0.8547049E-01
          2   -1    0    0  501    0  0.00000000000E+00  0.00000000000E+00  0.93839106302E+03  0.93839106302E+03  0.00000000000E+00 0.  1.
         -2   -1    0    0    0  501 -0.00000000000E+00 -0.00000000000E+00 -0.12115591301E+04  0.12115591301E+04  0.00000000000E+00 0. -1.
         23    2    1    2    0    0  0.55849035831E+03 -0.64262561116E+03  0.50695417685E+03  0.99519053330E+03  0.92317407304E+02 0.  0.
         13    1    3    3    0    0  0.27824585847E+03 -0.32502526999E+03  0.20122927342E+03  0.47281645949E+03  0.00000000000E+00 0.  1.
        -13    1    3    3    0    0  0.28024449985E+03 -0.31760034117E+03  0.30572490344E+03  0.52237407381E+03  0.00000000000E+00 0. -1.
         22    1    1    2    0    0 -0.55849035831E+03  0.64262561116E+03 -0.78012224389E+03  0.11547596598E+04  0.00000000000E+00 0. -1.
<mgrwt>
<rscale>  0 0.21325255E+04</rscale>
<asrwt>0</asrwt>
<pdfrwt beam="1">  1        2 0.14436786E+00 0.21325255E+04</pdfrwt>
<pdfrwt beam="2">  1       -2 0.18639371E+00 0.21325255E+04</pdfrwt>
<totfact> 0.41625231E+00</totfact>
</mgrwt>
</event>
<event>
 6    1  0.4630212E-004  0.2864008E+04  0.7818608E-02  0.8283667E-01
         -2   -1    0    0    0  501 -0.00000000000E+00  0.00000000000E+00  0.72762598704E+03  0.72762598704E+03  0.00000000000E+00 0. -1.
          2   -1    0    0  501    0  0.00000000000E+00 -0.00000000000E+00 -0.28182546732E+04  0.28182546732E+04  0.00000000000E+00 0.  1.
         23    2    1    2    0    0 -0.71740620208E+02  0.15353528391E+03 -0.28051088948E+04  0.28115770660E+04  0.87234664145E+02 0.  0.
         13    1    3    3    0    0 -0.23875667532E+02 -0.26167576843E+01 -0.21828343531E+03  0.21960089492E+03  0.00000000000E+00 0.  1.
        -13    1    3    3    0    0 -0.47864952676E+02  0.15615204160E+03 -0.25868254594E+04  0.25919761711E+04  0.00000000000E+00 0. -1.
         22    1    1    2    0    0  0.71740620208E+02 -0.15353528391E+03  0.71448020862E+03  0.73430359423E+03  0.00000000000E+00 0. -1.
<mgrwt>
<rscale>  0 0.28640079E+04</rscale>
<asrwt>0</asrwt>
<pdfrwt beam="1">  1        2 0.43357765E+00 0.28640079E+04</pdfrwt>
<pdfrwt beam="2">  1       -2 0.11194246E+00 0.28640079E+04</pdfrwt>
<totfact> 0.12281641E+00</totfact>
</mgrwt>
</event>
<event>
 6    1  0.4630212E-004  0.1344602E+04  0.7818608E-02  0.8994924E-01
         -2   -1    0    0    0  501 -0.00000000000E+00  0.00000000000E+00  0.93491411045E+03  0.93491411045E+03  0.00000000000E+00 0. -1.
          2   -1    0    0  501    0  0.00000000000E+00 -0.00000000000E+00 -0.48345466842E+03  0.48345466842E+03  0.00000000000E+00 0.  1.
         23    2    1    2    0    0  0.63420368574E+03  0.20435825302E+03  0.27774726872E+03  0.72978143528E+03  0.10705506723E+03 0.  0.
         11    1    3    3    0    0  0.34008584786E+03  0.15278370019E+03  0.19057227487E+03  0.41871115928E+03  0.00000000000E+00 0.  1.
        -11    1    3    3    0    0  0.29411783788E+03  0.51574552830E+02  0.87174993851E+02  0.31107027600E+03  0.00000000000E+00 0. -1.
         22    1    1    2    0    0 -0.63420368574E+03 -0.20435825302E+03  0.17371217331E+03  0.68858734358E+03  0.00000000000E+00 0.  1.
<mgrwt>
<rscale>  0 0.13446019E+04</rscale>
<asrwt>0</asrwt>
<pdfrwt beam="1">  1        2 0.74377642E-01 0.13446019E+04</pdfrwt>
<pdfrwt beam="2">  1       -2 0.14383294E+00 0.13446019E+04</pdfrwt>
<totfact> 0.20925355E+01</totfact>
</mgrwt>
</event>
<event>
 6    1  0.4630212E-004  0.3223463E+04  0.7818608E-02  0.8182648E-01
         -2   -1    0    0    0  501 -0.00000000000E+00  0.00000000000E+00  0.33844833485E+04  0.33844833485E+04  0.00000000000E+00 0. -1.
          2   -1    0    0  501    0  0.00000000000E+00 -0.00000000000E+00 -0.76752562715E+03  0.76752562715E+03  0.00000000000E+00 0.  1.
         23    2    1    2    0    0 -0.70443903815E+03 -0.14481581024E+04  0.13289643546E+04  0.20898927905E+04  0.90052052424E+02 0.  0.
         11    1    3    3    0    0 -0.62108950989E+03 -0.12220394425E+04  0.11573136671E+04  0.17940199280E+04  0.00000000000E+00 0. -1.
        -11    1    3    3    0    0 -0.83349528259E+02 -0.22611865994E+03  0.17165068751E+03  0.29587286249E+03  0.00000000000E+00 0.  1.
         22    1    1    2    0    0  0.70443903815E+03  0.14481581024E+04  0.12879933668E+04  0.20621161851E+04  0.00000000000E+00 0. -1.
<mgrwt>
<rscale>  0 0.32234626E+04</rscale>
<asrwt>0</asrwt>
<pdfrwt beam="1">  1        2 0.11808087E+00 0.32234626E+04</pdfrwt>
<pdfrwt beam="2">  1       -2 0.52068974E+00 0.32234626E+04</pdfrwt>
<totfact> 0.37715440E-02</totfact>
</mgrwt>
</event>
<event>
 6    1  0.4630212E-004  0.1074996E+04  0.7818608E-02  0.9229911E-01
         -2   -1    0    0    0  501 -0.00000000000E+00  0.00000000000E+00  0.21220461732E+03  0.21220461732E+03  0.00000000000E+00 0. -1.
          2   -1    0    0  501    0  0.00000000000E+00 -0.00000000000E+00 -0.13614403473E+04  0.13614403473E+04  0.00000000000E+00 0.  1.
         23    2    1    2    0    0 -0.81063674174E+02 -0.31661072856E+03  0.39077897515E+02  0.34120715686E+03  0.89897547857E+02 0.  0.
         13    1    3    3    0    0 -0.17915527581E+02 -0.16014563607E+03 -0.20120530479E+02  0.16239589474E+03  0.00000000000E+00 0. -1.
        -13    1    3    3    0    0 -0.63148146594E+02 -0.15646509249E+03  0.59198427994E+02  0.17881126212E+03  0.00000000000E+00 0.  1.
         22    1    1    2    0    0  0.81063674174E+02  0.31661072856E+03 -0.11883136275E+04  0.12324378078E+04  0.00000000000E+00 0.  1.
<mgrwt>
<rscale>  0 0.10749957E+04</rscale>
<asrwt>0</asrwt>
<pdfrwt beam="1">  1        2 0.20945236E+00 0.10749957E+04</pdfrwt>
<pdfrwt beam="2">  1       -2 0.32646864E-01 0.10749957E+04</pdfrwt>
<totfact> 0.13230324E+02</totfact>
</mgrwt>
</event>
<event>
 6    1  0.8160885E-004  0.3032440E+04  0.7818608E-02  0.8234528E-01
         -2   -1    0    0    0  501 -0.00000000000E+00  0.00000000000E+00  0.70335164560E+03  0.70335164560E+03  0.00000000000E+00 0. -1.
          2   -1    0    0  501    0  0.00000000000E+00 -0.00000000000E+00 -0.32685258148E+04  0.32685258148E+04  0.00000000000E+00 0.  1.
         23    2    1    2    0    0 -0.80961591133E+03 -0.11470104262E+04 -0.53904345396E+03  0.15068588972E+04  0.94578269688E+02 0.  0.
         13    1    3    3    0    0 -0.27090061563E+03 -0.33227649824E+03 -0.13058596640E+03  0.44816013818E+03  0.00000000000E+00 0.  1.
        -13    1    3    3    0    0 -0.53871529570E+03 -0.81473392798E+03 -0.40845748757E+03  0.10586987590E+04  0.00000000000E+00 0. -1.
         22    1    1    2    0    0  0.80961591133E+03  0.11470104262E+04 -0.20261307153E+04  0.24650185632E+04  0.00000000000E+00 0.  1.
<mgrwt>
<rscale>  0 0.30324399E+04</rscale>
<asrwt>0</asrwt>
<pdfrwt beam="1">  1        2 0.50285012E+00 0.30324399E+04</pdfrwt>
<pdfrwt beam="2">  1       -2 0.10820795E+00 0.30324399E+04</pdfrwt>
<totfact> 0.68169175E-01</totfact>
</mgrwt>
</event>
<event>
 6    1  0.4630212E-004  0.8708826E+03  0.7818608E-02  0.9462730E-01
          2   -1    0    0  501    0  0.00000000000E+00  0.00000000000E+00  0.11064707742E+04  0.11064707742E+04  0.00000000000E+00 0.  1.
         -2   -1    0    0    0  501 -0.00000000000E+00 -0.00000000000E+00 -0.17136388716E+03  0.17136388716E+03  0.00000000000E+00 0. -1.
         23    2    1    2    0    0 -0.89227894147E+02  0.10177534379E+03  0.10726672824E+04  0.10848509832E+04  0.89256480479E+02 0.  0.
         13    1    3    3    0    0 -0.20779188898E+02  0.98849754951E+01  0.51603357372E+03  0.51654635478E+03  0.00000000000E+00 0.  1.
        -13    1    3    3    0    0 -0.68448705249E+02  0.91890368294E+02  0.55663370864E+03  0.56830462837E+03  0.00000000000E+00 0. -1.
         22    1    1    2    0    0  0.89227894147E+02 -0.10177534379E+03 -0.13756039531E+03  0.19298367821E+03  0.00000000000E+00 0. -1.
<mgrwt>
<rscale>  0 0.87088262E+03</rscale>
<asrwt>0</asrwt>
<pdfrwt beam="1">  1        2 0.17022627E+00 0.87088262E+03</pdfrwt>
<pdfrwt beam="2">  1       -2 0.26363676E-01 0.87088262E+03</pdfrwt>
<totfact> 0.28166344E+02</totfact>
</mgrwt>
</event>
<event>
 6    1  0.4630212E-004  0.3119231E+04  0.7818608E-02  0.8210480E-01
          2   -1    0    0  501    0  0.00000000000E+00  0.00000000000E+00  0.39496906698E+04  0.39496906698E+04  0.00000000000E+00 0.  1.
         -2   -1    0    0    0  501 -0.00000000000E+00 -0.00000000000E+00 -0.61584574953E+03  0.61584574953E+03  0.00000000000E+00 0. -1.
         23    2    1    2    0    0 -0.66303134560E+02  0.78250956035E+03 -0.30154788728E+03  0.84628942794E+03  0.92505944834E+02 0.  0.
         13    1    3    3    0    0 -0.55055648499E+00  0.17578828691E+03 -0.10682810258E+03  0.20570383669E+03  0.00000000000E+00 0.  1.
        -13    1    3    3    0    0 -0.65752578075E+02  0.60672127343E+03 -0.19471978470E+03  0.64058559125E+03  0.00000000000E+00 0. -1.
         22    1    1    2    0    0  0.66303134560E+02 -0.78250956035E+03  0.36353928075E+04  0.37192469913E+04  0.00000000000E+00 0.  1.
<mgrwt>
<rscale>  0 0.31192308E+04</rscale>
<asrwt>0</asrwt>
<pdfrwt beam="1">  1        2 0.60764470E+00 0.31192308E+04</pdfrwt>
<pdfrwt beam="2">  1       -2 0.94745502E-01 0.31192308E+04</pdfrwt>
<totfact> 0.29815740E-01</totfact>
</mgrwt>
</event>
<event>
 6    1  0.4630212E-004  0.4329648E+04  0.7818608E-02  0.7941158E-01
          2   -1    0    0  501    0  0.00000000000E+00  0.00000000000E+00  0.24239691788E+04  0.24239691788E+04  0.00000000000E+00 0.  1.
         -2   -1    0    0    0  501 -0.00000000000E+00 -0.00000000000E+00 -0.19333843012E+04  0.19333843012E+04  0.00000000000E+00 0. -1.
         23    2    1    2    0    0  0.43427035493E+02 -0.59108215909E+03  0.23398888948E+04  0.24153984408E+04  0.88349089109E+02 0.  0.
         13    1    3    3    0    0  0.50569399223E+02 -0.54363814024E+03  0.20449301203E+04  0.21165629895E+04  0.00000000000E+00 0.  1.
        -13    1    3    3    0    0 -0.71423637299E+01 -0.47444018853E+02  0.29495877456E+03  0.29883545133E+03  0.00000000000E+00 0. -1.
         22    1    1    2    0    0 -0.43427035493E+02  0.59108215909E+03 -0.18493040172E+04  0.19419550392E+04  0.00000000000E+00 0. -1.
<mgrwt>
<rscale>  0 0.43296485E+04</rscale>
<asrwt>0</asrwt>
<pdfrwt beam="1">  1        2 0.37291834E+00 0.43296485E+04</pdfrwt>
<pdfrwt beam="2">  1       -2 0.29744374E+00 0.43296485E+04</pdfrwt>
<totfact> 0.97489665E-02</totfact>
</mgrwt>
</event>
<event>
 6    1  0.4630212E-004  0.5860618E+03  0.7818608E-02  0.9934753E-01
          2   -1    0    0  501    0  0.00000000000E+00  0.00000000000E+00  0.30442704354E+04  0.30442704354E+04  0.00000000000E+00 0.  1.
         -2   -1    0    0    0  501 -0.00000000000E+00 -0.00000000000E+00 -0.28206132777E+02  0.28206132777E+02  0.00000000000E+00 0. -1.
         23    2    1    2    0    0 -0.17461756600E+03  0.63345648044E+02  0.26844955098E+04  0.26924215329E+04  0.90075541061E+02 0.  0.
         11    1    3    3    0    0 -0.98203367356E+02  0.33124527408E+01  0.17825875288E+04  0.17852935813E+04  0.00000000000E+00 0. -1.
        -11    1    3    3    0    0 -0.76414198645E+02  0.60033195303E+02  0.90190798103E+03  0.90712795158E+03  0.00000000000E+00 0.  1.
         22    1    1    2    0    0  0.17461756600E+03 -0.63345648044E+02  0.33156879284E+03  0.38005503532E+03  0.00000000000E+00 0. -1.
<mgrwt>
<rscale>  0 0.58606176E+03</rscale>
<asrwt>0</asrwt>
<pdfrwt beam="1">  1        2 0.46834904E+00 0.58606176E+03</pdfrwt>
<pdfrwt beam="2">  1       -2 0.43394074E-02 0.58606176E+03</pdfrwt>
<totfact> 0.45195626E+02</totfact>
</mgrwt>
</event>
<event>
 6    1  0.4630212E-004  0.2097048E+04  0.7818608E-02  0.8562545E-01
          2   -1    0    0  501    0  0.00000000000E+00  0.00000000000E+00  0.16998704758E+04  0.16998704758E+04  0.00000000000E+00 0.  1.
         -2   -1    0    0    0  501 -0.00000000000E+00 -0.00000000000E+00 -0.64675649597E+03  0.64675649597E+03  0.00000000000E+00 0. -1.
         23    2    1    2    0    0  0.82117834934E+02 -0.10368686345E+04  0.39820723823E+03  0.11175042179E+04  0.91688431092E+02 0.  0.
         11    1    3    3    0    0  0.93570620613E+02 -0.82541995759E+03  0.34248085203E+03  0.89853586542E+03  0.00000000000E+00 0. -1.
        -11    1    3    3    0    0 -0.11452785679E+02 -0.21144867688E+03  0.55726386202E+02  0.21896835244E+03  0.00000000000E+00 0.  1.
         22    1    1    2    0    0 -0.82117834934E+02  0.10368686345E+04  0.65490674161E+03  0.12291227539E+04  0.00000000000E+00 0. -1.
<mgrwt>
<rscale>  0 0.20970477E+04</rscale>
<asrwt>0</asrwt>
<pdfrwt beam="1">  1        2 0.26151853E+00 0.20970477E+04</pdfrwt>
<pdfrwt beam="2">  1       -2 0.99501000E-01 0.20970477E+04</pdfrwt>
<totfact> 0.75574799E+00</totfact>
</mgrwt>
</event>
<event>
 6    1  0.4630212E-004  0.1747628E+04  0.7818608E-02  0.8734657E-01
          2   -1    0    0  501    0  0.00000000000E+00  0.00000000000E+00  0.13599541618E+04  0.13599541618E+04  0.00000000000E+00 0.  1.
         -2   -1    0    0    0  501 -0.00000000000E+00 -0.00000000000E+00 -0.56145368869E+03  0.56145368869E+03  0.00000000000E+00 0. -1.
         23    2    1    2    0    0  0.55716246059E+03 -0.66995939482E+03  0.41298418238E+03  0.96857081900E+03  0.91092800638E+02 0.  0.
         11    1    3    3    0    0  0.30521144540E+03 -0.30417209108E+03  0.17965751469E+03  0.46685277120E+03  0.00000000000E+00 0.  1.
        -11    1    3    3    0    0  0.25195101519E+03 -0.36578730375E+03  0.23332666768E+03  0.50171804780E+03  0.00000000000E+00 0. -1.
         22    1    1    2    0    0 -0.55716246059E+03  0.66995939482E+03  0.38551629077E+03  0.95283703153E+03  0.00000000000E+00 0.  1.
<mgrwt>
<rscale>  0 0.17476284E+04</rscale>
<asrwt>0</asrwt>
<pdfrwt beam="1">  1        2 0.20922372E+00 0.17476284E+04</pdfrwt>
<pdfrwt beam="2">  1       -2 0.86377491E-01 0.17476284E+04</pdfrwt>
<totfact> 0.16802227E+01</totfact>
</mgrwt>
</event>
<event>
 6    1  0.4630212E-004  0.1123336E+04  0.7818608E-02  0.9182741E-01
         -2   -1    0    0    0  501 -0.00000000000E+00  0.00000000000E+00  0.13852693326E+03  0.13852693326E+03  0.00000000000E+00 0. -1.
          2   -1    0    0  501    0  0.00000000000E+00 -0.00000000000E+00 -0.22773251979E+04  0.22773251979E+04  0.00000000000E+00 0.  1.
         23    2    1    2    0    0  0.39146976807E+03  0.33221766170E+03 -0.60624968854E+03  0.79958411744E+03  0.90437392384E+02 0.  0.
         11    1    3    3    0    0  0.24161093764E+03  0.16158652741E+03 -0.29341142013E+03  0.41300885280E+03  0.00000000000E+00 0. -1.
        -11    1    3    3    0    0  0.14985883043E+03  0.17063113429E+03 -0.31283826841E+03  0.38657526464E+03  0.00000000000E+00 0.  1.
         22    1    1    2    0    0 -0.39146976807E+03 -0.33221766170E+03 -0.15325485761E+04  0.16162680138E+04  0.00000000000E+00 0. -1.
<mgrwt>
<rscale>  0 0.11233359E+04</rscale>
<asrwt>0</asrwt>
<pdfrwt beam="1">  1        2 0.35035769E+00 0.11233359E+04</pdfrwt>
<pdfrwt beam="2">  1       -2 0.21311838E-01 0.11233359E+04</pdfrwt>
<totfact> 0.88899830E+01</totfact>
</mgrwt>
</event>
<event>
 6    1  0.4630212E-004  0.4474749E+04  0.7818608E-02  0.7915072E-01
         -2   -1    0    0    0  501 -0.00000000000E+00  0.00000000000E+00  0.30408736139E+04  0.30408736139E+04  0.00000000000E+00 0. -1.
          2   -1    0    0  501    0  0.00000000000E+00 -0.00000000000E+00 -0.16461864321E+04  0.16461864321E+04  0.00000000000E+00 0.  1.
         23    2    1    2    0    0  0.11355088303E+04  0.76851593359E+03 -0.11525775230E+04  0.17942146439E+04  0.10379883331E+03 0.  0.
         13    1    3    3    0    0  0.42211529573E+03  0.32644531923E+03 -0.49758133987E+03  0.72961295159E+03  0.00000000000E+00 0. -1.
        -13    1    3    3    0    0  0.71339353459E+03  0.44207061437E+03 -0.65499618316E+03  0.10646016923E+04  0.00000000000E+00 0.  1.
         22    1    1    2    0    0 -0.11355088303E+04 -0.76851593359E+03  0.25472647049E+04  0.28928454021E+04  0.00000000000E+00 0. -1.
<mgrwt>
<rscale>  0 0.44747491E+04</rscale>
<asrwt>0</asrwt>
<pdfrwt beam="1">  1        2 0.25325945E+00 0.44747491E+04</pdfrwt>
<pdfrwt beam="2">  1       -2 0.46782671E+00 0.44747491E+04</pdfrwt>
<totfact> 0.21180206E-02</totfact>
</mgrwt>
</event>
<event>
 6    1  0.4630212E-004  0.2806148E+04  0.7818608E-02  0.8301362E-01
          1   -1    0    0  501    0  0.00000000000E+00  0.00000000000E+00  0.38111380299E+04  0.38111380299E+04  0.00000000000E+00 0.  1.
         -1   -1    0    0    0  501 -0.00000000000E+00 -0.00000000000E+00 -0.51654291965E+03  0.51654291965E+03  0.00000000000E+00 0. -1.
         23    2    1    2    0    0  0.53967758861E+03  0.10381004861E+04  0.28389640984E+04  0.30720917899E+04  0.95531641037E+02 0.  0.
         11    1    3    3    0    0  0.33295899365E+03  0.55539059100E+03  0.14973185100E+04  0.16313439614E+04  0.00000000000E+00 0. -1.
        -11    1    3    3    0    0  0.20671859496E+03  0.48270989515E+03  0.13416455884E+04  0.14407478284E+04  0.00000000000E+00 0.  1.
         22    1    1    2    0    0 -0.53967758861E+03 -0.10381004861E+04  0.45563101187E+03  0.12555891597E+04  0.00000000000E+00 0. -1.
<mgrwt>
<rscale>  0 0.28061478E+04</rscale>
<asrwt>0</asrwt>
<pdfrwt beam="1">  1        1 0.58632891E+00 0.28061478E+04</pdfrwt>
<pdfrwt beam="2">  1       -1 0.79468144E-01 0.28061478E+04</pdfrwt>
<totfact> 0.19097028E-01</totfact>
</mgrwt>
</event>
<event>
 6    1  0.4630212E-004  0.1447977E+04  0.7818608E-02  0.8919804E-01
         -3   -1    0    0    0  501 -0.00000000000E+00  0.00000000000E+00  0.26756780208E+03  0.26756780208E+03  0.00000000000E+00 0.  1.
          3   -1    0    0  501    0  0.00000000000E+00 -0.00000000000E+00 -0.19589781660E+04  0.19589781660E+04  0.00000000000E+00 0. -1.
         23    2    1    2    0    0 -0.62256507461E+03 -0.49826017640E+02 -0.14033048674E+04  0.15387417218E+04  0.91605847178E+02 0.  0.
         13    1    3    3    0    0 -0.54455774873E+03 -0.66070319803E+02 -0.11701302386E+04  0.12923285976E+04  0.00000000000E+00 0. -1.
        -13    1    3    3    0    0 -0.78007325878E+02  0.16244302163E+02 -0.23317462882E+03  0.24641312418E+03  0.00000000000E+00 0.  1.
         22    1    1    2    0    0  0.62256507461E+03  0.49826017640E+02 -0.28810549654E+03  0.68780424635E+03  0.00000000000E+00 0.  1.
<mgrwt>
<rscale>  0 0.14479772E+04</rscale>
<asrwt>0</asrwt>
<pdfrwt beam="1">  1        3 0.30138125E+00 0.14479772E+04</pdfrwt>
<pdfrwt beam="2">  1       -3 0.41164278E-01 0.14479772E+04</pdfrwt>
<totfact> 0.57030408E-01</totfact>
</mgrwt>
</event>
<event>
 6    1  0.4630212E-004  0.4396000E+04  0.7818608E-02  0.7929101E-01
          2   -1    0    0  501    0  0.00000000000E+00  0.00000000000E+00  0.19868244251E+04  0.19868244251E+04  0.00000000000E+00 0.  1.
         -2   -1    0    0    0  501 -0.00000000000E+00 -0.00000000000E+00 -0.24316210845E+04  0.24316210845E+04  0.00000000000E+00 0. -1.
         23    2    1    2    0    0  0.64329661422E+03  0.19420699390E+04  0.58204135926E+03  0.21293709153E+04  0.99910807720E+02 0.  0.
         11    1    3    3    0    0  0.96633379776E+02  0.37087598360E+03  0.14043148153E+03  0.40817644016E+03  0.00000000000E+00 0. -1.
        -11    1    3    3    0    0  0.54666323445E+03  0.15711939554E+04  0.44160987773E+03  0.17211944752E+04  0.00000000000E+00 0.  1.
         22    1    1    2    0    0 -0.64329661422E+03 -0.19420699390E+04 -0.10268380186E+04  0.22890745943E+04  0.00000000000E+00 0. -1.
<mgrwt>
<rscale>  0 0.43960001E+04</rscale>
<asrwt>0</asrwt>
<pdfrwt beam="1">  1        2 0.30566530E+00 0.43960001E+04</pdfrwt>
<pdfrwt beam="2">  1       -2 0.37409555E+00 0.43960001E+04</pdfrwt>
<totfact> 0.56734947E-02</totfact>
</mgrwt>
</event>
<event>
 6    1  0.6804167E-004  0.4657782E+04  0.7818608E-02  0.7883581E-01
         -2   -1    0    0    0  501 -0.00000000000E+00  0.00000000000E+00  0.27673439948E+04  0.27673439948E+04  0.00000000000E+00 0. -1.
          2   -1    0    0  501    0  0.00000000000E+00 -0.00000000000E+00 -0.19599055783E+04  0.19599055783E+04  0.00000000000E+00 0.  1.
         23    2    1    2    0    0  0.14167844611E+04 -0.18254042943E+04  0.69114196331E+03  0.24136152217E+04  0.92098741450E+02 0.  0.
         13    1    3    3    0    0  0.82311063878E+03 -0.10156174655E+04  0.42886823611E+03  0.13758335379E+04  0.00000000000E+00 0. -1.
        -13    1    3    3    0    0  0.59367382233E+03 -0.80978682878E+03  0.26227372720E+03  0.10377816839E+04  0.00000000000E+00 0.  1.
         22    1    1    2    0    0 -0.14167844611E+04  0.18254042943E+04  0.11629645320E+03  0.23136343514E+04  0.00000000000E+00 0. -1.
<mgrwt>
<rscale>  0 0.46577818E+04</rscale>
<asrwt>0</asrwt>
<pdfrwt beam="1">  1        2 0.30152393E+00 0.46577818E+04</pdfrwt>
<pdfrwt beam="2">  1       -2 0.42574523E+00 0.46577818E+04</pdfrwt>
<totfact> 0.26457161E-02</totfact>
</mgrwt>
</event>
<event>
 6    1  0.4630212E-004  0.2305129E+04  0.7818608E-02  0.8475902E-01
          1   -1    0    0  501    0  0.00000000000E+00  0.00000000000E+00  0.18120945721E+04  0.18120945721E+04  0.00000000000E+00 0. -1.
         -1   -1    0    0    0  501 -0.00000000000E+00 -0.00000000000E+00 -0.73307711322E+03  0.73307711322E+03  0.00000000000E+00 0.  1.
         23    2    1    2    0    0 -0.94316052633E+03 -0.60074569816E+03  0.24033886960E+03  0.11473773698E+04  0.90911409023E+02 0.  0.
         13    1    3    3    0    0 -0.61060299469E+03 -0.35711521910E+03  0.18718781683E+03  0.73171481849E+03  0.00000000000E+00 0. -1.
        -13    1    3    3    0    0 -0.33255753164E+03 -0.24363047906E+03  0.53151052770E+02  0.41566255134E+03  0.00000000000E+00 0.  1.
         22    1    1    2    0    0  0.94316052633E+03  0.60074569816E+03  0.83867858925E+03  0.13977943155E+04  0.00000000000E+00 0. -1.
<mgrwt>
<rscale>  0 0.23051291E+04</rscale>
<asrwt>0</asrwt>
<pdfrwt beam="1">  1        1 0.27878378E+00 0.23051291E+04</pdfrwt>
<pdfrwt beam="2">  1       -1 0.11278109E+00 0.23051291E+04</pdfrwt>
<totfact> 0.25972437E+00</totfact>
</mgrwt>
</event>
<event>
 6    1  0.4630212E-004  0.4874472E+04  0.7818608E-02  0.7848168E-01
          1   -1    0    0  501    0  0.00000000000E+00  0.00000000000E+00  0.38413510336E+04  0.38413510336E+04  0.00000000000E+00 0.  1.
         -1   -1    0    0    0  501 -0.00000000000E+00 -0.00000000000E+00 -0.15463617023E+04  0.15463617023E+04  0.00000000000E+00 0. -1.
         23    2    1    2    0    0 -0.12735772553E+04 -0.26960980732E+02 -0.11475660262E+04  0.17170297872E+04  0.92507221148E+02 0.  0.
         13    1    3    3    0    0 -0.90938866651E+03 -0.22660141593E+02 -0.76214912318E+03  0.11867487159E+04  0.00000000000E+00 0.  1.
        -13    1    3    3    0    0 -0.36418858879E+03 -0.43008391393E+01 -0.38541690302E+03  0.53028107128E+03  0.00000000000E+00 0. -1.
         22    1    1    2    0    0  0.12735772553E+04  0.26960980732E+02  0.34425553576E+04  0.36706829487E+04  0.00000000000E+00 0.  1.
<mgrwt>
<rscale>  0 0.48744715E+04</rscale>
<asrwt>0</asrwt>
<pdfrwt beam="1">  1        1 0.59097708E+00 0.48744715E+04</pdfrwt>
<pdfrwt beam="2">  1       -1 0.23790180E+00 0.48744715E+04</pdfrwt>
<totfact> 0.80061398E-03</totfact>
</mgrwt>
</event>
<event>
 6    1  0.4630212E-004  0.4038624E+04  0.7818608E-02  0.7996800E-01
          2   -1    0    0  501    0  0.00000000000E+00  0.00000000000E+00  0.17901030811E+04  0.17901030811E+04  0.00000000000E+00 0.  1.
         -2   -1    0    0    0  501 -0.00000000000E+00 -0.00000000000E+00 -0.22778696441E+04  0.22778696441E+04  0.00000000000E+00 0. -1.
         23    2    1    2    0    0 -0.11124206264E+04 -0.16427825767E+04 -0.61731729861E+03  0.20797580392E+04  0.89992277240E+02 0.  0.
         11    1    3    3    0    0 -0.45763312830E+03 -0.67227688299E+03 -0.20685396314E+03  0.83915007573E+03  0.00000000000E+00 0. -1.
        -11    1    3    3    0    0 -0.65478749809E+03 -0.97050569375E+03 -0.41046333547E+03  0.12406079635E+04  0.00000000000E+00 0.  1.
         22    1    1    2    0    0  0.11124206264E+04  0.16427825767E+04  0.12955073559E+03  0.19882146860E+04  0.00000000000E+00 0.  1.
<mgrwt>
<rscale>  0 0.40386243E+04</rscale>
<asrwt>0</asrwt>
<pdfrwt beam="1">  1        2 0.27540047E+00 0.40386243E+04</pdfrwt>
<pdfrwt beam="2">  1       -2 0.35044148E+00 0.40386243E+04</pdfrwt>
<totfact> 0.10621268E-01</totfact>
</mgrwt>
</event>
<event>
 6    1  0.4630212E-004  0.4741552E+04  0.7818608E-02  0.7869661E-01
          2   -1    0    0  501    0  0.00000000000E+00  0.00000000000E+00  0.34711490791E+04  0.34711490791E+04  0.00000000000E+00 0.  1.
         -2   -1    0    0    0  501 -0.00000000000E+00 -0.00000000000E+00 -0.16192270358E+04  0.16192270358E+04  0.00000000000E+00 0. -1.
         23    2    1    2    0    0 -0.98351454204E+03 -0.17819521912E+03 -0.13805150766E+04  0.17069305155E+04  0.93463990724E+02 0.  0.
         11    1    3    3    0    0 -0.56061099033E+03 -0.14631622322E+03 -0.82060120002E+03  0.10045294665E+04  0.00000000000E+00 0. -1.
        -11    1    3    3    0    0 -0.42290355170E+03 -0.31878995900E+02 -0.55991387654E+03  0.70240104895E+03  0.00000000000E+00 0.  1.
         22    1    1    2    0    0  0.98351454204E+03  0.17819521912E+03  0.32324371198E+04  0.33834455994E+04  0.00000000000E+00 0.  1.
<mgrwt>
<rscale>  0 0.47415518E+04</rscale>
<asrwt>0</asrwt>
<pdfrwt beam="1">  1        2 0.53402293E+00 0.47415518E+04</pdfrwt>
<pdfrwt beam="2">  1       -2 0.24911185E+00 0.47415518E+04</pdfrwt>
<totfact> 0.41104596E-02</totfact>
</mgrwt>
</event>
<event>
 6    1  0.4630212E-004  0.8229829E+03  0.7818608E-02  0.9527333E-01
          2   -1    0    0  501    0  0.00000000000E+00  0.00000000000E+00  0.15558422089E+04  0.15558422089E+04  0.00000000000E+00 0.  1.
         -2   -1    0    0    0  501 -0.00000000000E+00 -0.00000000000E+00 -0.10883185689E+03  0.10883185689E+03  0.00000000000E+00 0. -1.
         23    2    1    2    0    0 -0.21569784855E+03 -0.24286424650E+03  0.12262834349E+04  0.12719540943E+04  0.92669040147E+02 0.  0.
         11    1    3    3    0    0 -0.15262361481E+03 -0.20915810288E+03  0.83620441891E+03  0.87537358311E+03  0.00000000000E+00 0. -1.
        -11    1    3    3    0    0 -0.63074233738E+02 -0.33706143620E+02  0.39007901603E+03  0.39658051115E+03  0.00000000000E+00 0.  1.
         22    1    1    2    0    0  0.21569784855E+03  0.24286424650E+03  0.22072691703E+03  0.39271997148E+03  0.00000000000E+00 0. -1.
<mgrwt>
<rscale>  0 0.82298286E+03</rscale>
<asrwt>0</asrwt>
<pdfrwt beam="1">  1        2 0.23936032E+00 0.82298286E+03</pdfrwt>
<pdfrwt beam="2">  1       -2 0.16743364E-01 0.82298286E+03</pdfrwt>
<totfact> 0.34615687E+02</totfact>
</mgrwt>
</event>
<event>
 6    1  0.4630212E-004  0.1802560E+04  0.7818608E-02  0.8704940E-01
         -2   -1    0    0    0  501 -0.00000000000E+00  0.00000000000E+00  0.71624407320E+03  0.71624407320E+03  0.00000000000E+00 0. -1.
          2   -1    0    0  501    0  0.00000000000E+00 -0.00000000000E+00 -0.11341179410E+04  0.11341179410E+04  0.00000000000E+00 0.  1.
         23    2    1    2    0    0 -0.26886442954E+03  0.91685641466E+02  0.66596586707E+03  0.72991437632E+03  0.92574955211E+02 0.  0.
         13    1    3    3    0    0 -0.98517329891E+01  0.11699403281E+02  0.11349183368E+03  0.11451781081E+03  0.00000000000E+00 0. -1.
        -13    1    3    3    0    0 -0.25901269655E+03  0.79986238185E+02  0.55247403339E+03  0.61539656551E+03  0.00000000000E+00 0.  1.
         22    1    1    2    0    0  0.26886442954E+03 -0.91685641466E+02 -0.10838397349E+04  0.11204476379E+04  0.00000000000E+00 0.  1.
<mgrwt>
<rscale>  0 0.18025596E+04</rscale>
<asrwt>0</asrwt>
<pdfrwt beam="1">  1        2 0.17447968E+00 0.18025596E+04</pdfrwt>
<pdfrwt beam="2">  1       -2 0.11019140E+00 0.18025596E+04</pdfrwt>
<totfact> 0.12822013E+01</totfact>
</mgrwt>
</event>
<event>
 6    1  0.4630212E-004  0.4814480E+04  0.7818608E-02  0.7857781E-01
         -2   -1    0    0    0  501 -0.00000000000E+00  0.00000000000E+00  0.17955999952E+04  0.17955999952E+04  0.00000000000E+00 0. -1.
          2   -1    0    0  501    0  0.00000000000E+00 -0.00000000000E+00 -0.32272240681E+04  0.32272240681E+04  0.00000000000E+00 0.  1.
         23    2    1    2    0    0 -0.13006149569E+04  0.10296361025E+04 -0.25347654429E+04  0.30306717971E+04  0.90476083630E+02 0.  0.
         11    1    3    3    0    0 -0.65375029199E+03  0.57441427599E+03 -0.13412048850E+04  0.15988032237E+04  0.00000000000E+00 0. -1.
        -11    1    3    3    0    0 -0.64686466492E+03  0.45522182646E+03 -0.11935605579E+04  0.14318685733E+04  0.00000000000E+00 0.  1.
         22    1    1    2    0    0  0.13006149569E+04 -0.10296361025E+04  0.11031413699E+04  0.19921522662E+04  0.00000000000E+00 0. -1.
<mgrwt>
<rscale>  0 0.48144796E+04</rscale>
<asrwt>0</asrwt>
<pdfrwt beam="1">  1        2 0.49649601E+00 0.48144796E+04</pdfrwt>
<pdfrwt beam="2">  1       -2 0.27624616E+00 0.48144796E+04</pdfrwt>
<totfact> 0.40777721E-02</totfact>
</mgrwt>
</event>
<event>
 6    1  0.4630212E-004  0.3287950E+04  0.7818608E-02  0.8165968E-01
          2   -1    0    0  501    0  0.00000000000E+00  0.00000000000E+00  0.13325685291E+04  0.13325685291E+04  0.00000000000E+00 0.  1.
         -2   -1    0    0    0  501 -0.00000000000E+00 -0.00000000000E+00 -0.20281537448E+04  0.20281537448E+04  0.00000000000E+00 0. -1.
         23    2    1    2    0    0 -0.21665707487E+03  0.79390708684E+03 -0.18011815924E+04  0.19824726235E+04  0.93347864125E+02 0.  0.
         11    1    3    3    0    0 -0.11633025209E+02  0.16627390618E+03 -0.32071389151E+03  0.36144119765E+03  0.00000000000E+00 0.  1.
        -11    1    3    3    0    0 -0.20502404966E+03  0.62763318065E+03 -0.14804677008E+04  0.16210314259E+04  0.00000000000E+00 0. -1.
         22    1    1    2    0    0  0.21665707487E+03 -0.79390708684E+03  0.11055963766E+04  0.13782496503E+04  0.00000000000E+00 0.  1.
<mgrwt>
<rscale>  0 0.32879500E+04</rscale>
<asrwt>0</asrwt>
<pdfrwt beam="1">  1        2 0.20501054E+00 0.32879500E+04</pdfrwt>
<pdfrwt beam="2">  1       -2 0.31202365E+00 0.32879500E+04</pdfrwt>
<totfact> 0.35472077E-01</totfact>
</mgrwt>
</event>
<event>
 6    1  0.4630212E-004  0.2842572E+04  0.7818608E-02  0.8290172E-01
          2   -1    0    0  501    0  0.00000000000E+00  0.00000000000E+00  0.20911458903E+04  0.20911458903E+04  0.00000000000E+00 0.  1.
         -2   -1    0    0    0  501 -0.00000000000E+00 -0.00000000000E+00 -0.96600324806E+03  0.96600324806E+03  0.00000000000E+00 0. -1.
         23    2    1    2    0    0 -0.55150601830E+02  0.10133046913E+04  0.16311400836E+04  0.19231908512E+04  0.90648174308E+02 0.  0.
         13    1    3    3    0    0  0.20837833016E+02  0.40454000587E+03  0.67083871936E+03  0.78365261375E+03  0.00000000000E+00 0.  1.
        -13    1    3    3    0    0 -0.75988434847E+02  0.60876468540E+03  0.96030136428E+03  0.11395382375E+04  0.00000000000E+00 0. -1.
         22    1    1    2    0    0  0.55150601830E+02 -0.10133046913E+04 -0.50599744142E+03  0.11339582871E+04  0.00000000000E+00 0. -1.
<mgrwt>
<rscale>  0 0.28425719E+04</rscale>
<asrwt>0</asrwt>
<pdfrwt beam="1">  1        2 0.32171475E+00 0.28425719E+04</pdfrwt>
<pdfrwt beam="2">  1       -2 0.14861589E+00 0.28425719E+04</pdfrwt>
<totfact> 0.15825431E+00</totfact>
</mgrwt>
</event>
<event>
 6    1  0.4630212E-004  0.1170892E+04  0.7818608E-02  0.9138723E-01
         -2   -1    0    0    0  501 -0.00000000000E+00  0.00000000000E+00  0.10815784287E+04  0.10815784287E+04  0.00000000000E+00 0. -1.
          2   -1    0    0  501    0  0.00000000000E+00 -0.00000000000E+00 -0.31689509499E+03  0.31689509499E+03  0.00000000000E+00 0.  1.
         23    2    1    2    0    0  0.95724937642E+02 -0.75724817797E+02  0.10641829841E+04  0.10750580752E+04  0.91470923053E+02 0.  0.
         11    1    3    3    0    0  0.21016723851E+02 -0.74418254234E+02  0.58369016499E+03  0.58879027502E+03  0.00000000000E+00 0.  1.
        -11    1    3    3    0    0  0.74708213791E+02 -0.13065635625E+01  0.48049281910E+03  0.48626780021E+03  0.00000000000E+00 0. -1.
         22    1    1    2    0    0 -0.95724937642E+02  0.75724817797E+02 -0.29949965038E+03  0.32341544845E+03  0.00000000000E+00 0.  1.
<mgrwt>
<rscale>  0 0.11708918E+04</rscale>
<asrwt>0</asrwt>
<pdfrwt beam="1">  1        2 0.48753092E-01 0.11708918E+04</pdfrwt>
<pdfrwt beam="2">  1       -2 0.16639668E+00 0.11708918E+04</pdfrwt>
<totfact> 0.23066200E+01</totfact>
</mgrwt>
</event>
<event>
 6    1  0.4630212E-004  0.2733354E+04  0.7818608E-02  0.8324263E-01
         -2   -1    0    0    0  501 -0.00000000000E+00  0.00000000000E+00  0.12534874869E+04  0.12534874869E+04  0.00000000000E+00 0. -1.
          2   -1    0    0  501    0  0.00000000000E+00 -0.00000000000E+00 -0.14900872675E+04  0.14900872675E+04  0.00000000000E+00 0.  1.
         23    2    1    2    0    0  0.21283075428E+03  0.19484367888E+03 -0.14577205912E+04  0.14888249693E+04  0.91594093732E+02 0.  0.
         11    1    3    3    0    0  0.57974555924E+02  0.92698120128E+02 -0.71368986306E+03  0.72201607409E+03  0.00000000000E+00 0. -1.
        -11    1    3    3    0    0  0.15485619835E+03  0.10214555875E+03 -0.74403072817E+03  0.76680889523E+03  0.00000000000E+00 0.  1.
         22    1    1    2    0    0 -0.21283075428E+03 -0.19484367888E+03  0.12211208106E+04  0.12547497851E+04  0.00000000000E+00 0. -1.
<mgrwt>
<rscale>  0 0.27333538E+04</rscale>
<asrwt>0</asrwt>
<pdfrwt beam="1">  1        2 0.22924419E+00 0.27333538E+04</pdfrwt>
<pdfrwt beam="2">  1       -2 0.19284423E+00 0.27333538E+04</pdfrwt>
<totfact> 0.16691539E+00</totfact>
</mgrwt>
</event>
<event>
 6    1  0.4630212E-004  0.1677748E+04  0.7818608E-02  0.8774158E-01
          2   -1    0    0  501    0  0.00000000000E+00  0.00000000000E+00  0.28281128815E+04  0.28281128815E+04  0.00000000000E+00 0.  1.
         -2   -1    0    0    0  501 -0.00000000000E+00 -0.00000000000E+00 -0.24882648729E+03  0.24882648729E+03  0.00000000000E+00 0. -1.
         23    2    1    2    0    0  0.14724632036E+03  0.82111478213E+03  0.11816964749E+04  0.14493127080E+04  0.90497527654E+02 0.  0.
         13    1    3    3    0    0  0.73437610227E+02  0.47736209263E+03  0.75723150463E+03  0.89814653686E+03  0.00000000000E+00 0.  1.
        -13    1    3    3    0    0  0.73808710132E+02  0.34375268950E+03  0.42446497031E+03  0.55116617118E+03  0.00000000000E+00 0. -1.
         22    1    1    2    0    0 -0.14724632036E+03 -0.82111478213E+03  0.13975899192E+04  0.16276266607E+04  0.00000000000E+00 0.  1.
<mgrwt>
<rscale>  0 0.16777478E+04</rscale>
<asrwt>0</asrwt>
<pdfrwt beam="1">  1        2 0.43509427E+00 0.16777478E+04</pdfrwt>
<pdfrwt beam="2">  1       -2 0.38281000E-01 0.16777478E+04</pdfrwt>
<totfact> 0.13707593E+01</totfact>
</mgrwt>
</event>
<event>
 6    1  0.4630212E-004  0.2311617E+04  0.7818608E-02  0.8473355E-01
          2   -1    0    0  501    0  0.00000000000E+00  0.00000000000E+00  0.16907278473E+04  0.16907278473E+04  0.00000000000E+00 0.  1.
         -2   -1    0    0    0  501 -0.00000000000E+00 -0.00000000000E+00 -0.79012903929E+03  0.79012903929E+03  0.00000000000E+00 0. -1.
         23    2    1    2    0    0  0.10518483929E+04  0.27111276308E+02  0.95972678387E+03  0.14269991256E+04  0.90171735002E+02 0.  0.
         13    1    3    3    0    0  0.31810132214E+03 -0.92039528508E+00  0.34602992757E+03  0.47002766838E+03  0.00000000000E+00 0. -1.
        -13    1    3    3    0    0  0.73374707076E+03  0.28031671593E+02  0.61369685631E+03  0.95697145720E+03  0.00000000000E+00 0.  1.
         22    1    1    2    0    0 -0.10518483929E+04 -0.27111276308E+02 -0.59127975844E+02  0.10538577610E+04  0.00000000000E+00 0.  1.
<mgrwt>
<rscale>  0 0.23116169E+04</rscale>
<asrwt>0</asrwt>
<pdfrwt beam="1">  1        2 0.26011198E+00 0.23116169E+04</pdfrwt>
<pdfrwt beam="2">  1       -2 0.12155831E+00 0.23116169E+04</pdfrwt>
<totfact> 0.46226536E+00</totfact>
</mgrwt>
</event>
<event>
 6    1  0.4630212E-004  0.4168578E+04  0.7818608E-02  0.7971376E-01
          2   -1    0    0  501    0  0.00000000000E+00  0.00000000000E+00  0.20215616253E+04  0.20215616253E+04  0.00000000000E+00 0.  1.
         -2   -1    0    0    0  501 -0.00000000000E+00 -0.00000000000E+00 -0.21489627706E+04  0.21489627706E+04  0.00000000000E+00 0. -1.
         23    2    1    2    0    0 -0.39968065595E+03  0.93780285043E+03 -0.18813405193E+04  0.21418494243E+04  0.94116915513E+02 0.  0.
         13    1    3    3    0    0 -0.96288017132E+02  0.28452642928E+03 -0.48018598963E+03  0.56639673007E+03  0.00000000000E+00 0. -1.
        -13    1    3    3    0    0 -0.30339263882E+03  0.65327642115E+03 -0.14011545297E+04  0.15754526942E+04  0.00000000000E+00 0.  1.
         22    1    1    2    0    0  0.39968065595E+03 -0.93780285043E+03  0.17539393739E+04  0.20286749716E+04  0.00000000000E+00 0.  1.
<mgrwt>
<rscale>  0 0.41685780E+04</rscale>
<asrwt>0</asrwt>
<pdfrwt beam="1">  1        2 0.31100948E+00 0.41685780E+04</pdfrwt>
<pdfrwt beam="2">  1       -2 0.33060966E+00 0.41685780E+04</pdfrwt>
<totfact> 0.10407234E-01</totfact>
</mgrwt>
</event>
<event>
 6    1  0.4630212E-004  0.1279986E+04  0.7818608E-02  0.9045589E-01
         -2   -1    0    0    0  501 -0.00000000000E+00  0.00000000000E+00  0.68517472558E+03  0.68517472558E+03  0.00000000000E+00 0. -1.
          2   -1    0    0  501    0  0.00000000000E+00 -0.00000000000E+00 -0.59779018614E+03  0.59779018614E+03  0.00000000000E+00 0.  1.
         23    2    1    2    0    0 -0.24082152179E+03  0.54874471765E+03  0.25952112973E+03  0.65946930128E+03  0.91830126048E+02 0.  0.
         13    1    3    3    0    0 -0.74121416529E+02  0.83003192884E+02  0.55787017971E+02  0.12448174883E+03  0.00000000000E+00 0. -1.
        -13    1    3    3    0    0 -0.16670010526E+03  0.46574152477E+03  0.20373411176E+03  0.53498755245E+03  0.00000000000E+00 0.  1.
         22    1    1    2    0    0  0.24082152179E+03 -0.54874471765E+03 -0.17213659029E+03  0.62349561043E+03  0.00000000000E+00 0. -1.
<mgrwt>
<rscale>  0 0.12799855E+04</rscale>
<asrwt>0</asrwt>
<pdfrwt beam="1">  1        2 0.91967721E-01 0.12799855E+04</pdfrwt>
<pdfrwt beam="2">  1       -2 0.10541150E+00 0.12799855E+04</pdfrwt>
<totfact> 0.35612206E+01</totfact>
</mgrwt>
</event>
<event>
 6    1  0.4630212E-004  0.1350675E+04  0.7818608E-02  0.8990317E-01
         -2   -1    0    0    0  501 -0.00000000000E+00  0.00000000000E+00  0.66308484834E+03  0.66308484834E+03  0.00000000000E+00 0. -1.
          2   -1    0    0  501    0  0.00000000000E+00 -0.00000000000E+00 -0.68781671632E+03  0.68781671632E+03  0.00000000000E+00 0.  1.
         23    2    1    2    0    0  0.43086096144E+03 -0.20626593237E+03  0.46106055740E+03  0.66959320312E+03  0.87128738752E+02 0.  0.
         11    1    3    3    0    0  0.21744810854E+03 -0.15209263406E+03  0.25561339084E+03  0.36844817115E+03  0.00000000000E+00 0. -1.
        -11    1    3    3    0    0  0.21341285290E+03 -0.54173298313E+02  0.20544716656E+03  0.30114503197E+03  0.00000000000E+00 0.  1.
         22    1    1    2    0    0 -0.43086096144E+03  0.20626593237E+03 -0.48579242538E+03  0.68130836154E+03  0.00000000000E+00 0.  1.
<mgrwt>
<rscale>  0 0.13506752E+04</rscale>
<asrwt>0</asrwt>
<pdfrwt beam="1">  1        2 0.10581796E+00 0.13506752E+04</pdfrwt>
<pdfrwt beam="2">  1       -2 0.10201305E+00 0.13506752E+04</pdfrwt>
<totfact> 0.32238046E+01</totfact>
</mgrwt>
</event>
<event>
 6    1  0.4630212E-004  0.1844581E+04  0.7818608E-02  0.8682945E-01
          2   -1    0    0  501    0  0.00000000000E+00  0.00000000000E+00  0.76054768794E+03  0.76054768794E+03  0.00000000000E+00 0.  1.
         -2   -1    0    0    0  501 -0.00000000000E+00 -0.00000000000E+00 -0.11184304617E+04  0.11184304617E+04  0.00000000000E+00 0. -1.
         23    2    1    2    0    0 -0.12221099158E+03 -0.87123079298E+03 -0.45369352486E+03  0.99401582211E+03  0.90835119862E+02 0.  0.
         11    1    3    3    0    0 -0.31208484145E+02 -0.49559551404E+03 -0.28236295763E+03  0.57124226284E+03  0.00000000000E+00 0.  1.
        -11    1    3    3    0    0 -0.91002507431E+02 -0.37563527894E+03 -0.17133056723E+03  0.42277355926E+03  0.00000000000E+00 0. -1.
         22    1    1    2    0    0  0.12221099158E+03  0.87123079298E+03  0.95810751121E+02  0.88496232752E+03  0.00000000000E+00 0.  1.
<mgrwt>
<rscale>  0 0.18445809E+04</rscale>
<asrwt>0</asrwt>
<pdfrwt beam="1">  1        2 0.11700734E+00 0.18445809E+04</pdfrwt>
<pdfrwt beam="2">  1       -2 0.17206622E+00 0.18445809E+04</pdfrwt>
<totfact> 0.71338513E+00</totfact>
</mgrwt>
</event>
<event>
 6    1  0.4630212E-004  0.2571611E+04  0.7818608E-02  0.8377909E-01
          2   -1    0    0  501    0  0.00000000000E+00  0.00000000000E+00  0.12606223727E+04  0.12606223727E+04  0.00000000000E+00 0.  1.
         -2   -1    0    0    0  501 -0.00000000000E+00 -0.00000000000E+00 -0.13114913060E+04  0.13114913060E+04  0.00000000000E+00 0. -1.
         23    2    1    2    0    0  0.54612813625E+02  0.69301378407E+03 -0.11054542150E+04  0.13090219240E+04  0.90877454245E+02 0.  0.
         11    1    3    3    0    0 -0.17320732383E+02  0.14582032745E+03 -0.19092138691E+03  0.24086210090E+03  0.00000000000E+00 0. -1.
        -11    1    3    3    0    0  0.71933546009E+02  0.54719345662E+03 -0.91453282810E+03  0.10681598231E+04  0.00000000000E+00 0.  1.
         22    1    1    2    0    0 -0.54612813625E+02 -0.69301378407E+03  0.10545852817E+04  0.12630917547E+04  0.00000000000E+00 0.  1.
<mgrwt>
<rscale>  0 0.25716106E+04</rscale>
<asrwt>0</asrwt>
<pdfrwt beam="1">  1        2 0.19394190E+00 0.25716106E+04</pdfrwt>
<pdfrwt beam="2">  1       -2 0.20176789E+00 0.25716106E+04</pdfrwt>
<totfact> 0.20017550E+00</totfact>
</mgrwt>
</event>
<event>
 6    1  0.4630212E-004  0.3755307E+04  0.7818608E-02  0.8055814E-01
         -4   -1    0    0    0  501 -0.00000000000E+00  0.00000000000E+00  0.20873712195E+04  0.20873712195E+04  0.00000000000E+00 0. -1.
          4   -1    0    0  501    0  0.00000000000E+00 -0.00000000000E+00 -0.16890061887E+04  0.16890061887E+04  0.00000000000E+00 0.  1.
         23    2    1    2    0    0 -0.66223304488E+03 -0.55204561511E+03  0.18754039500E+04  0.20661286148E+04  0.91872250382E+02 0.  0.
         13    1    3    3    0    0 -0.11222461984E+03 -0.11198349958E+03  0.42817405801E+03  0.45658262498E+03  0.00000000000E+00 0. -1.
        -13    1    3    3    0    0 -0.55000842504E+03 -0.44006211553E+03  0.14472298920E+04  0.16095459898E+04  0.00000000000E+00 0.  1.
         22    1    1    2    0    0  0.66223304488E+03  0.55204561511E+03 -0.14770389191E+04  0.17102487934E+04  0.00000000000E+00 0.  1.
<mgrwt>
<rscale>  0 0.37553071E+04</rscale>
<asrwt>0</asrwt>
<pdfrwt beam="1">  1        4 0.25984711E+00 0.37553071E+04</pdfrwt>
<pdfrwt beam="2">  1       -4 0.32113403E+00 0.37553071E+04</pdfrwt>
<totfact> 0.19716611E-03</totfact>
</mgrwt>
</event>
<event>
 6    1  0.4630212E-004  0.1661905E+04  0.7818608E-02  0.8783395E-01
          2   -1    0    0  501    0  0.00000000000E+00  0.00000000000E+00  0.15513582574E+04  0.15513582574E+04  0.00000000000E+00 0.  1.
         -2   -1    0    0    0  501 -0.00000000000E+00 -0.00000000000E+00 -0.44508207029E+03  0.44508207029E+03  0.00000000000E+00 0. -1.
         23    2    1    2    0    0  0.66580296237E+03  0.39317878128E+03  0.91175996579E+03  0.11991200037E+04  0.93270623581E+02 0.  0.
         11    1    3    3    0    0  0.49013127183E+03  0.24249461680E+03  0.61972947317E+03  0.82649677720E+03  0.00000000000E+00 0. -1.
        -11    1    3    3    0    0  0.17567169053E+03  0.15068416448E+03  0.29203049263E+03  0.37262322647E+03  0.00000000000E+00 0.  1.
         22    1    1    2    0    0 -0.66580296237E+03 -0.39317878128E+03  0.19451622131E+03  0.79732032402E+03  0.00000000000E+00 0. -1.
<mgrwt>
<rscale>  0 0.16619046E+04</rscale>
<asrwt>0</asrwt>
<pdfrwt beam="1">  1        2 0.23867050E+00 0.16619046E+04</pdfrwt>
<pdfrwt beam="2">  1       -2 0.68474165E-01 0.16619046E+04</pdfrwt>
<totfact> 0.22103571E+01</totfact>
</mgrwt>
</event>
<event>
 6    1  0.4630212E-004  0.1602396E+04  0.7818608E-02  0.8819077E-01
         -2   -1    0    0    0  501 -0.00000000000E+00  0.00000000000E+00  0.19020936889E+03  0.19020936889E+03  0.00000000000E+00 0. -1.
          2   -1    0    0  501    0  0.00000000000E+00 -0.00000000000E+00 -0.33747976650E+04  0.33747976650E+04  0.00000000000E+00 0.  1.
         23    2    1    2    0    0 -0.33648726556E+02 -0.34510433339E+03 -0.31979128092E+04  0.32180102322E+04  0.93350317822E+02 0.  0.
         13    1    3    3    0    0 -0.16264328767E+01 -0.20132680209E+03 -0.14515373733E+04  0.14654336807E+04  0.00000000000E+00 0.  1.
        -13    1    3    3    0    0 -0.32022293679E+02 -0.14377753130E+03 -0.17463754359E+04  0.17525765515E+04  0.00000000000E+00 0. -1.
         22    1    1    2    0    0  0.33648726556E+02  0.34510433339E+03  0.13324513072E+02  0.34699680167E+03  0.00000000000E+00 0. -1.
<mgrwt>
<rscale>  0 0.16023959E+04</rscale>
<asrwt>0</asrwt>
<pdfrwt beam="1">  1        2 0.51919961E+00 0.16023959E+04</pdfrwt>
<pdfrwt beam="2">  1       -2 0.29262981E-01 0.16023959E+04</pdfrwt>
<totfact> 0.10318644E+01</totfact>
</mgrwt>
</event>
<event>
 6    1  0.4630212E-004  0.2558009E+04  0.7818608E-02  0.8382606E-01
         -2   -1    0    0    0  501 -0.00000000000E+00  0.00000000000E+00  0.65772833226E+03  0.65772833226E+03  0.00000000000E+00 0.  1.
          2   -1    0    0  501    0  0.00000000000E+00 -0.00000000000E+00 -0.24871255479E+04  0.24871255479E+04  0.00000000000E+00 0. -1.
         23    2    1    2    0    0 -0.71615097684E+03 -0.19368713912E+03  0.36329733878E+03  0.83005446370E+03  0.81354329031E+02 0.  0.
         11    1    3    3    0    0 -0.61434422146E+03 -0.15851254421E+03  0.27817307724E+03  0.69276641808E+03  0.00000000000E+00 0. -1.
        -11    1    3    3    0    0 -0.10180675538E+03 -0.35174594906E+02  0.85124261538E+02  0.13728804562E+03  0.00000000000E+00 0.  1.
         22    1    1    2    0    0  0.71615097684E+03  0.19368713912E+03 -0.21926945544E+04  0.23147994164E+04  0.00000000000E+00 0. -1.
<mgrwt>
<rscale>  0 0.25580093E+04</rscale>
<asrwt>0</asrwt>
<pdfrwt beam="1">  1        2 0.38263470E+00 0.25580093E+04</pdfrwt>
<pdfrwt beam="2">  1       -2 0.10118897E+00 0.25580093E+04</pdfrwt>
<totfact> 0.25240360E+00</totfact>
</mgrwt>
</event>
<event>
 6    1  0.4630212E-004  0.2972485E+04  0.7818608E-02  0.8251632E-01
          2   -1    0    0  501    0  0.00000000000E+00  0.00000000000E+00  0.30712207695E+04  0.30712207695E+04  0.00000000000E+00 0.  1.
         -2   -1    0    0    0  501 -0.00000000000E+00 -0.00000000000E+00 -0.71923104031E+03  0.71923104031E+03  0.00000000000E+00 0. -1.
         23    2    1    2    0    0 -0.41932878860E+03 -0.13060465400E+04  0.19018206744E+04  0.23467598844E+04  0.93626279777E+02 0.  0.
         13    1    3    3    0    0 -0.11639271228E+03 -0.26575827648E+03  0.44398550808E+03  0.53037520340E+03  0.00000000000E+00 0. -1.
        -13    1    3    3    0    0 -0.30293607633E+03 -0.10402882635E+04  0.14578351663E+04  0.18163846810E+04  0.00000000000E+00 0.  1.
         22    1    1    2    0    0  0.41932878860E+03  0.13060465400E+04  0.45016905484E+03  0.14436919254E+04  0.00000000000E+00 0. -1.
<mgrwt>
<rscale>  0 0.29724854E+04</rscale>
<asrwt>0</asrwt>
<pdfrwt beam="1">  1        2 0.47249550E+00 0.29724854E+04</pdfrwt>
<pdfrwt beam="2">  1       -2 0.11065093E+00 0.29724854E+04</pdfrwt>
<totfact> 0.87177640E-01</totfact>
</mgrwt>
</event>
<event>
 6    1  0.4630212E-004  0.2230103E+04  0.7818608E-02  0.8506002E-01
         -2   -1    0    0    0  501 -0.00000000000E+00  0.00000000000E+00  0.54637734154E+03  0.54637734154E+03  0.00000000000E+00 0. -1.
          2   -1    0    0  501    0  0.00000000000E+00 -0.00000000000E+00 -0.22756063372E+04  0.22756063372E+04  0.00000000000E+00 0.  1.
         23    2    1    2    0    0  0.54681144741E+03  0.32371267613E+03  0.29052316697E+03  0.70462885393E+03  0.91134272044E+02 0.  0.
         11    1    3    3    0    0  0.49275044333E+03  0.28700422352E+03  0.22782102323E+03  0.61406582900E+03  0.00000000000E+00 0. -1.
        -11    1    3    3    0    0  0.54061004073E+02  0.36708452610E+02  0.62702143735E+02  0.90563024924E+02  0.00000000000E+00 0.  1.
         22    1    1    2    0    0 -0.54681144741E+03 -0.32371267613E+03 -0.20197521626E+04  0.21173548248E+04  0.00000000000E+00 0.  1.
<mgrwt>
<rscale>  0 0.22301029E+04</rscale>
<asrwt>0</asrwt>
<pdfrwt beam="1">  1        2 0.35009329E+00 0.22301029E+04</pdfrwt>
<pdfrwt beam="2">  1       -2 0.84058051E-01 0.22301029E+04</pdfrwt>
<totfact> 0.52734659E+00</totfact>
</mgrwt>
</event>
<event>
 6    1  0.4630212E-004  0.2652459E+04  0.7818608E-02  0.8350597E-01
         -2   -1    0    0    0  501 -0.00000000000E+00  0.00000000000E+00  0.56343477999E+03  0.56343477999E+03  0.00000000000E+00 0. -1.
          2   -1    0    0  501    0  0.00000000000E+00 -0.00000000000E+00 -0.31217177155E+04  0.31217177155E+04  0.00000000000E+00 0.  1.
         23    2    1    2    0    0  0.63771698691E+03  0.40597657150E+03  0.23057404873E+03  0.79565025280E+03  0.91624237126E+02 0.  0.
         11    1    3    3    0    0  0.41575379561E+03  0.24382716970E+03  0.10421416796E+03  0.49311611214E+03  0.00000000000E+00 0. -1.
        -11    1    3    3    0    0  0.22196319130E+03  0.16214940179E+03  0.12635988077E+03  0.30253414065E+03  0.00000000000E+00 0.  1.
         22    1    1    2    0    0 -0.63771698691E+03 -0.40597657150E+03 -0.27888569843E+04  0.28895022427E+04  0.00000000000E+00 0.  1.
<mgrwt>
<rscale>  0 0.26524587E+04</rscale>
<asrwt>0</asrwt>
<pdfrwt beam="1">  1        2 0.48026426E+00 0.26524587E+04</pdfrwt>
<pdfrwt beam="2">  1       -2 0.86682275E-01 0.26524587E+04</pdfrwt>
<totfact> 0.14786929E+00</totfact>
</mgrwt>
</event>
<event>
 6    1  0.4630212E-004  0.2711354E+04  0.7818608E-02  0.8331330E-01
          2   -1    0    0  501    0  0.00000000000E+00  0.00000000000E+00  0.10921414025E+04  0.10921414025E+04  0.00000000000E+00 0.  1.
         -2   -1    0    0    0  501 -0.00000000000E+00 -0.00000000000E+00 -0.16828042308E+04  0.16828042308E+04  0.00000000000E+00 0. -1.
         23    2    1    2    0    0 -0.49501366293E+03  0.44885956526E+03 -0.15009279235E+04  0.16457441547E+04  0.95790162389E+02 0.  0.
         11    1    3    3    0    0 -0.37654099468E+03  0.39226413590E+03 -0.12125040442E+04  0.13288417250E+04  0.00000000000E+00 0.  1.
        -11    1    3    3    0    0 -0.11847266825E+03  0.56595429359E+02 -0.28842387935E+03  0.31690242966E+03  0.00000000000E+00 0. -1.
         22    1    1    2    0    0  0.49501366293E+03 -0.44885956526E+03  0.91026509526E+03  0.11292014787E+04  0.00000000000E+00 0.  1.
<mgrwt>
<rscale>  0 0.27113540E+04</rscale>
<asrwt>0</asrwt>
<pdfrwt beam="1">  1        2 0.16802176E+00 0.27113540E+04</pdfrwt>
<pdfrwt beam="2">  1       -2 0.25889296E+00 0.27113540E+04</pdfrwt>
<totfact> 0.10942703E+00</totfact>
</mgrwt>
</event>
<event>
 6    1  0.4630212E-004  0.2508740E+04  0.7818608E-02  0.8399879E-01
          2   -1    0    0  501    0  0.00000000000E+00  0.00000000000E+00  0.20567001371E+04  0.20567001371E+04  0.00000000000E+00 0.  1.
         -2   -1    0    0    0  501 -0.00000000000E+00 -0.00000000000E+00 -0.76503317504E+03  0.76503317504E+03  0.00000000000E+00 0. -1.
         23    2    1    2    0    0  0.70626523159E+02 -0.60061783139E+03 -0.58649706641E+03  0.84860635146E+03  0.10209821578E+03 0.  0.
         13    1    3    3    0    0  0.58695331469E+02 -0.16381428002E+03 -0.20141756119E+03  0.26617530733E+03  0.00000000000E+00 0.  1.
        -13    1    3    3    0    0  0.11931191690E+02 -0.43680355137E+03 -0.38507950522E+03  0.58243104413E+03  0.00000000000E+00 0. -1.
         22    1    1    2    0    0 -0.70626523159E+02  0.60061783139E+03  0.18781640284E+04  0.19731269607E+04  0.00000000000E+00 0.  1.
<mgrwt>
<rscale>  0 0.25087398E+04</rscale>
<asrwt>0</asrwt>
<pdfrwt beam="1">  1        2 0.31641540E+00 0.25087398E+04</pdfrwt>
<pdfrwt beam="2">  1       -2 0.11769741E+00 0.25087398E+04</pdfrwt>
<totfact> 0.30843865E+00</totfact>
</mgrwt>
</event>
<event>
 6    1  0.4630212E-004  0.2838526E+04  0.7818608E-02  0.8291406E-01
          2   -1    0    0  501    0  0.00000000000E+00  0.00000000000E+00  0.29406215705E+04  0.29406215705E+04  0.00000000000E+00 0.  1.
         -2   -1    0    0    0  501 -0.00000000000E+00 -0.00000000000E+00 -0.68499380001E+03  0.68499380001E+03  0.00000000000E+00 0. -1.
         23    2    1    2    0    0  0.61524210553E+03  0.12748189308E+04  0.10268367831E+04  0.17511518618E+04  0.91939704646E+02 0.  0.
         13    1    3    3    0    0  0.20823989581E+03  0.52697765226E+03  0.38880915210E+03  0.68719855715E+03  0.00000000000E+00 0.  1.
        -13    1    3    3    0    0  0.40700220972E+03  0.74784127853E+03  0.63802763105E+03  0.10639533047E+04  0.00000000000E+00 0. -1.
         22    1    1    2    0    0 -0.61524210553E+03 -0.12748189308E+04  0.12287909874E+04  0.18744635087E+04  0.00000000000E+00 0. -1.
<mgrwt>
<rscale>  0 0.28385261E+04</rscale>
<asrwt>0</asrwt>
<pdfrwt beam="1">  1        2 0.45240331E+00 0.28385261E+04</pdfrwt>
<pdfrwt beam="2">  1       -2 0.10538366E+00 0.28385261E+04</pdfrwt>
<totfact> 0.11979665E+00</totfact>
</mgrwt>
</event>
<event>
 6    1  0.4630212E-004  0.2666475E+04  0.7818608E-02  0.8345965E-01
         -2   -1    0    0    0  501 -0.00000000000E+00  0.00000000000E+00  0.71979191757E+03  0.71979191757E+03  0.00000000000E+00 0. -1.
          2   -1    0    0  501    0  0.00000000000E+00 -0.00000000000E+00 -0.24694947554E+04  0.24694947554E+04  0.00000000000E+00 0.  1.
         23    2    1    2    0    0 -0.32745045447E+02  0.11233377845E+04 -0.21349928718E+02  0.11276941346E+04  0.90984755016E+02 0.  0.
         13    1    3    3    0    0 -0.64446437381E+02  0.74352797451E+03 -0.93266420322E+01  0.74637402047E+03  0.00000000000E+00 0. -1.
        -13    1    3    3    0    0  0.31701391934E+02  0.37980980995E+03 -0.12023286686E+02  0.38132011409E+03  0.00000000000E+00 0.  1.
         22    1    1    2    0    0  0.32745045447E+02 -0.11233377845E+04 -0.17283529091E+04  0.20615925384E+04  0.00000000000E+00 0.  1.
<mgrwt>
<rscale>  0 0.26664751E+04</rscale>
<asrwt>0</asrwt>
<pdfrwt beam="1">  1        2 0.37992226E+00 0.26664751E+04</pdfrwt>
<pdfrwt beam="2">  1       -2 0.11073722E+00 0.26664751E+04</pdfrwt>
<totfact> 0.20614316E+00</totfact>
</mgrwt>
</event>
<event>
 6    1  0.4630212E-004  0.1162411E+04  0.7818608E-02  0.9146410E-01
         -2   -1    0    0    0  501 -0.00000000000E+00  0.00000000000E+00  0.13374729741E+03  0.13374729741E+03  0.00000000000E+00 0.  1.
          2   -1    0    0  501    0  0.00000000000E+00 -0.00000000000E+00 -0.25256556854E+04  0.25256556854E+04  0.00000000000E+00 0. -1.
         23    2    1    2    0    0  0.47036793346E+02 -0.52068303402E+03 -0.64033678476E+03  0.83147345379E+03  0.89407072381E+02 0.  0.
         11    1    3    3    0    0 -0.20564740653E+02 -0.26874971884E+03 -0.32258209076E+03  0.42036713147E+03  0.00000000000E+00 0. -1.
        -11    1    3    3    0    0  0.67601533999E+02 -0.25193331518E+03 -0.31775469400E+03  0.41110632232E+03  0.00000000000E+00 0.  1.
         22    1    1    2    0    0 -0.47036793346E+02  0.52068303402E+03 -0.17515716032E+04  0.18279295290E+04  0.00000000000E+00 0.  1.
<mgrwt>
<rscale>  0 0.11624106E+04</rscale>
<asrwt>0</asrwt>
<pdfrwt beam="1">  1        2 0.38856237E+00 0.11624106E+04</pdfrwt>
<pdfrwt beam="2">  1       -2 0.20576509E-01 0.11624106E+04</pdfrwt>
<totfact> 0.68155415E+01</totfact>
</mgrwt>
</event>
<event>
 6    1  0.4630212E-004  0.9378603E+03  0.7818608E-02  0.9379454E-01
         -2   -1    0    0    0  501 -0.00000000000E+00  0.00000000000E+00  0.34009094352E+03  0.34009094352E+03  0.00000000000E+00 0. -1.
          2   -1    0    0  501    0  0.00000000000E+00 -0.00000000000E+00 -0.64657850255E+03  0.64657850255E+03  0.00000000000E+00 0.  1.
         23    2    1    2    0    0 -0.78259328418E+02 -0.45398500390E+03 -0.21615496850E+03  0.51721563241E+03  0.92531798623E+02 0.  0.
         13    1    3    3    0    0 -0.53446754591E+02 -0.23120518380E+03 -0.15977181418E+03  0.28607590811E+03  0.00000000000E+00 0. -1.
        -13    1    3    3    0    0 -0.24812573827E+02 -0.22277982009E+03 -0.56383154329E+02  0.23113972431E+03  0.00000000000E+00 0.  1.
         22    1    1    2    0    0  0.78259328418E+02  0.45398500390E+03 -0.90332590530E+02  0.46945381366E+03  0.00000000000E+00 0. -1.
<mgrwt>
<rscale>  0 0.93786032E+03</rscale>
<asrwt>0</asrwt>
<pdfrwt beam="1">  1        2 0.99473616E-01 0.93786032E+03</pdfrwt>
<pdfrwt beam="2">  1       -2 0.52321683E-01 0.93786032E+03</pdfrwt>
<totfact> 0.15630485E+02</totfact>
</mgrwt>
</event>
<event>
 6    1  0.4630212E-004  0.1493437E+04  0.7818608E-02  0.8888829E-01
          2   -1    0    0  501    0  0.00000000000E+00  0.00000000000E+00  0.20818952465E+04  0.20818952465E+04  0.00000000000E+00 0.  1.
         -2   -1    0    0    0  501 -0.00000000000E+00 -0.00000000000E+00 -0.26782728320E+03  0.26782728320E+03  0.00000000000E+00 0. -1.
         23    2    1    2    0    0  0.64428653768E+03 -0.78116632351E+02  0.14824654256E+04  0.16209100751E+04  0.91860670182E+02 0.  0.
         13    1    3    3    0    0  0.39002152246E+03 -0.92308441832E+02  0.91211533171E+03  0.99628912207E+03  0.00000000000E+00 0. -1.
        -13    1    3    3    0    0  0.25426501522E+03  0.14191809481E+02  0.57035009389E+03  0.62462095308E+03  0.00000000000E+00 0.  1.
         22    1    1    2    0    0 -0.64428653768E+03  0.78116632351E+02  0.33160253765E+03  0.72881245452E+03  0.00000000000E+00 0. -1.
<mgrwt>
<rscale>  0 0.14934368E+04</rscale>
<asrwt>0</asrwt>
<pdfrwt beam="1">  1        2 0.32029157E+00 0.14934368E+04</pdfrwt>
<pdfrwt beam="2">  1       -2 0.41204199E-01 0.14934368E+04</pdfrwt>
<totfact> 0.32458496E+01</totfact>
</mgrwt>
</event>
<event>
 6    1  0.4630212E-004  0.1748050E+04  0.7818608E-02  0.8734425E-01
         -2   -1    0    0    0  501 -0.00000000000E+00  0.00000000000E+00  0.50587933715E+03  0.50587933715E+03  0.00000000000E+00 0. -1.
          2   -1    0    0  501    0  0.00000000000E+00 -0.00000000000E+00 -0.15100822871E+04  0.15100822871E+04  0.00000000000E+00 0.  1.
         23    2    1    2    0    0 -0.16554776965E+03  0.37899665976E+03  0.38119320689E+03  0.57015145569E+03  0.93380347509E+02 0.  0.
         13    1    3    3    0    0 -0.13087395683E+03  0.34710759036E+03  0.30351407811E+03  0.47930414923E+03  0.00000000000E+00 0.  1.
        -13    1    3    3    0    0 -0.34673812817E+02  0.31889069406E+02  0.77679128782E+02  0.90847306461E+02  0.00000000000E+00 0. -1.
         22    1    1    2    0    0  0.16554776965E+03 -0.37899665976E+03 -0.13853961568E+04  0.14458101685E+04  0.00000000000E+00 0.  1.
<mgrwt>
<rscale>  0 0.17480497E+04</rscale>
<asrwt>0</asrwt>
<pdfrwt beam="1">  1        2 0.23232035E+00 0.17480497E+04</pdfrwt>
<pdfrwt beam="2">  1       -2 0.77827591E-01 0.17480497E+04</pdfrwt>
<totfact> 0.17462771E+01</totfact>
</mgrwt>
</event>
<event>
 6    1  0.4630212E-004  0.1769819E+04  0.7818608E-02  0.8722516E-01
          2   -1    0    0  501    0  0.00000000000E+00  0.00000000000E+00  0.23322963005E+04  0.23322963005E+04  0.00000000000E+00 0.  1.
         -2   -1    0    0    0  501 -0.00000000000E+00 -0.00000000000E+00 -0.33574843781E+03  0.33574843781E+03  0.00000000000E+00 0. -1.
         23    2    1    2    0    0 -0.53155417038E+03 -0.70385155004E+03  0.95110203613E+03  0.13002312215E+04  0.89717922711E+02 0.  0.
         11    1    3    3    0    0 -0.29975566560E+03 -0.35431345126E+03  0.44559505242E+03  0.64338668897E+03  0.00000000000E+00 0.  1.
        -11    1    3    3    0    0 -0.23179850478E+03 -0.34953809878E+03  0.50550698371E+03  0.65684453251E+03  0.00000000000E+00 0. -1.
         22    1    1    2    0    0  0.53155417038E+03  0.70385155004E+03  0.10454458266E+04  0.13678135169E+04  0.00000000000E+00 0.  1.
<mgrwt>
<rscale>  0 0.17698190E+04</rscale>
<asrwt>0</asrwt>
<pdfrwt beam="1">  1        2 0.35881480E+00 0.17698190E+04</pdfrwt>
<pdfrwt beam="2">  1       -2 0.51653607E-01 0.17698190E+04</pdfrwt>
<totfact> 0.14569689E+01</totfact>
</mgrwt>
</event>
<event>
 6    1  0.4630212E-004  0.1884978E+04  0.7818608E-02  0.8662370E-01
          2   -1    0    0  501    0  0.00000000000E+00  0.00000000000E+00  0.15544756588E+04  0.15544756588E+04  0.00000000000E+00 0.  1.
         -2   -1    0    0    0  501 -0.00000000000E+00 -0.00000000000E+00 -0.57143764476E+03  0.57143764476E+03  0.00000000000E+00 0. -1.
         23    2    1    2    0    0 -0.76411468730E+02 -0.93483729438E+03  0.56760817092E+03  0.11000763603E+04  0.90716499830E+02 0.  0.
         13    1    3    3    0    0 -0.49392773558E+02 -0.17180578552E+03  0.11245352748E+03  0.21119344181E+03  0.00000000000E+00 0. -1.
        -13    1    3    3    0    0 -0.27018695172E+02 -0.76303150885E+03  0.45515464344E+03  0.88888291852E+03  0.00000000000E+00 0.  1.
         22    1    1    2    0    0  0.76411468730E+02  0.93483729438E+03  0.41542984309E+03  0.10258369432E+04  0.00000000000E+00 0. -1.
<mgrwt>
<rscale>  0 0.18849784E+04</rscale>
<asrwt>0</asrwt>
<pdfrwt beam="1">  1        2 0.23915010E+00 0.18849784E+04</pdfrwt>
<pdfrwt beam="2">  1       -2 0.87913484E-01 0.18849784E+04</pdfrwt>
<totfact> 0.12371362E+01</totfact>
</mgrwt>
</event>
<event>
 6    1  0.4630212E-004  0.1975708E+04  0.7818608E-02  0.8618063E-01
          2   -1    0    0  501    0  0.00000000000E+00  0.00000000000E+00  0.23139582988E+04  0.23139582988E+04  0.00000000000E+00 0.  1.
         -2   -1    0    0    0  501 -0.00000000000E+00 -0.00000000000E+00 -0.42172582079E+03  0.42172582079E+03  0.00000000000E+00 0. -1.
         23    2    1    2    0    0 -0.86547409677E+03  0.14303114441E+03  0.32520532619E+03  0.93983406600E+03  0.89589323989E+02 0.  0.
         13    1    3    3    0    0 -0.17282521151E+03  0.44307525515E+02  0.32143997068E+02  0.18128691927E+03  0.00000000000E+00 0.  1.
        -13    1    3    3    0    0 -0.69264888526E+03  0.98723618896E+02  0.29306132912E+03  0.75854714672E+03  0.00000000000E+00 0. -1.
         22    1    1    2    0    0  0.86547409677E+03 -0.14303114441E+03  0.15670271518E+04  0.17958500536E+04  0.00000000000E+00 0.  1.
<mgrwt>
<rscale>  0 0.19757084E+04</rscale>
<asrwt>0</asrwt>
<pdfrwt beam="1">  1        2 0.35599358E+00 0.19757084E+04</pdfrwt>
<pdfrwt beam="2">  1       -2 0.64880897E-01 0.19757084E+04</pdfrwt>
<totfact> 0.90844706E+00</totfact>
</mgrwt>
</event>
<event>
 6    1  0.4630212E-004  0.2139768E+04  0.7818608E-02  0.8543925E-01
         -2   -1    0    0    0  501 -0.00000000000E+00  0.00000000000E+00  0.38467022516E+03  0.38467022516E+03  0.00000000000E+00 0. -1.
          2   -1    0    0  501    0  0.00000000000E+00 -0.00000000000E+00 -0.29756709958E+04  0.29756709958E+04  0.00000000000E+00 0.  1.
         23    2    1    2    0    0 -0.46800804326E+03 -0.57384691382E+03 -0.25063828908E+04  0.26150278677E+04  0.89909644307E+02 0.  0.
         11    1    3    3    0    0 -0.21361640966E+03 -0.21329516288E+03 -0.11310380622E+04  0.11706297003E+04  0.00000000000E+00 0. -1.
        -11    1    3    3    0    0 -0.25439163360E+03 -0.36055175094E+03 -0.13753448286E+04  0.14443981674E+04  0.00000000000E+00 0.  1.
         22    1    1    2    0    0  0.46800804326E+03  0.57384691382E+03 -0.84617879832E+02  0.74531335333E+03  0.00000000000E+00 0. -1.
<mgrwt>
<rscale>  0 0.21397682E+04</rscale>
<asrwt>0</asrwt>
<pdfrwt beam="1">  1        2 0.45779553E+00 0.21397682E+04</pdfrwt>
<pdfrwt beam="2">  1       -2 0.59180035E-01 0.21397682E+04</pdfrwt>
<totfact> 0.44231887E+00</totfact>
</mgrwt>
</event>
<event>
 6    1  0.4630212E-004  0.1608231E+04  0.7818608E-02  0.8815508E-01
         -2   -1    0    0    0  501 -0.00000000000E+00  0.00000000000E+00  0.11726003381E+04  0.11726003381E+04  0.00000000000E+00 0. -1.
          2   -1    0    0  501    0  0.00000000000E+00 -0.00000000000E+00 -0.55142525082E+03  0.55142525082E+03  0.00000000000E+00 0.  1.
         23    2    1    2    0    0  0.69016779263E+02  0.79840542997E+03  0.30031505555E+03  0.86079577803E+03  0.92551026236E+02 0.  0.
         13    1    3    3    0    0  0.43407026155E+02  0.44975096458E+03  0.21780749626E+03  0.50159765299E+03  0.00000000000E+00 0. -1.
        -13    1    3    3    0    0  0.25609753108E+02  0.34865446539E+03  0.82507559293E+02  0.35919812504E+03  0.00000000000E+00 0.  1.
         22    1    1    2    0    0 -0.69016779263E+02 -0.79840542997E+03  0.32086003170E+03  0.86322981087E+03  0.00000000000E+00 0. -1.
<mgrwt>
<rscale>  0 0.16082306E+04</rscale>
<asrwt>0</asrwt>
<pdfrwt beam="1">  1        2 0.84834654E-01 0.16082306E+04</pdfrwt>
<pdfrwt beam="2">  1       -2 0.18040005E+00 0.16082306E+04</pdfrwt>
<totfact> 0.94670370E+00</totfact>
</mgrwt>
</event>
<event>
 6    1  0.4630212E-004  0.1435368E+04  0.7818608E-02  0.8928608E-01
         -2   -1    0    0    0  501 -0.00000000000E+00  0.00000000000E+00  0.15274286846E+04  0.15274286846E+04  0.00000000000E+00 0. -1.
          2   -1    0    0  501    0  0.00000000000E+00 -0.00000000000E+00 -0.33721395155E+03  0.33721395155E+03  0.00000000000E+00 0.  1.
         23    2    1    2    0    0 -0.30782517497E+03  0.63593323334E+03  0.73853412692E+03  0.10260826886E+04  0.90805350652E+02 0.  0.
         13    1    3    3    0    0 -0.69797338218E+02  0.21122318332E+03  0.27652371802E+03  0.35489754609E+03  0.00000000000E+00 0. -1.
        -13    1    3    3    0    0 -0.23802783675E+03  0.42471005002E+03  0.46201040889E+03  0.67118514255E+03  0.00000000000E+00 0.  1.
         22    1    1    2    0    0  0.30782517497E+03 -0.63593323334E+03  0.45168060613E+03  0.83855994751E+03  0.00000000000E+00 0.  1.
<mgrwt>
<rscale>  0 0.14353679E+04</rscale>
<asrwt>0</asrwt>
<pdfrwt beam="1">  1        2 0.51879071E-01 0.14353679E+04</pdfrwt>
<pdfrwt beam="2">  1       -2 0.23498902E+00 0.14353679E+04</pdfrwt>
<totfact> 0.74442429E+00</totfact>
</mgrwt>
</event>
<event>
 6    1  0.4630212E-004  0.3597199E+04  0.7818608E-02  0.8091134E-01
         -2   -1    0    0    0  501 -0.00000000000E+00  0.00000000000E+00  0.71974121575E+03  0.71974121575E+03  0.00000000000E+00 0. -1.
          2   -1    0    0  501    0  0.00000000000E+00 -0.00000000000E+00 -0.44946164046E+04  0.44946164046E+04  0.00000000000E+00 0.  1.
         23    2    1    2    0    0 -0.65756121640E+03  0.10091406171E+04 -0.38226531775E+04  0.40089389070E+04  0.90345478987E+02 0.  0.
         11    1    3    3    0    0 -0.11497801523E+03  0.13441373012E+03 -0.49040109626E+03  0.52132545501E+03  0.00000000000E+00 0.  1.
        -11    1    3    3    0    0 -0.54258320117E+03  0.87472688703E+03 -0.33322520813E+04  0.34876134519E+04  0.00000000000E+00 0. -1.
         22    1    1    2    0    0  0.65756121640E+03 -0.10091406171E+04  0.47777988626E+02  0.12054187134E+04  0.00000000000E+00 0. -1.
<mgrwt>
<rscale>  0 0.35971993E+04</rscale>
<asrwt>0</asrwt>
<pdfrwt beam="1">  1        2 0.69147945E+00 0.35971993E+04</pdfrwt>
<pdfrwt beam="2">  1       -2 0.11072942E+00 0.35971993E+04</pdfrwt>
<totfact> 0.65316250E-02</totfact>
</mgrwt>
</event>
<event>
 6    1  0.4630212E-004  0.1780175E+04  0.7818608E-02  0.8716914E-01
          2   -1    0    0  501    0  0.00000000000E+00  0.00000000000E+00  0.16717500390E+04  0.16717500390E+04  0.00000000000E+00 0.  1.
         -2   -1    0    0    0  501 -0.00000000000E+00 -0.00000000000E+00 -0.47390786628E+03  0.47390786628E+03  0.00000000000E+00 0. -1.
         23    2    1    2    0    0  0.82249353077E+03 -0.28531976299E+03  0.39128020878E+03  0.95887857577E+03  0.91896387136E+02 0.  0.
         13    1    3    3    0    0  0.33380999180E+03 -0.15765778884E+03  0.18969607101E+03  0.41505383791E+03  0.00000000000E+00 0. -1.
        -13    1    3    3    0    0  0.48868353897E+03 -0.12766197415E+03  0.20158413777E+03  0.54382473785E+03  0.00000000000E+00 0.  1.
         22    1    1    2    0    0 -0.82249353077E+03  0.28531976299E+03  0.80656196398E+03  0.11867793296E+04  0.00000000000E+00 0. -1.
<mgrwt>
<rscale>  0 0.17801747E+04</rscale>
<asrwt>0</asrwt>
<pdfrwt beam="1">  1        2 0.25719231E+00 0.17801747E+04</pdfrwt>
<pdfrwt beam="2">  1       -2 0.72908903E-01 0.17801747E+04</pdfrwt>
<totfact> 0.16343430E+01</totfact>
</mgrwt>
</event>
<event>
 6    1  0.4630212E-004  0.1756887E+04  0.7818608E-02  0.8729568E-01
         -2   -1    0    0    0  501 -0.00000000000E+00  0.00000000000E+00  0.76804188851E+03  0.76804188851E+03  0.00000000000E+00 0. -1.
          2   -1    0    0  501    0  0.00000000000E+00 -0.00000000000E+00 -0.10047151257E+04  0.10047151257E+04  0.00000000000E+00 0.  1.
         23    2    1    2    0    0  0.56990492605E+03  0.59060091415E+03  0.19055714906E+03  0.84748577426E+03  0.91208804271E+02 0.  0.
         13    1    3    3    0    0  0.30636900948E+03  0.27818464325E+03  0.58372429059E+02  0.41791865977E+03  0.00000000000E+00 0.  1.
        -13    1    3    3    0    0  0.26353591657E+03  0.31241627090E+03  0.13218472000E+03  0.42956711449E+03  0.00000000000E+00 0. -1.
         22    1    1    2    0    0 -0.56990492605E+03 -0.59060091415E+03 -0.42723038625E+03  0.92527123994E+03  0.00000000000E+00 0.  1.
<mgrwt>
<rscale>  0 0.17568874E+04</rscale>
<asrwt>0</asrwt>
<pdfrwt beam="1">  1        2 0.15457156E+00 0.17568874E+04</pdfrwt>
<pdfrwt beam="2">  1       -2 0.11816029E+00 0.17568874E+04</pdfrwt>
<totfact> 0.13074794E+01</totfact>
</mgrwt>
</event>
<event>
 6    1  0.4630212E-004  0.4456879E+04  0.7818608E-02  0.7918230E-01
         -2   -1    0    0    0  501 -0.00000000000E+00  0.00000000000E+00  0.21248085703E+04  0.21248085703E+04  0.00000000000E+00 0. -1.
          2   -1    0    0  501    0  0.00000000000E+00 -0.00000000000E+00 -0.23371242947E+04  0.23371242947E+04  0.00000000000E+00 0.  1.
         23    2    1    2    0    0  0.19339618625E+04 -0.81165069279E+03  0.64486076689E+03  0.21961577505E+04  0.90984195643E+02 0.  0.
         13    1    3    3    0    0  0.44167145262E+03 -0.21870645951E+03  0.12720827830E+03  0.50900700738E+03  0.00000000000E+00 0.  1.
        -13    1    3    3    0    0  0.14922904098E+04 -0.59294423327E+03  0.51765248859E+03  0.16871507431E+04  0.00000000000E+00 0. -1.
         22    1    1    2    0    0 -0.19339618625E+04  0.81165069279E+03 -0.85717649125E+03  0.22657751145E+04  0.00000000000E+00 0. -1.
<mgrwt>
<rscale>  0 0.44568786E+04</rscale>
<asrwt>0</asrwt>
<pdfrwt beam="1">  1        2 0.35955758E+00 0.44568786E+04</pdfrwt>
<pdfrwt beam="2">  1       -2 0.32689363E+00 0.44568786E+04</pdfrwt>
<totfact> 0.71259446E-02</totfact>
</mgrwt>
</event>
<event>
 6    1  0.4630212E-004  0.2902818E+04  0.7818608E-02  0.8272039E-01
         -2   -1    0    0    0  501 -0.00000000000E+00  0.00000000000E+00  0.12764007121E+04  0.12764007121E+04  0.00000000000E+00 0. -1.
          2   -1    0    0  501    0  0.00000000000E+00 -0.00000000000E+00 -0.16504132551E+04  0.16504132551E+04  0.00000000000E+00 0.  1.
         23    2    1    2    0    0  0.31830027462E+03 -0.89880324507E+03  0.91455448272E+03  0.13238269685E+04  0.83340281601E+02 0.  0.
         13    1    3    3    0    0  0.64314071661E+02 -0.20543852875E+03  0.16125066098E+03  0.26896666071E+03  0.00000000000E+00 0. -1.
        -13    1    3    3    0    0  0.25398620296E+03 -0.69336471631E+03  0.75330382174E+03  0.10548603078E+04  0.00000000000E+00 0.  1.
         22    1    1    2    0    0 -0.31830027462E+03  0.89880324507E+03 -0.12885670257E+04  0.16029869987E+04  0.00000000000E+00 0.  1.
<mgrwt>
<rscale>  0 0.29028184E+04</rscale>
<asrwt>0</asrwt>
<pdfrwt beam="1">  1        2 0.25390973E+00 0.29028184E+04</pdfrwt>
<pdfrwt beam="2">  1       -2 0.19636934E+00 0.29028184E+04</pdfrwt>
<totfact> 0.12675947E+00</totfact>
</mgrwt>
</event>
<event>
 6    1  0.4630212E-004  0.3439552E+04  0.7818608E-02  0.8128267E-01
         -2   -1    0    0    0  501 -0.00000000000E+00  0.00000000000E+00  0.17236427579E+04  0.17236427579E+04  0.00000000000E+00 0. -1.
          2   -1    0    0  501    0  0.00000000000E+00 -0.00000000000E+00 -0.17159175433E+04  0.17159175433E+04  0.00000000000E+00 0.  1.
         23    2    1    2    0    0 -0.82187853645E+03 -0.11581576007E+04  0.97171688326E+03  0.17231415603E+04  0.90386829373E+02 0.  0.
         11    1    3    3    0    0 -0.23312273482E+03 -0.38126059515E+03  0.34064837167E+03  0.56191384039E+03  0.00000000000E+00 0.  1.
        -11    1    3    3    0    0 -0.58875580163E+03 -0.77689700553E+03  0.63106851159E+03  0.11612277199E+04  0.00000000000E+00 0. -1.
         22    1    1    2    0    0  0.82187853645E+03  0.11581576007E+04 -0.96399166864E+03  0.17164187408E+04  0.00000000000E+00 0.  1.
<mgrwt>
<rscale>  0 0.34395516E+04</rscale>
<asrwt>0</asrwt>
<pdfrwt beam="1">  1        2 0.26398731E+00 0.34395516E+04</pdfrwt>
<pdfrwt beam="2">  1       -2 0.26517581E+00 0.34395516E+04</pdfrwt>
<totfact> 0.41159803E-01</totfact>
</mgrwt>
</event>
<event>
 6    1  0.4630212E-004  0.2237310E+04  0.7818608E-02  0.8503057E-01
         -2   -1    0    0    0  501 -0.00000000000E+00  0.00000000000E+00  0.19829129092E+04  0.19829129092E+04  0.00000000000E+00 0. -1.
          2   -1    0    0  501    0  0.00000000000E+00 -0.00000000000E+00 -0.63108642860E+03  0.63108642860E+03  0.00000000000E+00 0.  1.
         23    2    1    2    0    0 -0.16556646564E+03  0.27874379747E+03 -0.57172969961E+03  0.66331260293E+03  0.89433777799E+02 0.  0.
         11    1    3    3    0    0 -0.26658148486E+02  0.38528523023E+02 -0.16065678602E+03  0.16734905694E+03  0.00000000000E+00 0.  1.
        -11    1    3    3    0    0 -0.13890831716E+03  0.24021527445E+03 -0.41107291360E+03  0.49596354599E+03  0.00000000000E+00 0. -1.
         22    1    1    2    0    0  0.16556646564E+03 -0.27874379747E+03  0.19235561802E+04  0.19506867349E+04  0.00000000000E+00 0. -1.
<mgrwt>
<rscale>  0 0.22373104E+04</rscale>
<asrwt>0</asrwt>
<pdfrwt beam="1">  1        2 0.97090220E-01 0.22373104E+04</pdfrwt>
<pdfrwt beam="2">  1       -2 0.30506352E+00 0.22373104E+04</pdfrwt>
<totfact> 0.12581361E+00</totfact>
</mgrwt>
</event>
<event>
 6    1  0.4630212E-004  0.3113629E+04  0.7818608E-02  0.8212007E-01
         -2   -1    0    0    0  501 -0.00000000000E+00  0.00000000000E+00  0.82151238103E+03  0.82151238103E+03  0.00000000000E+00 0. -1.
          2   -1    0    0  501    0  0.00000000000E+00 -0.00000000000E+00 -0.29502557015E+04  0.29502557015E+04  0.00000000000E+00 0.  1.
         23    2    1    2    0    0 -0.14419880776E+04  0.54146550440E+03 -0.13280698316E+04  0.20357978800E+04  0.90493217275E+02 0.  0.
         11    1    3    3    0    0 -0.44959335632E+03  0.20592595513E+03 -0.39444844711E+03  0.63255771474E+03  0.00000000000E+00 0.  1.
        -11    1    3    3    0    0 -0.99239472125E+03  0.33553954927E+03 -0.93362138447E+03  0.14032401653E+04  0.00000000000E+00 0. -1.
         22    1    1    2    0    0  0.14419880776E+04 -0.54146550440E+03 -0.80067348894E+03  0.17359702026E+04  0.00000000000E+00 0. -1.
<mgrwt>
<rscale>  0 0.31136291E+04</rscale>
<asrwt>0</asrwt>
<pdfrwt beam="1">  1        2 0.45388550E+00 0.31136291E+04</pdfrwt>
<pdfrwt beam="2">  1       -2 0.12638652E+00 0.31136291E+04</pdfrwt>
<totfact> 0.73922840E-01</totfact>
</mgrwt>
</event>
<event>
 6    1  0.4630212E-004  0.4983044E+04  0.7818608E-02  0.7831128E-01
         -2   -1    0    0    0  501 -0.00000000000E+00  0.00000000000E+00  0.34018457822E+04  0.34018457822E+04  0.00000000000E+00 0.  1.
          2   -1    0    0  501    0  0.00000000000E+00 -0.00000000000E+00 -0.18247983925E+04  0.18247983925E+04  0.00000000000E+00 0. -1.
         23    2    1    2    0    0  0.16905546554E+04 -0.17042381993E+04  0.92228152212E+02  0.24040405803E+04  0.92207355915E+02 0.  0.
         13    1    3    3    0    0  0.80702500837E+03 -0.76252241037E+03  0.13953956598E+02  0.11103713358E+04  0.00000000000E+00 0.  1.
        -13    1    3    3    0    0  0.88352964708E+03 -0.94171578892E+03  0.78274195614E+02  0.12936692445E+04  0.00000000000E+00 0. -1.
         22    1    1    2    0    0 -0.16905546554E+04  0.17042381993E+04  0.14848192375E+04  0.28226035944E+04  0.00000000000E+00 0.  1.
<mgrwt>
<rscale>  0 0.49830443E+04</rscale>
<asrwt>0</asrwt>
<pdfrwt beam="1">  1        2 0.28073822E+00 0.49830443E+04</pdfrwt>
<pdfrwt beam="2">  1       -2 0.52336089E+00 0.49830443E+04</pdfrwt>
<totfact> 0.73407075E-03</totfact>
</mgrwt>
</event>
<event>
 6    1  0.4630212E-004  0.1255046E+04  0.7818608E-02  0.9065994E-01
         -2   -1    0    0    0  501 -0.00000000000E+00  0.00000000000E+00  0.24707830421E+03  0.24707830421E+03  0.00000000000E+00 0. -1.
          2   -1    0    0  501    0  0.00000000000E+00 -0.00000000000E+00 -0.15937668253E+04  0.15937668253E+04  0.00000000000E+00 0.  1.
         23    2    1    2    0    0  0.26048698032E+03  0.44986866054E+03 -0.16986874050E+03  0.55432265607E+03  0.90459600850E+02 0.  0.
         13    1    3    3    0    0  0.10311560583E+03  0.11508582659E+03 -0.78311467112E+02  0.17323470070E+03  0.00000000000E+00 0.  1.
        -13    1    3    3    0    0  0.15737137449E+03  0.33478283395E+03 -0.91557273389E+02  0.38108795537E+03  0.00000000000E+00 0. -1.
         22    1    1    2    0    0 -0.26048698032E+03 -0.44986866054E+03 -0.11768197806E+04  0.12865224735E+04  0.00000000000E+00 0.  1.
<mgrwt>
<rscale>  0 0.12550461E+04</rscale>
<asrwt>0</asrwt>
<pdfrwt beam="1">  1        2 0.24519490E+00 0.12550461E+04</pdfrwt>
<pdfrwt beam="2">  1       -2 0.38012046E-01 0.12550461E+04</pdfrwt>
<totfact> 0.72179184E+01</totfact>
</mgrwt>
</event>
<event>
 6    1  0.4630212E-004  0.3527688E+04  0.7818608E-02  0.8107259E-01
         -2   -1    0    0    0  501 -0.00000000000E+00  0.00000000000E+00  0.12577012603E+04  0.12577012603E+04  0.00000000000E+00 0. -1.
          2   -1    0    0  501    0  0.00000000000E+00 -0.00000000000E+00 -0.24736768384E+04  0.24736768384E+04  0.00000000000E+00 0.  1.
         23    2    1    2    0    0  0.13364228509E+04  0.11434778489E+04 -0.73080149893E+03  0.19068339051E+04  0.91526407783E+02 0.  0.
         11    1    3    3    0    0  0.62150899434E+03  0.55875161421E+03 -0.39142879052E+03  0.92287230670E+03  0.00000000000E+00 0. -1.
        -11    1    3    3    0    0  0.71491385653E+03  0.58472623473E+03 -0.33937270841E+03  0.98396159836E+03  0.00000000000E+00 0.  1.
         22    1    1    2    0    0 -0.13364228509E+04 -0.11434778489E+04 -0.48517407915E+03  0.18245441936E+04  0.00000000000E+00 0. -1.
<mgrwt>
<rscale>  0 0.35276885E+04</rscale>
<asrwt>0</asrwt>
<pdfrwt beam="1">  1        2 0.38056567E+00 0.35276885E+04</pdfrwt>
<pdfrwt beam="2">  1       -2 0.19349250E+00 0.35276885E+04</pdfrwt>
<totfact> 0.43412690E-01</totfact>
</mgrwt>
</event>
<event>
 6    1  0.4630212E-004  0.3443790E+04  0.7818608E-02  0.8127242E-01
         -2   -1    0    0    0  501 -0.00000000000E+00  0.00000000000E+00  0.15529502042E+04  0.15529502042E+04  0.00000000000E+00 0. -1.
          2   -1    0    0  501    0  0.00000000000E+00 -0.00000000000E+00 -0.19092188152E+04  0.19092188152E+04  0.00000000000E+00 0.  1.
         23    2    1    2    0    0  0.65712339436E+03  0.79427055473E+03  0.12068330017E+04  0.15897471862E+04  0.90406596274E+02 0.  0.
         13    1    3    3    0    0  0.34162410994E+03  0.34814387820E+03  0.59720855999E+03  0.77108317096E+03  0.00000000000E+00 0. -1.
        -13    1    3    3    0    0  0.31549928442E+03  0.44612667653E+03  0.60962444171E+03  0.81866401528E+03  0.00000000000E+00 0.  1.
         22    1    1    2    0    0 -0.65712339436E+03 -0.79427055473E+03 -0.15631016128E+04  0.18724218332E+04  0.00000000000E+00 0.  1.
<mgrwt>
<rscale>  0 0.34437896E+04</rscale>
<asrwt>0</asrwt>
<pdfrwt beam="1">  1        2 0.29372597E+00 0.34437896E+04</pdfrwt>
<pdfrwt beam="2">  1       -2 0.23891542E+00 0.34437896E+04</pdfrwt>
<totfact> 0.46607578E-01</totfact>
</mgrwt>
</event>
<event>
 6    1  0.4630212E-004  0.7075153E+03  0.7818608E-02  0.9704466E-01
         -2   -1    0    0    0  501 -0.00000000000E+00  0.00000000000E+00  0.22543258290E+03  0.22543258290E+03  0.00000000000E+00 0. -1.
          2   -1    0    0  501    0  0.00000000000E+00 -0.00000000000E+00 -0.55513041717E+03  0.55513041717E+03  0.00000000000E+00 0.  1.
         23    2    1    2    0    0 -0.29561043622E+02  0.13977407120E+03 -0.51744398219E+03  0.54464084693E+03  0.92058303059E+02 0.  0.
         13    1    3    3    0    0  0.18837028191E+02  0.99355031586E+02 -0.24610180832E+03  0.26606832956E+03  0.00000000000E+00 0.  1.
        -13    1    3    3    0    0 -0.48398071813E+02  0.40419039612E+02 -0.27134217387E+03  0.27857251738E+03  0.00000000000E+00 0. -1.
         22    1    1    2    0    0  0.29561043622E+02 -0.13977407120E+03  0.18774614792E+03  0.23592215313E+03  0.00000000000E+00 0. -1.
<mgrwt>
<rscale>  0 0.70751533E+03</rscale>
<asrwt>0</asrwt>
<pdfrwt beam="1">  1        2 0.85404679E-01 0.70751533E+03</pdfrwt>
<pdfrwt beam="2">  1       -2 0.34681936E-01 0.70751533E+03</pdfrwt>
<totfact> 0.42739988E+02</totfact>
</mgrwt>
</event>
<event>
 6    1  0.4630212E-004  0.3518311E+04  0.7818608E-02  0.8109464E-01
         -2   -1    0    0    0  501 -0.00000000000E+00  0.00000000000E+00  0.16139166391E+04  0.16139166391E+04  0.00000000000E+00 0. -1.
          2   -1    0    0  501    0  0.00000000000E+00 -0.00000000000E+00 -0.19174651628E+04  0.19174651628E+04  0.00000000000E+00 0.  1.
         23    2    1    2    0    0 -0.31145572498E+03  0.21359655472E+03 -0.18752008753E+04  0.19149909857E+04  0.90465440736E+02 0.  0.
         11    1    3    3    0    0 -0.46232215365E+02  0.29191659165E+02 -0.46833611046E+03  0.47151700188E+03  0.00000000000E+00 0. -1.
        -11    1    3    3    0    0 -0.26522350962E+03  0.18440489555E+03 -0.14068647648E+04  0.14434739838E+04  0.00000000000E+00 0.  1.
         22    1    1    2    0    0  0.31145572498E+03 -0.21359655472E+03  0.15716523515E+04  0.16163908162E+04  0.00000000000E+00 0. -1.
<mgrwt>
<rscale>  0 0.35183115E+04</rscale>
<asrwt>0</asrwt>
<pdfrwt beam="1">  1        2 0.29499464E+00 0.35183115E+04</pdfrwt>
<pdfrwt beam="2">  1       -2 0.24829487E+00 0.35183115E+04</pdfrwt>
<totfact> 0.40113706E-01</totfact>
</mgrwt>
</event>
<event>
 6    1  0.4630212E-004  0.2777190E+04  0.7818608E-02  0.8310385E-01
         -1   -1    0    0    0  501 -0.00000000000E+00  0.00000000000E+00  0.16561600544E+04  0.16561600544E+04  0.00000000000E+00 0. -1.
          1   -1    0    0  501    0  0.00000000000E+00 -0.00000000000E+00 -0.11642570288E+04  0.11642570288E+04  0.00000000000E+00 0.  1.
         23    2    1    2    0    0  0.81622116039E+03  0.12928162992E+03 -0.88497747969E+03  0.12145744233E+04  0.95263674210E+02 0.  0.
         11    1    3    3    0    0  0.54201302985E+03  0.48468827868E+02 -0.54137406431E+03  0.76760225984E+03  0.00000000000E+00 0.  1.
        -11    1    3    3    0    0  0.27420813053E+03  0.80812802055E+02 -0.34360341538E+03  0.44697216343E+03  0.00000000000E+00 0. -1.
         22    1    1    2    0    0 -0.81622116039E+03 -0.12928162992E+03  0.13768805053E+04  0.16058426599E+04  0.00000000000E+00 0. -1.
<mgrwt>
<rscale>  0 0.27771899E+04</rscale>
<asrwt>0</asrwt>
<pdfrwt beam="1">  1        1 0.17911647E+00 0.27771899E+04</pdfrwt>
<pdfrwt beam="2">  1       -1 0.25479385E+00 0.27771899E+04</pdfrwt>
<totfact> 0.63880155E-01</totfact>
</mgrwt>
</event>
<event>
 6    1  0.4630212E-004  0.2774216E+04  0.7818608E-02  0.8311318E-01
         -2   -1    0    0    0  501 -0.00000000000E+00  0.00000000000E+00  0.18448289378E+04  0.18448289378E+04  0.00000000000E+00 0. -1.
          2   -1    0    0  501    0  0.00000000000E+00 -0.00000000000E+00 -0.10429522492E+04  0.10429522492E+04  0.00000000000E+00 0.  1.
         23    2    1    2    0    0 -0.30040959008E+03 -0.93103989988E+03  0.14225734198E+04  0.17291847736E+04  0.96351592163E+02 0.  0.
         11    1    3    3    0    0 -0.23076658425E+03 -0.81456924700E+03  0.12026482600E+04  0.14707614055E+04  0.00000000000E+00 0. -1.
        -11    1    3    3    0    0 -0.69643005832E+02 -0.11647065289E+03  0.21992515979E+03  0.25842336805E+03  0.00000000000E+00 0.  1.
         22    1    1    2    0    0  0.30040959008E+03  0.93103989988E+03 -0.62069673123E+03  0.11585964134E+04  0.00000000000E+00 0.  1.
<mgrwt>
<rscale>  0 0.27742159E+04</rscale>
<asrwt>0</asrwt>
<pdfrwt beam="1">  1        2 0.16045419E+00 0.27742159E+04</pdfrwt>
<pdfrwt beam="2">  1       -2 0.28381984E+00 0.27742159E+04</pdfrwt>
<totfact> 0.82305530E-01</totfact>
</mgrwt>
</event>
<event>
 6    1  0.4630212E-004  0.2160947E+04  0.7818608E-02  0.8534861E-01
         -2   -1    0    0    0  501 -0.00000000000E+00  0.00000000000E+00  0.67411555932E+03  0.67411555932E+03  0.00000000000E+00 0. -1.
          2   -1    0    0  501    0  0.00000000000E+00 -0.00000000000E+00 -0.17317851923E+04  0.17317851923E+04  0.00000000000E+00 0.  1.
         23    2    1    2    0    0 -0.56732292837E+03 -0.90713195129E+03 -0.37738759361E+03  0.11380177384E+04  0.88990420599E+02 0.  0.
         11    1    3    3    0    0 -0.26048937710E+03 -0.34424041281E+03 -0.12980073152E+03  0.45078199531E+03  0.00000000000E+00 0.  1.
        -11    1    3    3    0    0 -0.30683355128E+03 -0.56289153848E+03 -0.24758686209E+03  0.68723574307E+03  0.00000000000E+00 0. -1.
         22    1    1    2    0    0  0.56732292837E+03  0.90713195129E+03 -0.68028203935E+03  0.12678830132E+04  0.00000000000E+00 0.  1.
<mgrwt>
<rscale>  0 0.21609473E+04</rscale>
<asrwt>0</asrwt>
<pdfrwt beam="1">  1        2 0.26642849E+00 0.21609473E+04</pdfrwt>
<pdfrwt beam="2">  1       -2 0.10371009E+00 0.21609473E+04</pdfrwt>
<totfact> 0.65379641E+00</totfact>
</mgrwt>
</event>
<event>
 6    1  0.4630212E-004  0.1344102E+04  0.7818608E-02  0.8995305E-01
         -2   -1    0    0    0  501 -0.00000000000E+00  0.00000000000E+00  0.22441333444E+03  0.22441333444E+03  0.00000000000E+00 0. -1.
          2   -1    0    0  501    0  0.00000000000E+00 -0.00000000000E+00 -0.20125910642E+04  0.20125910642E+04  0.00000000000E+00 0.  1.
         23    2    1    2    0    0 -0.98914834830E+02  0.13080031068E+03 -0.19775718115E+04  0.19864789827E+04  0.91736651610E+02 0.  0.
         13    1    3    3    0    0  0.77115487381E+01  0.58612207874E+02 -0.60770894566E+03  0.61057761303E+03  0.00000000000E+00 0. -1.
        -13    1    3    3    0    0 -0.10662638357E+03  0.72188102804E+02 -0.13698628659E+04  0.13759013697E+04  0.00000000000E+00 0.  1.
         22    1    1    2    0    0  0.98914834830E+02 -0.13080031068E+03  0.18939408175E+03  0.25052541592E+03  0.00000000000E+00 0. -1.
<mgrwt>
<rscale>  0 0.13441016E+04</rscale>
<asrwt>0</asrwt>
<pdfrwt beam="1">  1        2 0.30962939E+00 0.13441016E+04</pdfrwt>
<pdfrwt beam="2">  1       -2 0.34525129E-01 0.13441016E+04</pdfrwt>
<totfact> 0.50559368E+01</totfact>
</mgrwt>
</event>
<event>
 6    1  0.4630212E-004  0.1056707E+04  0.7818608E-02  0.9248447E-01
          2   -1    0    0  501    0  0.00000000000E+00  0.00000000000E+00  0.56217730219E+03  0.56217730219E+03  0.00000000000E+00 0.  1.
         -2   -1    0    0    0  501 -0.00000000000E+00 -0.00000000000E+00 -0.49656471264E+03  0.49656471264E+03  0.00000000000E+00 0. -1.
         23    2    1    2    0    0  0.70267360783E+02 -0.46732359011E+03 -0.19489433211E+03  0.51911927986E+03  0.90400144688E+02 0.  0.
         13    1    3    3    0    0  0.16876676984E+02 -0.35103040777E+03 -0.16210864421E+03  0.38702245662E+03  0.00000000000E+00 0.  1.
        -13    1    3    3    0    0  0.53390683799E+02 -0.11629318234E+03 -0.32785687906E+02  0.13209682323E+03  0.00000000000E+00 0. -1.
         22    1    1    2    0    0 -0.70267360783E+02  0.46732359011E+03  0.26050692166E+03  0.53962273497E+03  0.00000000000E+00 0. -1.
<mgrwt>
<rscale>  0 0.10567070E+04</rscale>
<asrwt>0</asrwt>
<pdfrwt beam="1">  1        2 0.86488816E-01 0.10567070E+04</pdfrwt>
<pdfrwt beam="2">  1       -2 0.76394571E-01 0.10567070E+04</pdfrwt>
<totfact> 0.81881776E+01</totfact>
</mgrwt>
</event>
<event>
 6    1  0.4630212E-004  0.3526618E+04  0.7818608E-02  0.8107511E-01
          2   -1    0    0  501    0  0.00000000000E+00  0.00000000000E+00  0.10445262729E+04  0.10445262729E+04  0.00000000000E+00 0.  1.
         -2   -1    0    0    0  501 -0.00000000000E+00 -0.00000000000E+00 -0.29767168928E+04  0.29767168928E+04  0.00000000000E+00 0. -1.
         23    2    1    2    0    0  0.65789073825E+03  0.14677471453E+04 -0.14624674560E+03  0.16177670522E+04  0.93167691770E+02 0.  0.
         13    1    3    3    0    0  0.16668520129E+03  0.41895934881E+03 -0.37572688769E+01  0.45091574529E+03  0.00000000000E+00 0. -1.
        -13    1    3    3    0    0  0.49120553697E+03  0.10487877964E+04 -0.14248947672E+03  0.11668513069E+04  0.00000000000E+00 0.  1.
         22    1    1    2    0    0 -0.65789073825E+03 -0.14677471453E+04 -0.17859438743E+04  0.24034761134E+04  0.00000000000E+00 0. -1.
<mgrwt>
<rscale>  0 0.35266182E+04</rscale>
<asrwt>0</asrwt>
<pdfrwt beam="1">  1        2 0.16069635E+00 0.35266182E+04</pdfrwt>
<pdfrwt beam="2">  1       -2 0.45795645E+00 0.35266182E+04</pdfrwt>
<totfact> 0.59436499E-02</totfact>
</mgrwt>
</event>
<event>
 6    1  0.4630212E-004  0.5967577E+04  0.7818608E-02  0.7694435E-01
          2   -1    0    0  501    0  0.00000000000E+00  0.00000000000E+00  0.28655644853E+04  0.28655644853E+04  0.00000000000E+00 0. -1.
         -2   -1    0    0    0  501 -0.00000000000E+00 -0.00000000000E+00 -0.31068895703E+04  0.31068895703E+04  0.00000000000E+00 0.  1.
         23    2    1    2    0    0 -0.19983662882E+04 -0.43177872802E+03  0.20534471749E+04  0.28990389492E+04  0.88774078814E+02 0.  0.
         13    1    3    3    0    0 -0.45367401335E+03 -0.64694605681E+02  0.43531852732E+03  0.63206623278E+03  0.00000000000E+00 0. -1.
        -13    1    3    3    0    0 -0.15446922748E+04 -0.36708412234E+03  0.16181286476E+04  0.22669727164E+04  0.00000000000E+00 0.  1.
         22    1    1    2    0    0  0.19983662882E+04  0.43177872802E+03 -0.22947722599E+04  0.30734151065E+04  0.00000000000E+00 0.  1.
<mgrwt>
<rscale>  0 0.59675765E+04</rscale>
<asrwt>0</asrwt>
<pdfrwt beam="1">  1        2 0.44085607E+00 0.59675765E+04</pdfrwt>
<pdfrwt beam="2">  1       -2 0.47798301E+00 0.59675765E+04</pdfrwt>
<totfact> 0.32643443E-03</totfact>
</mgrwt>
</event>
<event>
 6    1  0.4630212E-004  0.2505328E+04  0.7818608E-02  0.8401090E-01
         -2   -1    0    0    0  501 -0.00000000000E+00  0.00000000000E+00  0.10900315386E+04  0.10900315386E+04  0.00000000000E+00 0. -1.
          2   -1    0    0  501    0  0.00000000000E+00 -0.00000000000E+00 -0.14395606815E+04  0.14395606815E+04  0.00000000000E+00 0.  1.
         23    2    1    2    0    0 -0.10394078955E+03 -0.84745956262E+03 -0.10982065769E+04  0.13940265910E+04  0.90890333909E+02 0.  0.
         13    1    3    3    0    0  0.99133155304E+01 -0.26289605737E+03 -0.33470633319E+03  0.42572401891E+03  0.00000000000E+00 0. -1.
        -13    1    3    3    0    0 -0.11385410508E+03 -0.58456350525E+03 -0.76350024369E+03  0.96830257205E+03  0.00000000000E+00 0.  1.
         22    1    1    2    0    0  0.10394078955E+03  0.84745956262E+03  0.74867743390E+03  0.11355656291E+04  0.00000000000E+00 0. -1.
<mgrwt>
<rscale>  0 0.25053276E+04</rscale>
<asrwt>0</asrwt>
<pdfrwt beam="1">  1        2 0.22147087E+00 0.25053276E+04</pdfrwt>
<pdfrwt beam="2">  1       -2 0.16769716E+00 0.25053276E+04</pdfrwt>
<totfact> 0.27113170E+00</totfact>
</mgrwt>
</event>
<event>
 6    1  0.4630212E-004  0.3157920E+04  0.7818608E-02  0.8200020E-01
         -2   -1    0    0    0  501 -0.00000000000E+00  0.00000000000E+00  0.11185967112E+04  0.11185967112E+04  0.00000000000E+00 0. -1.
          2   -1    0    0  501    0  0.00000000000E+00 -0.00000000000E+00 -0.22287884378E+04  0.22287884378E+04  0.00000000000E+00 0.  1.
         23    2    1    2    0    0  0.12847766033E+04  0.76714932510E+03 -0.26072239297E+02  0.14995528865E+04  0.93862082816E+02 0.  0.
         13    1    3    3    0    0  0.20654322452E+03  0.14178922061E+03 -0.35679058068E+02  0.25305588683E+03  0.00000000000E+00 0. -1.
        -13    1    3    3    0    0  0.10782333787E+04  0.62536010448E+03  0.96068187704E+01  0.12464969997E+04  0.00000000000E+00 0.  1.
         22    1    1    2    0    0 -0.12847766033E+04 -0.76714932510E+03 -0.10841194873E+04  0.18478322624E+04  0.00000000000E+00 0.  1.
<mgrwt>
<rscale>  0 0.31579205E+04</rscale>
<asrwt>0</asrwt>
<pdfrwt beam="1">  1        2 0.34289052E+00 0.31579205E+04</pdfrwt>
<pdfrwt beam="2">  1       -2 0.17209180E+00 0.31579205E+04</pdfrwt>
<totfact> 0.86576133E-01</totfact>
</mgrwt>
</event>
<event>
 6    1  0.4630212E-004  0.2929403E+04  0.7818608E-02  0.8264183E-01
          2   -1    0    0  501    0  0.00000000000E+00  0.00000000000E+00  0.96748728765E+03  0.96748728765E+03  0.00000000000E+00 0.  1.
         -2   -1    0    0    0  501 -0.00000000000E+00 -0.00000000000E+00 -0.22174457888E+04  0.22174457888E+04  0.00000000000E+00 0. -1.
         23    2    1    2    0    0 -0.41888089151E+03 -0.13326286570E+04 -0.10993724981E+04  0.17799289900E+04  0.90371352291E+02 0.  0.
         11    1    3    3    0    0 -0.16565224216E+03 -0.39080192894E+03 -0.34294075862E+03  0.54568780170E+03  0.00000000000E+00 0. -1.
        -11    1    3    3    0    0 -0.25322864934E+03 -0.94182672804E+03 -0.75643173944E+03  0.12342411883E+04  0.00000000000E+00 0.  1.
         22    1    1    2    0    0  0.41888089151E+03  0.13326286570E+04 -0.15058600313E+03  0.14050040865E+04  0.00000000000E+00 0.  1.
<mgrwt>
<rscale>  0 0.29294031E+04</rscale>
<asrwt>0</asrwt>
<pdfrwt beam="1">  1        2 0.14884420E+00 0.29294031E+04</pdfrwt>
<pdfrwt beam="2">  1       -2 0.34114550E+00 0.29294031E+04</pdfrwt>
<totfact> 0.40257901E-01</totfact>
</mgrwt>
</event>
<event>
 6    1  0.4630212E-004  0.2461196E+04  0.7818608E-02  0.8416941E-01
         -2   -1    0    0    0  501 -0.00000000000E+00  0.00000000000E+00  0.59333900080E+03  0.59333900080E+03  0.00000000000E+00 0. -1.
          2   -1    0    0  501    0  0.00000000000E+00 -0.00000000000E+00 -0.25522878341E+04  0.25522878341E+04  0.00000000000E+00 0.  1.
         23    2    1    2    0    0 -0.91831208998E+03  0.13251391655E+03  0.49429624286E+02  0.93328846531E+03  0.87903578061E+02 0.  0.
         11    1    3    3    0    0 -0.50050689760E+02  0.11980912450E+02  0.22819507173E+02  0.56296924572E+02  0.00000000000E+00 0. -1.
        -11    1    3    3    0    0 -0.86826140022E+03  0.12053300410E+03  0.26610117112E+02  0.87699154074E+03  0.00000000000E+00 0.  1.
         22    1    1    2    0    0  0.91831208998E+03 -0.13251391655E+03 -0.20083784576E+04  0.22123383696E+04  0.00000000000E+00 0.  1.
<mgrwt>
<rscale>  0 0.24611964E+04</rscale>
<asrwt>0</asrwt>
<pdfrwt beam="1">  1        2 0.39265966E+00 0.24611964E+04</pdfrwt>
<pdfrwt beam="2">  1       -2 0.91282925E-01 0.24611964E+04</pdfrwt>
<totfact> 0.29695638E+00</totfact>
</mgrwt>
</event>
<event>
 6    1  0.5501277E-004  0.3448905E+04  0.7818608E-02  0.8126007E-01
         -2   -1    0    0    0  501 -0.00000000000E+00  0.00000000000E+00  0.13963431229E+04  0.13963431229E+04  0.00000000000E+00 0. -1.
          2   -1    0    0  501    0  0.00000000000E+00 -0.00000000000E+00 -0.21296597790E+04  0.21296597790E+04  0.00000000000E+00 0.  1.
         23    2    1    2    0    0 -0.14319166586E+03 -0.40191166829E+03  0.13399125685E+04  0.14093271450E+04  0.93810809431E+02 0.  0.
         11    1    3    3    0    0 -0.31571526595E+02 -0.16030806973E+03  0.63986806551E+03  0.66039880358E+03  0.00000000000E+00 0.  1.
        -11    1    3    3    0    0 -0.11162013927E+03 -0.24160359856E+03  0.70004450304E+03  0.74892834141E+03  0.00000000000E+00 0. -1.
         22    1    1    2    0    0  0.14319166586E+03  0.40191166829E+03 -0.20732292246E+04  0.21166757570E+04  0.00000000000E+00 0.  1.
<mgrwt>
<rscale>  0 0.34489046E+04</rscale>
<asrwt>0</asrwt>
<pdfrwt beam="1">  1        2 0.32763996E+00 0.34489046E+04</pdfrwt>
<pdfrwt beam="2">  1       -2 0.21482202E+00 0.34489046E+04</pdfrwt>
<totfact> 0.49762158E-01</totfact>
</mgrwt>
</event>
<event>
 6    1  0.4630212E-004  0.1920675E+04  0.7818608E-02  0.8644633E-01
         -2   -1    0    0    0  501 -0.00000000000E+00  0.00000000000E+00  0.67999532313E+03  0.67999532313E+03  0.00000000000E+00 0. -1.
          2   -1    0    0  501    0  0.00000000000E+00 -0.00000000000E+00 -0.13562567602E+04  0.13562567602E+04  0.00000000000E+00 0.  1.
         23    2    1    2    0    0  0.78151442489E+03  0.55009779243E+03 -0.41193415024E+03  0.10446668414E+04  0.90921327501E+02 0.  0.
         11    1    3    3    0    0  0.58966583824E+03  0.39519327130E+03 -0.34453415521E+03  0.78904201826E+03  0.00000000000E+00 0.  1.
        -11    1    3    3    0    0  0.19184858665E+03  0.15490452112E+03 -0.67399995024E+02  0.25562482312E+03  0.00000000000E+00 0. -1.
         22    1    1    2    0    0 -0.78151442489E+03 -0.55009779243E+03 -0.26432728685E+03  0.99158524198E+03  0.00000000000E+00 0. -1.
<mgrwt>
<rscale>  0 0.19206751E+04</rscale>
<asrwt>0</asrwt>
<pdfrwt beam="1">  1        2 0.20865488E+00 0.19206751E+04</pdfrwt>
<pdfrwt beam="2">  1       -2 0.10461467E+00 0.19206751E+04</pdfrwt>
<totfact> 0.10634265E+01</totfact>
</mgrwt>
</event>
<event>
 6    1  0.4630212E-004  0.1365378E+04  0.7818608E-02  0.8979268E-01
          2   -1    0    0  501    0  0.00000000000E+00  0.00000000000E+00  0.21183734642E+03  0.21183734642E+03  0.00000000000E+00 0.  1.
         -2   -1    0    0    0  501 -0.00000000000E+00 -0.00000000000E+00 -0.22001045835E+04  0.22001045835E+04  0.00000000000E+00 0. -1.
         23    2    1    2    0    0  0.38039827284E+03  0.49473533616E+03 -0.52434177409E+03  0.82054516606E+03  0.94308932008E+02 0.  0.
         13    1    3    3    0    0  0.22180296184E+03  0.25901899658E+03 -0.22916586813E+03  0.41085811369E+03  0.00000000000E+00 0.  1.
        -13    1    3    3    0    0  0.15859531100E+03  0.23571633958E+03 -0.29517590596E+03  0.40968705236E+03  0.00000000000E+00 0. -1.
         22    1    1    2    0    0 -0.38039827284E+03 -0.49473533616E+03 -0.14639254630E+04  0.15913967639E+04  0.00000000000E+00 0.  1.
<mgrwt>
<rscale>  0 0.13653781E+04</rscale>
<asrwt>0</asrwt>
<pdfrwt beam="1">  1        2 0.32590359E-01 0.13653781E+04</pdfrwt>
<pdfrwt beam="2">  1       -2 0.33847765E+00 0.13653781E+04</pdfrwt>
<totfact> 0.29335078E+00</totfact>
</mgrwt>
</event>
<event>
 6    1  0.4630212E-004  0.1657937E+04  0.7818608E-02  0.8785725E-01
          2   -1    0    0  501    0  0.00000000000E+00  0.00000000000E+00  0.11795076451E+04  0.11795076451E+04  0.00000000000E+00 0.  1.
         -2   -1    0    0    0  501 -0.00000000000E+00 -0.00000000000E+00 -0.58260628831E+03  0.58260628831E+03  0.00000000000E+00 0. -1.
         23    2    1    2    0    0  0.35038511950E+03  0.58644691041E+03  0.79098515666E+03  0.10519321031E+04  0.11922214861E+03 0.  0.
         13    1    3    3    0    0  0.16204544438E+03  0.27363907388E+03  0.45922088005E+03  0.55858829693E+03  0.00000000000E+00 0.  1.
        -13    1    3    3    0    0  0.18833967512E+03  0.31280783654E+03  0.33176427661E+03  0.49334380614E+03  0.00000000000E+00 0. -1.
         22    1    1    2    0    0 -0.35038511950E+03 -0.58644691041E+03 -0.19408379992E+03  0.71018183030E+03  0.00000000000E+00 0. -1.
<mgrwt>
<rscale>  0 0.16579368E+04</rscale>
<asrwt>0</asrwt>
<pdfrwt beam="1">  1        2 0.18146271E+00 0.16579368E+04</pdfrwt>
<pdfrwt beam="2">  1       -2 0.89631737E-01 0.16579368E+04</pdfrwt>
<totfact> 0.19848778E+01</totfact>
</mgrwt>
</event>
<event>
 6    1  0.4630212E-004  0.3676778E+04  0.7818608E-02  0.8073128E-01
          2   -1    0    0  501    0  0.00000000000E+00  0.00000000000E+00  0.21461116111E+04  0.21461116111E+04  0.00000000000E+00 0.  1.
         -2   -1    0    0    0  501 -0.00000000000E+00 -0.00000000000E+00 -0.15747896161E+04  0.15747896161E+04  0.00000000000E+00 0. -1.
         23    2    1    2    0    0 -0.51405228177E+03 -0.11876402264E+04 -0.10340686770E+04  0.16588589712E+04  0.88181639489E+02 0.  0.
         11    1    3    3    0    0 -0.44190950784E+03 -0.95490695847E+03 -0.86755194678E+03  0.13637366655E+04  0.00000000000E+00 0. -1.
        -11    1    3    3    0    0 -0.72142773930E+02 -0.23273326797E+03 -0.16651673026E+03  0.29512230567E+03  0.00000000000E+00 0.  1.
         22    1    1    2    0    0  0.51405228177E+03  0.11876402264E+04  0.16053906720E+04  0.20620422560E+04  0.00000000000E+00 0.  1.
<mgrwt>
<rscale>  0 0.36767781E+04</rscale>
<asrwt>0</asrwt>
<pdfrwt beam="1">  1        2 0.33017102E+00 0.36767781E+04</pdfrwt>
<pdfrwt beam="2">  1       -2 0.24227532E+00 0.36767781E+04</pdfrwt>
<totfact> 0.32160239E-01</totfact>
</mgrwt>
</event>
<event>
 6    1  0.5143944E-004  0.3838407E+04  0.7818608E-02  0.8037963E-01
          2   -1    0    0  501    0  0.00000000000E+00  0.00000000000E+00  0.30748118305E+04  0.30748118305E+04  0.00000000000E+00 0.  1.
         -2   -1    0    0    0  501 -0.00000000000E+00 -0.00000000000E+00 -0.11979080143E+04  0.11979080143E+04  0.00000000000E+00 0. -1.
         23    2    1    2    0    0  0.82564019325E+03  0.10068279891E+04 -0.62873436366E+03  0.14489622390E+04  0.93810136757E+02 0.  0.
         13    1    3    3    0    0  0.43305784797E+03  0.45498284175E+03 -0.29486807659E+03  0.69389888930E+03  0.00000000000E+00 0.  1.
        -13    1    3    3    0    0  0.39258234528E+03  0.55184514730E+03 -0.33386628707E+03  0.75506334971E+03  0.00000000000E+00 0. -1.
         22    1    1    2    0    0 -0.82564019325E+03 -0.10068279891E+04  0.25056381799E+04  0.28237576059E+04  0.00000000000E+00 0.  1.
<mgrwt>
<rscale>  0 0.38384068E+04</rscale>
<asrwt>0</asrwt>
<pdfrwt beam="1">  1        2 0.47304797E+00 0.38384068E+04</pdfrwt>
<pdfrwt beam="2">  1       -2 0.18429354E+00 0.38384068E+04</pdfrwt>
<totfact> 0.21130170E-01</totfact>
</mgrwt>
</event>
<event>
 6    1  0.4630212E-004  0.5462814E+04  0.7818608E-02  0.7760827E-01
         -2   -1    0    0    0  501 -0.00000000000E+00  0.00000000000E+00  0.22677450657E+04  0.22677450657E+04  0.00000000000E+00 0. -1.
          2   -1    0    0  501    0  0.00000000000E+00 -0.00000000000E+00 -0.32898691791E+04  0.32898691791E+04  0.00000000000E+00 0.  1.
         23    2    1    2    0    0 -0.24212660556E+03  0.15328368574E+04  0.17746027166E+04  0.23591935272E+04  0.91461316461E+02 0.  0.
         11    1    3    3    0    0 -0.20224329196E+03  0.12096841130E+04  0.13466651896E+04  0.18214678518E+04  0.00000000000E+00 0. -1.
        -11    1    3    3    0    0 -0.39883313596E+02  0.32315274447E+03  0.42793752701E+03  0.53772567540E+03  0.00000000000E+00 0.  1.
         22    1    1    2    0    0  0.24212660556E+03 -0.15328368574E+04 -0.27967268301E+04  0.31984207176E+04  0.00000000000E+00 0.  1.
<mgrwt>
<rscale>  0 0.54628141E+04</rscale>
<asrwt>0</asrwt>
<pdfrwt beam="1">  1        2 0.50613372E+00 0.54628141E+04</pdfrwt>
<pdfrwt beam="2">  1       -2 0.34888386E+00 0.54628141E+04</pdfrwt>
<totfact> 0.12541402E-02</totfact>
</mgrwt>
</event>
<event>
 6    1  0.6516046E-004  0.4724249E+04  0.7818608E-02  0.7872512E-01
          2   -1    0    0  501    0  0.00000000000E+00  0.00000000000E+00  0.26366756767E+04  0.26366756767E+04  0.00000000000E+00 0.  1.
         -2   -1    0    0    0  501 -0.00000000000E+00 -0.00000000000E+00 -0.21161614116E+04  0.21161614116E+04  0.00000000000E+00 0. -1.
         23    2    1    2    0    0  0.67198755821E+03 -0.14923379793E+04 -0.14519056759E+04  0.21898153665E+04  0.92851089941E+02 0.  0.
         11    1    3    3    0    0  0.33563477244E+03 -0.66435730399E+03 -0.70274949669E+03  0.10236592123E+04  0.00000000000E+00 0. -1.
        -11    1    3    3    0    0  0.33635278577E+03 -0.82798067526E+03 -0.74915617923E+03  0.11661561542E+04  0.00000000000E+00 0.  1.
         22    1    1    2    0    0 -0.67198755821E+03  0.14923379793E+04  0.19724199410E+04  0.25630217218E+04  0.00000000000E+00 0.  1.
<mgrwt>
<rscale>  0 0.47242486E+04</rscale>
<asrwt>0</asrwt>
<pdfrwt beam="1">  1        2 0.40564241E+00 0.47242486E+04</pdfrwt>
<pdfrwt beam="2">  1       -2 0.32556330E+00 0.47242486E+04</pdfrwt>
<totfact> 0.47654477E-02</totfact>
</mgrwt>
</event>
<event>
 6    1  0.4630212E-004  0.5820315E+04  0.7818608E-02  0.7713089E-01
         -2   -1    0    0    0  501 -0.00000000000E+00  0.00000000000E+00  0.20598146187E+04  0.20598146187E+04  0.00000000000E+00 0. -1.
          2   -1    0    0  501    0  0.00000000000E+00 -0.00000000000E+00 -0.41115428453E+04  0.41115428453E+04  0.00000000000E+00 0.  1.
         23    2    1    2    0    0 -0.21675422351E+04  0.14770995288E+04 -0.23609882615E+04  0.35302016321E+04  0.89418306682E+02 0.  0.
         11    1    3    3    0    0 -0.12624099556E+04  0.91207231161E+03 -0.13877778449E+04  0.20860206481E+04  0.00000000000E+00 0. -1.
        -11    1    3    3    0    0 -0.90513227955E+03  0.56502721717E+03 -0.97321041658E+03  0.14441809840E+04  0.00000000000E+00 0.  1.
         22    1    1    2    0    0  0.21675422351E+04 -0.14770995288E+04  0.30926003493E+03  0.26411558319E+04  0.00000000000E+00 0. -1.
<mgrwt>
<rscale>  0 0.58203148E+04</rscale>
<asrwt>0</asrwt>
<pdfrwt beam="1">  1        2 0.63254504E+00 0.58203148E+04</pdfrwt>
<pdfrwt beam="2">  1       -2 0.31689456E+00 0.58203148E+04</pdfrwt>
<totfact> 0.46965991E-03</totfact>
</mgrwt>
</event>
<event>
 6    1  0.4630212E-004  0.2446678E+04  0.7818608E-02  0.8422232E-01
         -2   -1    0    0    0  501 -0.00000000000E+00  0.00000000000E+00  0.63075955659E+03  0.63075955659E+03  0.00000000000E+00 0. -1.
          2   -1    0    0  501    0  0.00000000000E+00 -0.00000000000E+00 -0.23726294745E+04  0.23726294745E+04  0.00000000000E+00 0.  1.
         23    2    1    2    0    0 -0.37005852332E+03 -0.11627923569E+04 -0.94169817564E+03  0.15441754781E+04  0.93021918223E+02 0.  0.
         11    1    3    3    0    0 -0.25938862947E+03 -0.66745763586E+03 -0.56348725061E+03  0.91120801048E+03  0.00000000000E+00 0. -1.
        -11    1    3    3    0    0 -0.11066989384E+03 -0.49533472106E+03 -0.37821092504E+03  0.63296746765E+03  0.00000000000E+00 0.  1.
         22    1    1    2    0    0  0.37005852332E+03  0.11627923569E+04 -0.80017174225E+03  0.14592135529E+04  0.00000000000E+00 0. -1.
<mgrwt>
<rscale>  0 0.24466783E+04</rscale>
<asrwt>0</asrwt>
<pdfrwt beam="1">  1        2 0.36501992E+00 0.24466783E+04</pdfrwt>
<pdfrwt beam="2">  1       -2 0.97039932E-01 0.24466783E+04</pdfrwt>
<totfact> 0.32733067E+00</totfact>
</mgrwt>
</event>
<event>
 6    1  0.4630212E-004  0.5185922E+03  0.7818608E-02  0.1009037E+00
          2   -1    0    0  501    0  0.00000000000E+00  0.00000000000E+00  0.14245829489E+03  0.14245829489E+03  0.00000000000E+00 0.  1.
         -2   -1    0    0    0  501 -0.00000000000E+00 -0.00000000000E+00 -0.47195896600E+03  0.47195896600E+03  0.00000000000E+00 0. -1.
         23    2    1    2    0    0  0.72883227706E+02  0.23584080661E+03 -0.22410748441E+03  0.34601350766E+03  0.92565284912E+02 0.  0.
         13    1    3    3    0    0 -0.14901112201E+02  0.44098674404E+02 -0.14680005060E+02  0.48808183510E+02  0.00000000000E+00 0. -1.
        -13    1    3    3    0    0  0.87784339907E+02  0.19174213221E+03 -0.20942747935E+03  0.29720532415E+03  0.00000000000E+00 0.  1.
         22    1    1    2    0    0 -0.72883227706E+02 -0.23584080661E+03 -0.10539318669E+03  0.26840375323E+03  0.00000000000E+00 0. -1.
<mgrwt>
<rscale>  0 0.51859221E+03</rscale>
<asrwt>0</asrwt>
<pdfrwt beam="1">  1        2 0.21916660E-01 0.51859221E+03</pdfrwt>
<pdfrwt beam="2">  1       -2 0.72609073E-01 0.51859221E+03</pdfrwt>
<totfact> 0.44198875E+02</totfact>
</mgrwt>
</event>
<event>
 6    1  0.4630212E-004  0.3040452E+04  0.7818608E-02  0.8232273E-01
          2   -1    0    0  501    0  0.00000000000E+00  0.00000000000E+00  0.13929918485E+04  0.13929918485E+04  0.00000000000E+00 0. -1.
         -2   -1    0    0    0  501 -0.00000000000E+00 -0.00000000000E+00 -0.16590813562E+04  0.16590813562E+04  0.00000000000E+00 0.  1.
         23    2    1    2    0    0  0.37420344291E+03  0.76948158808E+03  0.11265408813E+04  0.14175856607E+04  0.91239339400E+02 0.  0.
         11    1    3    3    0    0  0.19535067407E+03  0.35770846655E+03  0.60436668185E+03  0.72895563585E+03  0.00000000000E+00 0. -1.
        -11    1    3    3    0    0  0.17885276884E+03  0.41177312152E+03  0.52217419944E+03  0.68863002483E+03  0.00000000000E+00 0.  1.
         22    1    1    2    0    0 -0.37420344291E+03 -0.76948158808E+03 -0.13926303891E+04  0.16344875440E+04  0.00000000000E+00 0.  1.
<mgrwt>
<rscale>  0 0.30404518E+04</rscale>
<asrwt>0</asrwt>
<pdfrwt beam="1">  1        2 0.21430644E+00 0.30404518E+04</pdfrwt>
<pdfrwt beam="2">  1       -2 0.25524329E+00 0.30404518E+04</pdfrwt>
<totfact> 0.74349666E-01</totfact>
</mgrwt>
</event>
<event>
 6    1  0.4630212E-004  0.1684568E+04  0.7818608E-02  0.8770215E-01
          2   -1    0    0  501    0  0.00000000000E+00  0.00000000000E+00  0.36148612418E+04  0.36148612418E+04  0.00000000000E+00 0.  1.
         -2   -1    0    0    0  501 -0.00000000000E+00 -0.00000000000E+00 -0.19625705723E+03  0.19625705723E+03  0.00000000000E+00 0. -1.
         23    2    1    2    0    0  0.76467367676E+03  0.19408261668E+03  0.10626597387E+04  0.13265925644E+04  0.90599214359E+02 0.  0.
         13    1    3    3    0    0  0.39318654639E+03  0.10171273910E+03  0.62241742871E+03  0.74319889473E+03  0.00000000000E+00 0.  1.
        -13    1    3    3    0    0  0.37148713037E+03  0.92369877576E+02  0.44024231001E+03  0.58339366969E+03  0.00000000000E+00 0. -1.
         22    1    1    2    0    0 -0.76467367676E+03 -0.19408261668E+03  0.23559444458E+04  0.24845257346E+04  0.00000000000E+00 0.  1.
<mgrwt>
<rscale>  0 0.16845676E+04</rscale>
<asrwt>0</asrwt>
<pdfrwt beam="1">  1        2 0.55613245E+00 0.16845676E+04</pdfrwt>
<pdfrwt beam="2">  1       -2 0.30193396E-01 0.16845676E+04</pdfrwt>
<totfact> 0.65786869E+00</totfact>
</mgrwt>
</event>
<event>
 6    1  0.4630212E-004  0.2601222E+04  0.7818608E-02  0.8367786E-01
         -2   -1    0    0    0  501 -0.00000000000E+00  0.00000000000E+00  0.90272222309E+03  0.90272222309E+03  0.00000000000E+00 0. -1.
          2   -1    0    0  501    0  0.00000000000E+00 -0.00000000000E+00 -0.18738752623E+04  0.18738752623E+04  0.00000000000E+00 0.  1.
         23    2    1    2    0    0  0.79966945007E+01 -0.12967766396E+04 -0.56725421869E+03  0.14183530827E+04  0.90854381426E+02 0.  0.
         11    1    3    3    0    0 -0.29179577005E+02 -0.18702789314E+03 -0.71642686494E+02  0.20239455293E+03  0.00000000000E+00 0.  1.
        -11    1    3    3    0    0  0.37176271506E+02 -0.11097487464E+04 -0.49561153219E+03  0.12159585298E+04  0.00000000000E+00 0. -1.
         22    1    1    2    0    0 -0.79966945007E+01  0.12967766396E+04 -0.40389882050E+03  0.13582444026E+04  0.00000000000E+00 0. -1.
<mgrwt>
<rscale>  0 0.26012219E+04</rscale>
<asrwt>0</asrwt>
<pdfrwt beam="1">  1        2 0.28828850E+00 0.26012219E+04</pdfrwt>
<pdfrwt beam="2">  1       -2 0.13888034E+00 0.26012219E+04</pdfrwt>
<totfact> 0.25469479E+00</totfact>
</mgrwt>
</event>
<event>
 6    1  0.4630212E-004  0.3283065E+04  0.7818608E-02  0.8167218E-01
         -2   -1    0    0    0  501 -0.00000000000E+00  0.00000000000E+00  0.11650761594E+04  0.11650761594E+04  0.00000000000E+00 0. -1.
          2   -1    0    0  501    0  0.00000000000E+00 -0.00000000000E+00 -0.23128347982E+04  0.23128347982E+04  0.00000000000E+00 0.  1.
         23    2    1    2    0    0 -0.11152810048E+04  0.25735639560E+03 -0.18189317618E+04  0.21510509819E+04  0.91779838437E+02 0.  0.
         13    1    3    3    0    0 -0.91593668794E+03  0.24460748742E+03 -0.14784276053E+04  0.17562804513E+04  0.00000000000E+00 0.  1.
        -13    1    3    3    0    0 -0.19934431683E+03  0.12748908185E+02 -0.34050415646E+03  0.39477053066E+03  0.00000000000E+00 0. -1.
         22    1    1    2    0    0  0.11152810048E+04 -0.25735639560E+03  0.67117312307E+03  0.13268599757E+04  0.00000000000E+00 0. -1.
<mgrwt>
<rscale>  0 0.32830648E+04</rscale>
<asrwt>0</asrwt>
<pdfrwt beam="1">  1        2 0.35582073E+00 0.32830648E+04</pdfrwt>
<pdfrwt beam="2">  1       -2 0.17924249E+00 0.32830648E+04</pdfrwt>
<totfact> 0.68428086E-01</totfact>
</mgrwt>
</event>
<event>
 6    1  0.4630212E-004  0.1675517E+04  0.7818608E-02  0.8775452E-01
         -2   -1    0    0    0  501 -0.00000000000E+00  0.00000000000E+00  0.59538503086E+03  0.59538503086E+03  0.00000000000E+00 0. -1.
          2   -1    0    0  501    0  0.00000000000E+00 -0.00000000000E+00 -0.11787996359E+04  0.11787996359E+04  0.00000000000E+00 0.  1.
         23    2    1    2    0    0 -0.24792809101E+03  0.75402797031E+03 -0.56795486731E+03  0.98029202804E+03  0.91505249135E+02 0.  0.
         11    1    3    3    0    0 -0.37066944957E+02  0.23821666092E+03 -0.19012399332E+03  0.30703138078E+03  0.00000000000E+00 0. -1.
        -11    1    3    3    0    0 -0.21086114606E+03  0.51581130939E+03 -0.37783087399E+03  0.67326064726E+03  0.00000000000E+00 0.  1.
         22    1    1    2    0    0  0.24792809101E+03 -0.75402797031E+03 -0.15459737725E+02  0.79389263872E+03  0.00000000000E+00 0. -1.
<mgrwt>
<rscale>  0 0.16755174E+04</rscale>
<asrwt>0</asrwt>
<pdfrwt beam="1">  1        2 0.18135379E+00 0.16755174E+04</pdfrwt>
<pdfrwt beam="2">  1       -2 0.91597699E-01 0.16755174E+04</pdfrwt>
<totfact> 0.18869998E+01</totfact>
</mgrwt>
</event>
<event>
 6    1  0.4630212E-004  0.1517888E+04  0.7818608E-02  0.8872644E-01
          2   -1    0    0  501    0  0.00000000000E+00  0.00000000000E+00  0.15307991019E+04  0.15307991019E+04  0.00000000000E+00 0.  1.
         -2   -1    0    0    0  501 -0.00000000000E+00 -0.00000000000E+00 -0.37627168355E+03  0.37627168355E+03  0.00000000000E+00 0. -1.
         23    2    1    2    0    0  0.57945106205E+03 -0.33750300746E+03  0.10185070942E+04  0.12228388496E+04  0.91139112910E+02 0.  0.
         11    1    3    3    0    0  0.20159008976E+03 -0.16147497253E+03  0.34934460687E+03  0.43445872691E+03  0.00000000000E+00 0.  1.
        -11    1    3    3    0    0  0.37786097230E+03 -0.17602803493E+03  0.66916248731E+03  0.78838012272E+03  0.00000000000E+00 0. -1.
         22    1    1    2    0    0 -0.57945106205E+03  0.33750300746E+03  0.13602032413E+03  0.68423193578E+03  0.00000000000E+00 0. -1.
<mgrwt>
<rscale>  0 0.15178885E+04</rscale>
<asrwt>0</asrwt>
<pdfrwt beam="1">  1        2 0.23550755E+00 0.15178885E+04</pdfrwt>
<pdfrwt beam="2">  1       -2 0.57887952E-01 0.15178885E+04</pdfrwt>
<totfact> 0.32866151E+01</totfact>
</mgrwt>
</event>
<event>
 6    1  0.4630212E-004  0.4765950E+04  0.7818608E-02  0.7865662E-01
          2   -1    0    0  501    0  0.00000000000E+00  0.00000000000E+00  0.22339117205E+04  0.22339117205E+04  0.00000000000E+00 0.  1.
         -2   -1    0    0    0  501 -0.00000000000E+00 -0.00000000000E+00 -0.25419849729E+04  0.25419849729E+04  0.00000000000E+00 0. -1.
         23    2    1    2    0    0 -0.54546922622E+03 -0.16431900571E+04 -0.17936006723E+04  0.24945808547E+04  0.91214191841E+02 0.  0.
         11    1    3    3    0    0 -0.19957423092E+03 -0.62437567600E+03 -0.61683133269E+03  0.90008652441E+03  0.00000000000E+00 0.  1.
        -11    1    3    3    0    0 -0.34589499530E+03 -0.10188143811E+04 -0.11767693396E+04  0.15944943303E+04  0.00000000000E+00 0. -1.
         22    1    1    2    0    0  0.54546922622E+03  0.16431900571E+04  0.14855274199E+04  0.22813158386E+04  0.00000000000E+00 0.  1.
<mgrwt>
<rscale>  0 0.47659501E+04</rscale>
<asrwt>0</asrwt>
<pdfrwt beam="1">  1        2 0.34367873E+00 0.47659501E+04</pdfrwt>
<pdfrwt beam="2">  1       -2 0.39107461E+00 0.47659501E+04</pdfrwt>
<totfact> 0.31115642E-02</totfact>
</mgrwt>
</event>
<event>
 6    1  0.4630212E-004  0.1846225E+04  0.7818608E-02  0.8682096E-01
          2   -1    0    0  501    0  0.00000000000E+00  0.00000000000E+00  0.47219991850E+03  0.47219991850E+03  0.00000000000E+00 0.  1.
         -2   -1    0    0    0  501 -0.00000000000E+00 -0.00000000000E+00 -0.18046105686E+04  0.18046105686E+04  0.00000000000E+00 0. -1.
         23    2    1    2    0    0 -0.10135061068E+03 -0.63434403054E+03  0.14573997818E+03  0.66510531083E+03  0.91981725831E+02 0.  0.
         13    1    3    3    0    0 -0.11767531213E+03 -0.56279439735E+03  0.13812063261E+03  0.59132251938E+03  0.00000000000E+00 0. -1.
        -13    1    3    3    0    0  0.16324701452E+02 -0.71549633185E+02  0.76193455706E+01  0.73782791445E+02  0.00000000000E+00 0.  1.
         22    1    1    2    0    0  0.10135061068E+03  0.63434403054E+03 -0.14781506282E+04  0.16117051762E+04  0.00000000000E+00 0. -1.
<mgrwt>
<rscale>  0 0.18462253E+04</rscale>
<asrwt>0</asrwt>
<pdfrwt beam="1">  1        2 0.72646142E-01 0.18462253E+04</pdfrwt>
<pdfrwt beam="2">  1       -2 0.27763239E+00 0.18462253E+04</pdfrwt>
<totfact> 0.26964997E+00</totfact>
</mgrwt>
</event>
<event>
 6    1  0.4630212E-004  0.4814326E+03  0.7818608E-02  0.1018742E+00
          2   -1    0    0  501    0  0.00000000000E+00  0.00000000000E+00  0.20758310451E+03  0.20758310451E+03  0.00000000000E+00 0. -1.
         -2   -1    0    0    0  501 -0.00000000000E+00 -0.00000000000E+00 -0.27913803318E+03  0.27913803318E+03  0.00000000000E+00 0.  1.
         23    2    1    2    0    0  0.20440457291E+03 -0.88720167623E+02 -0.10339881872E+03  0.26162886572E+03  0.90032494680E+02 0.  0.
         13    1    3    3    0    0  0.29163786585E+02  0.13905718248E+02 -0.34286134095E+02  0.47110873895E+02  0.00000000000E+00 0.  1.
        -13    1    3    3    0    0  0.17524078632E+03 -0.10262588587E+03 -0.69112684621E+02  0.21451799183E+03  0.00000000000E+00 0. -1.
         22    1    1    2    0    0 -0.20440457291E+03  0.88720167623E+02  0.31843890046E+02  0.22509227197E+03  0.00000000000E+00 0. -1.
<mgrwt>
<rscale>  0 0.48143261E+03</rscale>
<asrwt>0</asrwt>
<pdfrwt beam="1">  1        2 0.31935862E-01 0.48143261E+03</pdfrwt>
<pdfrwt beam="2">  1       -2 0.42944313E-01 0.48143261E+03</pdfrwt>
<totfact> 0.85509585E+02</totfact>
</mgrwt>
</event>
<event>
 6    1  0.4630212E-004  0.1612604E+04  0.7818608E-02  0.8812842E-01
         -2   -1    0    0    0  501 -0.00000000000E+00  0.00000000000E+00  0.61290018230E+03  0.61290018230E+03  0.00000000000E+00 0. -1.
          2   -1    0    0  501    0  0.00000000000E+00 -0.00000000000E+00 -0.10607325334E+04  0.10607325334E+04  0.00000000000E+00 0.  1.
         23    2    1    2    0    0  0.76795480079E+03 -0.23321239100E+03 -0.18162399855E+03  0.82805038241E+03  0.92398937188E+02 0.  0.
         11    1    3    3    0    0  0.51201405277E+03 -0.11598383572E+03 -0.14127561289E+03  0.54366298309E+03  0.00000000000E+00 0.  1.
        -11    1    3    3    0    0  0.25594074802E+03 -0.11722855528E+03 -0.40348385659E+02  0.28438739933E+03  0.00000000000E+00 0. -1.
         22    1    1    2    0    0 -0.76795480079E+03  0.23321239100E+03 -0.26620835253E+03  0.84558233327E+03  0.00000000000E+00 0.  1.
<mgrwt>
<rscale>  0 0.16126043E+04</rscale>
<asrwt>0</asrwt>
<pdfrwt beam="1">  1        2 0.16318962E+00 0.16126043E+04</pdfrwt>
<pdfrwt beam="2">  1       -2 0.94292336E-01 0.16126043E+04</pdfrwt>
<totfact> 0.20945500E+01</totfact>
</mgrwt>
</event>
<event>
 6    1  0.4630212E-004  0.2293492E+04  0.7818608E-02  0.8480491E-01
          2   -1    0    0  501    0  0.00000000000E+00  0.00000000000E+00  0.21992441050E+04  0.21992441050E+04  0.00000000000E+00 0.  1.
         -2   -1    0    0    0  501 -0.00000000000E+00 -0.00000000000E+00 -0.59794477981E+03  0.59794477981E+03  0.00000000000E+00 0. -1.
         23    2    1    2    0    0 -0.29366374798E+03 -0.47471632135E+03  0.20211017503E+04  0.20987419943E+04  0.90948838482E+02 0.  0.
         13    1    3    3    0    0 -0.13813075375E+03 -0.18545644775E+03  0.68981076436E+03  0.72753906408E+03  0.00000000000E+00 0.  1.
        -13    1    3    3    0    0 -0.15553299424E+03 -0.28925987360E+03  0.13312909859E+04  0.13712029302E+04  0.00000000000E+00 0. -1.
         22    1    1    2    0    0  0.29366374798E+03  0.47471632135E+03 -0.41980242512E+03  0.69844689044E+03  0.00000000000E+00 0. -1.
<mgrwt>
<rscale>  0 0.22934921E+04</rscale>
<asrwt>0</asrwt>
<pdfrwt beam="1">  1        2 0.33834524E+00 0.22934921E+04</pdfrwt>
<pdfrwt beam="2">  1       -2 0.91991506E-01 0.22934921E+04</pdfrwt>
<totfact> 0.47095511E+00</totfact>
</mgrwt>
</event>
<event>
 6    1  0.4630212E-004  0.1169070E+04  0.7818608E-02  0.9140369E-01
         -2   -1    0    0    0  501 -0.00000000000E+00  0.00000000000E+00  0.18333843431E+03  0.18333843431E+03  0.00000000000E+00 0. -1.
          2   -1    0    0  501    0  0.00000000000E+00 -0.00000000000E+00 -0.18636642483E+04  0.18636642483E+04  0.00000000000E+00 0.  1.
         23    2    1    2    0    0  0.44614785726E+03 -0.13035944106E+03 -0.14556502116E+04  0.15307463308E+04  0.90693420566E+02 0.  0.
         13    1    3    3    0    0  0.33180660143E+03 -0.12482673123E+03 -0.10015955007E+04  0.10624833555E+04  0.00000000000E+00 0. -1.
        -13    1    3    3    0    0  0.11434125583E+03 -0.55327098300E+01 -0.45405471084E+03  0.46826297537E+03  0.00000000000E+00 0.  1.
         22    1    1    2    0    0 -0.44614785726E+03  0.13035944106E+03 -0.22467560242E+03  0.51625635176E+03  0.00000000000E+00 0. -1.
<mgrwt>
<rscale>  0 0.11690702E+04</rscale>
<asrwt>0</asrwt>
<pdfrwt beam="1">  1        2 0.28671759E+00 0.11690702E+04</pdfrwt>
<pdfrwt beam="2">  1       -2 0.28205912E-01 0.11690702E+04</pdfrwt>
<totfact> 0.90502156E+01</totfact>
</mgrwt>
</event>
<event>
 6    1  0.4630212E-004  0.1324312E+04  0.7818608E-02  0.9010504E-01
         -2   -1    0    0    0  501 -0.00000000000E+00  0.00000000000E+00  0.35432983347E+03  0.35432983347E+03  0.00000000000E+00 0. -1.
          2   -1    0    0  501    0  0.00000000000E+00 -0.00000000000E+00 -0.12374085564E+04  0.12374085564E+04  0.00000000000E+00 0.  1.
         23    2    1    2    0    0  0.49779472824E+03  0.10663893998E+03 -0.94571198779E+03  0.10788111233E+04  0.10144368350E+03 0.  0.
         13    1    3    3    0    0  0.21201359373E+03  0.17339096809E+01 -0.33554905108E+03  0.39692056642E+03  0.00000000000E+00 0.  1.
        -13    1    3    3    0    0  0.28578113451E+03  0.10490503030E+03 -0.61016293670E+03  0.68189055687E+03  0.00000000000E+00 0. -1.
         22    1    1    2    0    0 -0.49779472824E+03 -0.10663893998E+03  0.62633264810E+02  0.51292726662E+03  0.00000000000E+00 0. -1.
<mgrwt>
<rscale>  0 0.13243123E+04</rscale>
<asrwt>0</asrwt>
<pdfrwt beam="1">  1        2 0.19037055E+00 0.13243123E+04</pdfrwt>
<pdfrwt beam="2">  1       -2 0.54512281E-01 0.13243123E+04</pdfrwt>
<totfact> 0.55756961E+01</totfact>
</mgrwt>
</event>
<event>
 6    1  0.4630212E-004  0.1498022E+04  0.7818608E-02  0.8885769E-01
          2   -1    0    0  501    0  0.00000000000E+00  0.00000000000E+00  0.32682067431E+03  0.32682067431E+03  0.00000000000E+00 0.  1.
         -2   -1    0    0    0  501 -0.00000000000E+00 -0.00000000000E+00 -0.17165909284E+04  0.17165909284E+04  0.00000000000E+00 0. -1.
         23    2    1    2    0    0 -0.92545945210E+02  0.73620354451E+03 -0.80521364187E+03  0.10988128287E+04  0.91979413627E+02 0.  0.
         11    1    3    3    0    0 -0.86388275551E+02  0.38640398396E+03 -0.38850082361E+03  0.55471061187E+03  0.00000000000E+00 0.  1.
        -11    1    3    3    0    0 -0.61576696585E+01  0.34979956056E+03 -0.41671281826E+03  0.54410221683E+03  0.00000000000E+00 0. -1.
         22    1    1    2    0    0  0.92545945210E+02 -0.73620354451E+03 -0.58455661218E+03  0.94459877397E+03  0.00000000000E+00 0. -1.
<mgrwt>
<rscale>  0 0.14980219E+04</rscale>
<asrwt>0</asrwt>
<pdfrwt beam="1">  1        2 0.50280104E-01 0.14980219E+04</pdfrwt>
<pdfrwt beam="2">  1       -2 0.26409091E+00 0.14980219E+04</pdfrwt>
<totfact> 0.50853903E+00</totfact>
</mgrwt>
</event>
<event>
 6    1  0.4630212E-004  0.1408447E+04  0.7818608E-02  0.8947727E-01
          2   -1    0    0  501    0  0.00000000000E+00  0.00000000000E+00  0.11287286782E+04  0.11287286782E+04  0.00000000000E+00 0.  1.
         -2   -1    0    0    0  501 -0.00000000000E+00 -0.00000000000E+00 -0.43937089113E+03  0.43937089113E+03  0.00000000000E+00 0. -1.
         23    2    1    2    0    0  0.22397282127E+03  0.37061936754E+03  0.96016217957E+03  0.10573574041E+04  0.92578230293E+02 0.  0.
         11    1    3    3    0    0  0.22141295815E+03  0.30363270694E+03  0.81409933044E+03  0.89664610553E+03  0.00000000000E+00 0. -1.
        -11    1    3    3    0    0  0.25598631237E+01  0.66986660600E+02  0.14606284913E+03  0.16071129859E+03  0.00000000000E+00 0.  1.
         22    1    1    2    0    0 -0.22397282127E+03 -0.37061936754E+03 -0.27080439254E+03  0.51074216517E+03  0.00000000000E+00 0. -1.
<mgrwt>
<rscale>  0 0.14084467E+04</rscale>
<asrwt>0</asrwt>
<pdfrwt beam="1">  1        2 0.17365056E+00 0.14084467E+04</pdfrwt>
<pdfrwt beam="2">  1       -2 0.67595522E-01 0.14084467E+04</pdfrwt>
<totfact> 0.40820995E+01</totfact>
</mgrwt>
</event>
<event>
 6    1  0.4630212E-004  0.3239582E+04  0.7818608E-02  0.8178441E-01
         -2   -1    0    0    0  501 -0.00000000000E+00  0.00000000000E+00  0.11414366909E+04  0.11414366909E+04  0.00000000000E+00 0. -1.
          2   -1    0    0  501    0  0.00000000000E+00 -0.00000000000E+00 -0.22986149916E+04  0.22986149916E+04  0.00000000000E+00 0.  1.
         23    2    1    2    0    0 -0.10211894602E+03  0.44905452855E+03  0.10686991734E+04  0.11670341334E+04  0.88161762996E+02 0.  0.
         11    1    3    3    0    0 -0.10634317382E+03  0.42970605133E+03  0.96813094918E+03  0.10645344973E+04  0.00000000000E+00 0. -1.
        -11    1    3    3    0    0  0.42242277986E+01  0.19348477222E+02  0.10056822422E+03  0.10249963606E+03  0.00000000000E+00 0.  1.
         22    1    1    2    0    0  0.10211894602E+03 -0.44905452855E+03 -0.22258774741E+04  0.22730175491E+04  0.00000000000E+00 0.  1.
<mgrwt>
<rscale>  0 0.32395824E+04</rscale>
<asrwt>0</asrwt>
<pdfrwt beam="1">  1        2 0.35363307E+00 0.32395824E+04</pdfrwt>
<pdfrwt beam="2">  1       -2 0.17560565E+00 0.32395824E+04</pdfrwt>
<totfact> 0.74165824E-01</totfact>
</mgrwt>
</event>
<event>
 6    1  0.4630212E-004  0.1835867E+04  0.7818608E-02  0.8687455E-01
          2   -1    0    0  501    0  0.00000000000E+00  0.00000000000E+00  0.20137066230E+04  0.20137066230E+04  0.00000000000E+00 0.  1.
         -2   -1    0    0    0  501 -0.00000000000E+00 -0.00000000000E+00 -0.41843319292E+03  0.41843319292E+03  0.00000000000E+00 0. -1.
         23    2    1    2    0    0  0.89154739720E+03 -0.14262585487E+03  0.59712393721E+03  0.10862195709E+04  0.90094749019E+02 0.  0.
         11    1    3    3    0    0  0.46020257094E+03 -0.47576916455E+02  0.34969403755E+03  0.57994472941E+03  0.00000000000E+00 0. -1.
        -11    1    3    3    0    0  0.43134482626E+03 -0.95048938413E+02  0.24742989966E+03  0.50627484145E+03  0.00000000000E+00 0.  1.
         22    1    1    2    0    0 -0.89154739720E+03  0.14262585487E+03  0.99814949282E+03  0.13459202450E+04  0.00000000000E+00 0. -1.
<mgrwt>
<rscale>  0 0.18358668E+04</rscale>
<asrwt>0</asrwt>
<pdfrwt beam="1">  1        2 0.30980101E+00 0.18358668E+04</pdfrwt>
<pdfrwt beam="2">  1       -2 0.64374338E-01 0.18358668E+04</pdfrwt>
<totfact> 0.13774912E+01</totfact>
</mgrwt>
</event>
<event>
 6    1  0.4630212E-004  0.1378553E+04  0.7818608E-02  0.8969491E-01
         -2   -1    0    0    0  501 -0.00000000000E+00  0.00000000000E+00  0.21648293157E+03  0.21648293157E+03  0.00000000000E+00 0. -1.
          2   -1    0    0  501    0  0.00000000000E+00 -0.00000000000E+00 -0.21946386178E+04  0.21946386178E+04  0.00000000000E+00 0.  1.
         23    2    1    2    0    0  0.54800535572E+03  0.41301802350E+03 -0.99074834906E+03  0.12086794480E+04  0.91814809486E+02 0.  0.
         13    1    3    3    0    0  0.28815771215E+03  0.16013298835E+03 -0.46268104715E+03  0.56811195413E+03  0.00000000000E+00 0.  1.
        -13    1    3    3    0    0  0.25984764356E+03  0.25288503516E+03 -0.52806730190E+03  0.64056749387E+03  0.00000000000E+00 0. -1.
         22    1    1    2    0    0 -0.54800535572E+03 -0.41301802350E+03 -0.98740733718E+03  0.12024421014E+04  0.00000000000E+00 0. -1.
<mgrwt>
<rscale>  0 0.13785526E+04</rscale>
<asrwt>0</asrwt>
<pdfrwt beam="1">  1        2 0.33763670E+00 0.13785526E+04</pdfrwt>
<pdfrwt beam="2">  1       -2 0.33305068E-01 0.13785526E+04</pdfrwt>
<totfact> 0.42757511E+01</totfact>
</mgrwt>
</event>
<event>
 6    1  0.4630212E-004  0.2228055E+04  0.7818608E-02  0.8506841E-01
          2   -1    0    0  501    0  0.00000000000E+00  0.00000000000E+00  0.39196436294E+04  0.39196436294E+04  0.00000000000E+00 0.  1.
         -2   -1    0    0    0  501 -0.00000000000E+00 -0.00000000000E+00 -0.31662505554E+03  0.31662505554E+03  0.00000000000E+00 0. -1.
         23    2    1    2    0    0  0.85479788292E+03  0.60854437286E+03  0.25056211058E+04  0.27179515648E+04  0.90099437147E+02 0.  0.
         11    1    3    3    0    0  0.47993875544E+03  0.38622179365E+03  0.14009875503E+04  0.15304491494E+04  0.00000000000E+00 0. -1.
        -11    1    3    3    0    0  0.37485912748E+03  0.22232257922E+03  0.11046335555E+04  0.11875024154E+04  0.00000000000E+00 0.  1.
         22    1    1    2    0    0 -0.85479788292E+03 -0.60854437286E+03  0.10973974681E+04  0.15183171202E+04  0.00000000000E+00 0. -1.
<mgrwt>
<rscale>  0 0.22280551E+04</rscale>
<asrwt>0</asrwt>
<pdfrwt beam="1">  1        2 0.60302207E+00 0.22280551E+04</pdfrwt>
<pdfrwt beam="2">  1       -2 0.48711550E-01 0.22280551E+04</pdfrwt>
<totfact> 0.14526407E+00</totfact>
</mgrwt>
</event>
<event>
 6    1  0.4630212E-004  0.4578440E+04  0.7818608E-02  0.7897046E-01
         -2   -1    0    0    0  501 -0.00000000000E+00  0.00000000000E+00  0.18316152737E+04  0.18316152737E+04  0.00000000000E+00 0. -1.
          2   -1    0    0  501    0  0.00000000000E+00 -0.00000000000E+00 -0.28611509061E+04  0.28611509061E+04  0.00000000000E+00 0.  1.
         23    2    1    2    0    0 -0.41140339299E+03 -0.41075757987E+03  0.17535833007E+04  0.18495768548E+04  0.88913486925E+02 0.  0.
         11    1    3    3    0    0 -0.15546159118E+03 -0.11048158410E+03  0.48919984212E+03  0.52506282699E+03  0.00000000000E+00 0.  1.
        -11    1    3    3    0    0 -0.25594180181E+03 -0.30027599578E+03  0.12643834586E+04  0.13245140279E+04  0.00000000000E+00 0. -1.
         22    1    1    2    0    0  0.41140339299E+03  0.41075757987E+03 -0.27831189332E+04  0.28431893249E+04  0.00000000000E+00 0.  1.
<mgrwt>
<rscale>  0 0.45784398E+04</rscale>
<asrwt>0</asrwt>
<pdfrwt beam="1">  1        2 0.44017706E+00 0.45784398E+04</pdfrwt>
<pdfrwt beam="2">  1       -2 0.28178697E+00 0.45784398E+04</pdfrwt>
<totfact> 0.65611324E-02</totfact>
</mgrwt>
</event>
<event>
 6    1  0.4630212E-004  0.1752489E+04  0.7818608E-02  0.8731981E-01
         -2   -1    0    0    0  501 -0.00000000000E+00  0.00000000000E+00  0.31094230455E+03  0.31094230455E+03  0.00000000000E+00 0. -1.
          2   -1    0    0  501    0  0.00000000000E+00 -0.00000000000E+00 -0.24692828682E+04  0.24692828682E+04  0.00000000000E+00 0.  1.
         23    2    1    2    0    0  0.84835561527E+03  0.19715239797E+02 -0.14140081212E+04  0.16514529524E+04  0.88215340660E+02 0.  0.
         13    1    3    3    0    0  0.60399390371E+03  0.13993130275E+02 -0.10809274142E+04  0.12383087330E+04  0.00000000000E+00 0. -1.
        -13    1    3    3    0    0  0.24436171156E+03  0.57221095216E+01 -0.33308070706E+03  0.41314421941E+03  0.00000000000E+00 0.  1.
         22    1    1    2    0    0 -0.84835561527E+03 -0.19715239797E+02 -0.74433244237E+03  0.11287722203E+04  0.00000000000E+00 0. -1.
<mgrwt>
<rscale>  0 0.17524891E+04</rscale>
<asrwt>0</asrwt>
<pdfrwt beam="1">  1        2 0.37988968E+00 0.17524891E+04</pdfrwt>
<pdfrwt beam="2">  1       -2 0.47837277E-01 0.17524891E+04</pdfrwt>
<totfact> 0.14247692E+01</totfact>
</mgrwt>
</event>
<event>
 6    1  0.4630212E-004  0.1399565E+04  0.7818608E-02  0.8954134E-01
         -2   -1    0    0    0  501 -0.00000000000E+00  0.00000000000E+00  0.30686604374E+03  0.30686604374E+03  0.00000000000E+00 0. -1.
          2   -1    0    0  501    0  0.00000000000E+00 -0.00000000000E+00 -0.15957955524E+04  0.15957955524E+04  0.00000000000E+00 0.  1.
         23    2    1    2    0    0  0.42013614936E+03 -0.23147134953E+03 -0.13346814554E+04  0.14208041377E+04  0.84949634958E+02 0.  0.
         11    1    3    3    0    0  0.29907040036E+03 -0.19277054993E+03 -0.89546022395E+03  0.96356245359E+03  0.00000000000E+00 0. -1.
        -11    1    3    3    0    0  0.12106574900E+03 -0.38700799598E+02 -0.43922123150E+03  0.45724168409E+03  0.00000000000E+00 0.  1.
         22    1    1    2    0    0 -0.42013614936E+03  0.23147134953E+03  0.45751946776E+02  0.48185745847E+03  0.00000000000E+00 0. -1.
<mgrwt>
<rscale>  0 0.13995649E+04</rscale>
<asrwt>0</asrwt>
<pdfrwt beam="1">  1        2 0.24550701E+00 0.13995649E+04</pdfrwt>
<pdfrwt beam="2">  1       -2 0.47210160E-01 0.13995649E+04</pdfrwt>
<totfact> 0.46400427E+01</totfact>
</mgrwt>
</event>
<event>
 6    1  0.4630212E-004  0.1514555E+04  0.7818608E-02  0.8874832E-01
         -2   -1    0    0    0  501 -0.00000000000E+00  0.00000000000E+00  0.32736158187E+03  0.32736158187E+03  0.00000000000E+00 0. -1.
          2   -1    0    0  501    0  0.00000000000E+00 -0.00000000000E+00 -0.17517906497E+04  0.17517906497E+04  0.00000000000E+00 0.  1.
         23    2    1    2    0    0  0.10875478035E+03  0.30939120544E+03 -0.16475533917E+04  0.16824974898E+04  0.93888788792E+02 0.  0.
         11    1    3    3    0    0  0.88416470769E+02  0.14691343361E+03 -0.99798854054E+03  0.10126115525E+04  0.00000000000E+00 0. -1.
        -11    1    3    3    0    0  0.20338309579E+02  0.16247777182E+03 -0.64956485112E+03  0.66988593729E+03  0.00000000000E+00 0.  1.
         22    1    1    2    0    0 -0.10875478035E+03 -0.30939120544E+03  0.22312432384E+03  0.39665474173E+03  0.00000000000E+00 0. -1.
<mgrwt>
<rscale>  0 0.15145547E+04</rscale>
<asrwt>0</asrwt>
<pdfrwt beam="1">  1        2 0.26950626E+00 0.15145547E+04</pdfrwt>
<pdfrwt beam="2">  1       -2 0.50363319E-01 0.15145547E+04</pdfrwt>
<totfact> 0.33024074E+01</totfact>
</mgrwt>
</event>
<event>
 6    1  0.4630212E-004  0.3852071E+04  0.7818608E-02  0.8035072E-01
         -2   -1    0    0    0  501 -0.00000000000E+00  0.00000000000E+00  0.15396122501E+04  0.15396122501E+04  0.00000000000E+00 0. -1.
          2   -1    0    0  501    0  0.00000000000E+00 -0.00000000000E+00 -0.24094455071E+04  0.24094455071E+04  0.00000000000E+00 0.  1.
         23    2    1    2    0    0 -0.47869470753E+03 -0.17731689782E+04 -0.10259214228E+04  0.21057888230E+04  0.92492988531E+02 0.  0.
         13    1    3    3    0    0 -0.10187182172E+03 -0.32444166350E+03 -0.22862297799E+03  0.40976667402E+03  0.00000000000E+00 0. -1.
        -13    1    3    3    0    0 -0.37682288582E+03 -0.14487273147E+04 -0.79729844479E+03  0.16960221490E+04  0.00000000000E+00 0.  1.
         22    1    1    2    0    0  0.47869470753E+03  0.17731689782E+04  0.15608816586E+03  0.18432689342E+04  0.00000000000E+00 0. -1.
<mgrwt>
<rscale>  0 0.38520705E+04</rscale>
<asrwt>0</asrwt>
<pdfrwt beam="1">  1        2 0.37068392E+00 0.38520705E+04</pdfrwt>
<pdfrwt beam="2">  1       -2 0.23686342E+00 0.38520705E+04</pdfrwt>
<totfact> 0.24285266E-01</totfact>
</mgrwt>
</event>
<event>
 6    1  0.4630212E-004  0.1910046E+04  0.7818608E-02  0.8649872E-01
         -2   -1    0    0    0  501 -0.00000000000E+00  0.00000000000E+00  0.10319177336E+04  0.10319177336E+04  0.00000000000E+00 0. -1.
          2   -1    0    0  501    0  0.00000000000E+00 -0.00000000000E+00 -0.88385825808E+03  0.88385825808E+03  0.00000000000E+00 0.  1.
         23    2    1    2    0    0 -0.86130494045E+03 -0.10692297281E+03 -0.32041849083E+03  0.92949493260E+03  0.89521494123E+02 0.  0.
         13    1    3    3    0    0 -0.65651829212E+02 -0.32479931391E+02 -0.31665202678E+02  0.79798456643E+02  0.00000000000E+00 0. -1.
        -13    1    3    3    0    0 -0.79565311124E+03 -0.74443041418E+02 -0.28875328815E+03  0.84969647596E+03  0.00000000000E+00 0.  1.
         22    1    1    2    0    0  0.86130494045E+03  0.10692297281E+03  0.46847796635E+03  0.98628105909E+03  0.00000000000E+00 0. -1.
<mgrwt>
<rscale>  0 0.19100461E+04</rscale>
<asrwt>0</asrwt>
<pdfrwt beam="1">  1        2 0.13597819E+00 0.19100461E+04</pdfrwt>
<pdfrwt beam="2">  1       -2 0.15875657E+00 0.19100461E+04</pdfrwt>
<totfact> 0.72388500E+00</totfact>
</mgrwt>
</event>
<event>
 6    1  0.4630212E-004  0.3983738E+04  0.7818608E-02  0.8007835E-01
          2   -1    0    0  501    0  0.00000000000E+00  0.00000000000E+00  0.37036765310E+04  0.37036765310E+04  0.00000000000E+00 0.  1.
         -2   -1    0    0    0  501 -0.00000000000E+00 -0.00000000000E+00 -0.10712442877E+04  0.10712442877E+04  0.00000000000E+00 0. -1.
         23    2    1    2    0    0  0.20326967998E+03 -0.13629023112E+04 -0.40528760244E+03  0.14392704872E+04  0.91761766349E+02 0.  0.
         11    1    3    3    0    0  0.12818659236E+03 -0.10401152393E+04 -0.33763807233E+03  0.11010317804E+04  0.00000000000E+00 0. -1.
        -11    1    3    3    0    0  0.75083087612E+02 -0.32278707195E+03 -0.67649530115E+02  0.33823870682E+03  0.00000000000E+00 0.  1.
         22    1    1    2    0    0 -0.20326967998E+03  0.13629023112E+04  0.30377198458E+04  0.33356503316E+04  0.00000000000E+00 0.  1.
<mgrwt>
<rscale>  0 0.39837381E+04</rscale>
<asrwt>0</asrwt>
<pdfrwt beam="1">  1        2 0.56979638E+00 0.39837381E+04</pdfrwt>
<pdfrwt beam="2">  1       -2 0.16480682E+00 0.39837381E+04</pdfrwt>
<totfact> 0.10615936E-01</totfact>
</mgrwt>
</event>
<event>
 6    1  0.4630212E-004  0.1912065E+04  0.7818608E-02  0.8648874E-01
         -2   -1    0    0    0  501 -0.00000000000E+00  0.00000000000E+00  0.79354002486E+03  0.79354002486E+03  0.00000000000E+00 0. -1.
          2   -1    0    0  501    0  0.00000000000E+00 -0.00000000000E+00 -0.11517980977E+04  0.11517980977E+04  0.00000000000E+00 0.  1.
         23    2    1    2    0    0 -0.26636611987E+03 -0.51514835863E+03  0.59087245222E+03  0.83305331425E+03  0.92297499334E+02 0.  0.
         11    1    3    3    0    0 -0.16833418149E+03 -0.37984054993E+03  0.37184859927E+03  0.55757207678E+03  0.00000000000E+00 0.  1.
        -11    1    3    3    0    0 -0.98031938382E+02 -0.13530780870E+03  0.21902385295E+03  0.27548123747E+03  0.00000000000E+00 0. -1.
         22    1    1    2    0    0  0.26636611987E+03  0.51514835863E+03 -0.94913052507E+03  0.11122848083E+04  0.00000000000E+00 0.  1.
<mgrwt>
<rscale>  0 0.19120647E+04</rscale>
<asrwt>0</asrwt>
<pdfrwt beam="1">  1        2 0.17719971E+00 0.19120647E+04</pdfrwt>
<pdfrwt beam="2">  1       -2 0.12208308E+00 0.19120647E+04</pdfrwt>
<totfact> 0.96403964E+00</totfact>
</mgrwt>
</event>
<event>
 6    1  0.4630212E-004  0.1093684E+04  0.7818608E-02  0.9211369E-01
          2   -1    0    0  501    0  0.00000000000E+00  0.00000000000E+00  0.26604714197E+04  0.26604714197E+04  0.00000000000E+00 0.  1.
         -2   -1    0    0    0  501 -0.00000000000E+00 -0.00000000000E+00 -0.11239978274E+03  0.11239978274E+03  0.00000000000E+00 0. -1.
         23    2    1    2    0    0  0.40412537687E+03  0.35676553207E+03  0.14401580415E+04  0.15407707601E+04  0.96542143641E+02 0.  0.
         11    1    3    3    0    0  0.30333033681E+03  0.30151599641E+03  0.10421722877E+04  0.11265186490E+04  0.00000000000E+00 0. -1.
        -11    1    3    3    0    0  0.10079504006E+03  0.55249535661E+02  0.39798575384E+03  0.41425211110E+03  0.00000000000E+00 0.  1.
         22    1    1    2    0    0 -0.40412537687E+03 -0.35676553207E+03  0.11079135955E+04  0.12321004424E+04  0.00000000000E+00 0.  1.
<mgrwt>
<rscale>  0 0.10936844E+04</rscale>
<asrwt>0</asrwt>
<pdfrwt beam="1">  1        2 0.40930325E+00 0.10936844E+04</pdfrwt>
<pdfrwt beam="2">  1       -2 0.17292276E-01 0.10936844E+04</pdfrwt>
<totfact> 0.77585719E+01</totfact>
</mgrwt>
</event>
<event>
 6    1  0.4630212E-004  0.4696356E+04  0.7818608E-02  0.7877134E-01
          2   -1    0    0  501    0  0.00000000000E+00  0.00000000000E+00  0.34918781378E+04  0.34918781378E+04  0.00000000000E+00 0.  1.
         -2   -1    0    0    0  501 -0.00000000000E+00 -0.00000000000E+00 -0.15790754177E+04  0.15790754177E+04  0.00000000000E+00 0. -1.
         23    2    1    2    0    0 -0.18869882523E+04 -0.12149656724E+04  0.16993616849E+04  0.28165304974E+04  0.90264373493E+02 0.  0.
         13    1    3    3    0    0 -0.12579382090E+04 -0.85275186046E+03  0.11775829671E+04  0.19225753347E+04  0.00000000000E+00 0.  1.
        -13    1    3    3    0    0 -0.62905004327E+03 -0.36221381190E+03  0.52177871781E+03  0.89395516265E+03  0.00000000000E+00 0. -1.
         22    1    1    2    0    0  0.18869882523E+04  0.12149656724E+04  0.21344103513E+03  0.22544230581E+04  0.00000000000E+00 0. -1.
<mgrwt>
<rscale>  0 0.46963556E+04</rscale>
<asrwt>0</asrwt>
<pdfrwt beam="1">  1        2 0.53721202E+00 0.46963556E+04</pdfrwt>
<pdfrwt beam="2">  1       -2 0.24293468E+00 0.46963556E+04</pdfrwt>
<totfact> 0.43557897E-02</totfact>
</mgrwt>
</event>
<event>
 6    1  0.4630212E-004  0.6252194E+04  0.7818608E-02  0.7659896E-01
          2   -1    0    0  501    0  0.00000000000E+00  0.00000000000E+00  0.34151879899E+04  0.34151879899E+04  0.00000000000E+00 0.  1.
         -2   -1    0    0    0  501 -0.00000000000E+00 -0.00000000000E+00 -0.28614769363E+04  0.28614769363E+04  0.00000000000E+00 0. -1.
         23    2    1    2    0    0  0.23830648142E+04 -0.47083630330E+03 -0.16975191908E+04  0.29647587762E+04  0.86824332024E+02 0.  0.
         11    1    3    3    0    0  0.33964281031E+03 -0.96282662973E+02 -0.23354004460E+03  0.42328305213E+03  0.00000000000E+00 0. -1.
        -11    1    3    3    0    0  0.20434220039E+04 -0.37455364033E+03 -0.14639791462E+04  0.25414757241E+04  0.00000000000E+00 0.  1.
         22    1    1    2    0    0 -0.23830648142E+04  0.47083630330E+03  0.22512302443E+04  0.33119061500E+04  0.00000000000E+00 0.  1.
<mgrwt>
<rscale>  0 0.62521937E+04</rscale>
<asrwt>0</asrwt>
<pdfrwt beam="1">  1        2 0.52541354E+00 0.62521937E+04</pdfrwt>
<pdfrwt beam="2">  1       -2 0.44022722E+00 0.62521937E+04</pdfrwt>
<totfact> 0.24814712E-03</totfact>
</mgrwt>
</event>
<event>
 6    1  0.4630212E-004  0.5255643E+04  0.7818608E-02  0.7790238E-01
          2   -1    0    0  501    0  0.00000000000E+00  0.00000000000E+00  0.30525473696E+04  0.30525473696E+04  0.00000000000E+00 0.  1.
         -2   -1    0    0    0  501 -0.00000000000E+00 -0.00000000000E+00 -0.22621915962E+04  0.22621915962E+04  0.00000000000E+00 0. -1.
         23    2    1    2    0    0  0.30698242468E+03  0.10683618482E+04 -0.20116942590E+04  0.23002539961E+04  0.92840762788E+02 0.  0.
         11    1    3    3    0    0  0.13346691825E+03  0.33143715194E+03 -0.69302268713E+03  0.77970792534E+03  0.00000000000E+00 0. -1.
        -11    1    3    3    0    0  0.17351550642E+03  0.73692469628E+03 -0.13186715719E+04  0.15205460708E+04  0.00000000000E+00 0.  1.
         22    1    1    2    0    0 -0.30698242468E+03 -0.10683618482E+04  0.28020500325E+04  0.30144849696E+04  0.00000000000E+00 0.  1.
<mgrwt>
<rscale>  0 0.52556434E+04</rscale>
<asrwt>0</asrwt>
<pdfrwt beam="1">  1        2 0.46962267E+00 0.52556434E+04</pdfrwt>
<pdfrwt beam="2">  1       -2 0.34802948E+00 0.52556434E+04</pdfrwt>
<totfact> 0.18417535E-02</totfact>
</mgrwt>
</event>
<event>
 6    1  0.4630212E-004  0.1355363E+04  0.7818608E-02  0.8986778E-01
         -2   -1    0    0    0  501 -0.00000000000E+00  0.00000000000E+00  0.10440372737E+04  0.10440372737E+04  0.00000000000E+00 0. -1.
          2   -1    0    0  501    0  0.00000000000E+00 -0.00000000000E+00 -0.43988116325E+03  0.43988116325E+03  0.00000000000E+00 0.  1.
         23    2    1    2    0    0  0.45160477375E+02  0.56472506212E+03 -0.98002029823E+02  0.58171008050E+03  0.88477993927E+02 0.  0.
         13    1    3    3    0    0  0.22681431406E+02  0.29274492799E+03 -0.95595198916E+02  0.30879197245E+03  0.00000000000E+00 0. -1.
        -13    1    3    3    0    0  0.22479045969E+02  0.27198013413E+03 -0.24068309073E+01  0.27291810805E+03  0.00000000000E+00 0.  1.
         22    1    1    2    0    0 -0.45160477375E+02 -0.56472506212E+03  0.70215814029E+03  0.90220835646E+03  0.00000000000E+00 0. -1.
<mgrwt>
<rscale>  0 0.13553632E+04</rscale>
<asrwt>0</asrwt>
<pdfrwt beam="1">  1        2 0.67674025E-01 0.13553632E+04</pdfrwt>
<pdfrwt beam="2">  1       -2 0.16062112E+00 0.13553632E+04</pdfrwt>
<totfact> 0.17352508E+01</totfact>
</mgrwt>
</event>
<event>
 6    1  0.4630212E-004  0.1350846E+04  0.7818608E-02  0.8990188E-01
          2   -1    0    0  501    0  0.00000000000E+00  0.00000000000E+00  0.15437225274E+04  0.15437225274E+04  0.00000000000E+00 0.  1.
         -2   -1    0    0    0  501 -0.00000000000E+00 -0.00000000000E+00 -0.29551712437E+03  0.29551712437E+03  0.00000000000E+00 0. -1.
         23    2    1    2    0    0 -0.41804036276E+03 -0.94513631967E+02  0.13323130706E+04  0.14024735000E+04  0.90461199372E+02 0.  0.
         11    1    3    3    0    0 -0.29749249824E+03 -0.88137079973E+02  0.10627110844E+04  0.11070793920E+04  0.00000000000E+00 0.  1.
        -11    1    3    3    0    0 -0.12054786452E+03 -0.63765519940E+01  0.26960198623E+03  0.29539410799E+03  0.00000000000E+00 0. -1.
         22    1    1    2    0    0  0.41804036276E+03  0.94513631967E+02 -0.84107667636E+02  0.43676615171E+03  0.00000000000E+00 0. -1.
<mgrwt>
<rscale>  0 0.13508463E+04</rscale>
<asrwt>0</asrwt>
<pdfrwt beam="1">  1        2 0.23749577E+00 0.13508463E+04</pdfrwt>
<pdfrwt beam="2">  1       -2 0.45464174E-01 0.13508463E+04</pdfrwt>
<totfact> 0.53726451E+01</totfact>
</mgrwt>
</event>
<event>
 6    1  0.4630212E-004  0.1861083E+04  0.7818608E-02  0.8674474E-01
          2   -1    0    0  501    0  0.00000000000E+00  0.00000000000E+00  0.30094912108E+04  0.30094912108E+04  0.00000000000E+00 0.  1.
         -2   -1    0    0    0  501 -0.00000000000E+00 -0.00000000000E+00 -0.28772545283E+03  0.28772545283E+03  0.00000000000E+00 0. -1.
         23    2    1    2    0    0 -0.41236264891E+02 -0.92479145291E+03  0.14886172607E+04  0.17552715034E+04  0.89761020729E+02 0.  0.
         11    1    3    3    0    0 -0.20102995433E+02 -0.76824996397E+03  0.11730331037E+04  0.14023618648E+04  0.00000000000E+00 0. -1.
        -11    1    3    3    0    0 -0.21133269458E+02 -0.15654148894E+03  0.31558415696E+03  0.35290963853E+03  0.00000000000E+00 0.  1.
         22    1    1    2    0    0  0.41236264891E+02  0.92479145291E+03  0.12331484973E+04  0.15419451603E+04  0.00000000000E+00 0. -1.
<mgrwt>
<rscale>  0 0.18610827E+04</rscale>
<asrwt>0</asrwt>
<pdfrwt beam="1">  1        2 0.46299863E+00 0.18610827E+04</pdfrwt>
<pdfrwt beam="2">  1       -2 0.44265456E-01 0.18610827E+04</pdfrwt>
<totfact> 0.78356711E+00</totfact>
</mgrwt>
</event>
<event>
 6    1  0.4711866E-004  0.2338864E+04  0.7818608E-02  0.8462753E-01
          2   -1    0    0  501    0  0.00000000000E+00  0.00000000000E+00  0.14554773793E+04  0.14554773793E+04  0.00000000000E+00 0.  1.
         -2   -1    0    0    0  501 -0.00000000000E+00 -0.00000000000E+00 -0.93960330064E+03  0.93960330064E+03  0.00000000000E+00 0. -1.
         23    2    1    2    0    0 -0.97010419237E+03 -0.64329710748E+03  0.16441270259E+03  0.11791619280E+04  0.91967402017E+02 0.  0.
         11    1    3    3    0    0 -0.64883120453E+03 -0.47835000367E+03  0.99275618675E+02  0.81219228416E+03  0.00000000000E+00 0. -1.
        -11    1    3    3    0    0 -0.32127298784E+03 -0.16494710380E+03  0.65137083916E+02  0.36696964380E+03  0.00000000000E+00 0.  1.
         22    1    1    2    0    0  0.97010419237E+03  0.64329710748E+03  0.35146137605E+03  0.12159187520E+04  0.00000000000E+00 0. -1.
<mgrwt>
<rscale>  0 0.23388641E+04</rscale>
<asrwt>0</asrwt>
<pdfrwt beam="1">  1        2 0.22391960E+00 0.23388641E+04</pdfrwt>
<pdfrwt beam="2">  1       -2 0.14455435E+00 0.23388641E+04</pdfrwt>
<totfact> 0.40170205E+00</totfact>
</mgrwt>
</event>
<event>
 6    1  0.4630212E-004  0.4961851E+04  0.7818608E-02  0.7834419E-01
          2   -1    0    0  501    0  0.00000000000E+00  0.00000000000E+00  0.12710282555E+04  0.12710282555E+04  0.00000000000E+00 0.  1.
         -2   -1    0    0    0  501 -0.00000000000E+00 -0.00000000000E+00 -0.48425297388E+04  0.48425297388E+04  0.00000000000E+00 0. -1.
         23    2    1    2    0    0  0.15085313294E+04 -0.19651910659E+04 -0.19285316146E+04  0.31408500223E+04  0.89788510350E+02 0.  0.
         11    1    3    3    0    0  0.14834166989E+03 -0.15420378096E+03 -0.17712080305E+03  0.27776939349E+03  0.00000000000E+00 0. -1.
        -11    1    3    3    0    0  0.13601896595E+04 -0.18109872849E+04 -0.17514108115E+04  0.28630806288E+04  0.00000000000E+00 0.  1.
         22    1    1    2    0    0 -0.15085313294E+04  0.19651910659E+04 -0.16429698688E+04  0.29727079720E+04  0.00000000000E+00 0.  1.
<mgrwt>
<rscale>  0 0.49618513E+04</rscale>
<asrwt>0</asrwt>
<pdfrwt beam="1">  1        2 0.19554281E+00 0.49618513E+04</pdfrwt>
<pdfrwt beam="2">  1       -2 0.74500457E+00 0.49618513E+04</pdfrwt>
<totfact> 0.19058669E-03</totfact>
</mgrwt>
</event>
<event>
 6    1  0.4630212E-004  0.2563056E+04  0.7818608E-02  0.8380860E-01
         -2   -1    0    0    0  501 -0.00000000000E+00  0.00000000000E+00  0.53763528809E+03  0.53763528809E+03  0.00000000000E+00 0. -1.
          2   -1    0    0  501    0  0.00000000000E+00 -0.00000000000E+00 -0.30546997627E+04  0.30546997627E+04  0.00000000000E+00 0.  1.
         23    2    1    2    0    0  0.26616301725E+03  0.72494989882E+03 -0.26907508362E+04  0.28007783190E+04  0.88453500021E+02 0.  0.
         13    1    3    3    0    0  0.68578700342E+02  0.10923630691E+03 -0.52035006867E+03  0.53609682227E+03  0.00000000000E+00 0. -1.
        -13    1    3    3    0    0  0.19758431691E+03  0.61571359191E+03 -0.21704007676E+04  0.22646814967E+04  0.00000000000E+00 0.  1.
         22    1    1    2    0    0 -0.26616301725E+03 -0.72494989882E+03  0.17368636160E+03  0.79155673186E+03  0.00000000000E+00 0. -1.
<mgrwt>
<rscale>  0 0.25630563E+04</rscale>
<asrwt>0</asrwt>
<pdfrwt beam="1">  1        2 0.46995382E+00 0.25630563E+04</pdfrwt>
<pdfrwt beam="2">  1       -2 0.82713120E-01 0.25630563E+04</pdfrwt>
<totfact> 0.18293497E+00</totfact>
</mgrwt>
</event>
<event>
 6    1  0.4630212E-004  0.9078694E+03  0.7818608E-02  0.9415797E-01
          2   -1    0    0  501    0  0.00000000000E+00  0.00000000000E+00  0.27471106089E+03  0.27471106089E+03  0.00000000000E+00 0.  1.
         -2   -1    0    0    0  501 -0.00000000000E+00 -0.00000000000E+00 -0.75008520685E+03  0.75008520685E+03  0.00000000000E+00 0. -1.
         23    2    1    2    0    0  0.63398624426E+02 -0.50974129457E+02 -0.73898354779E+03  0.74892009227E+03  0.90370754348E+02 0.  0.
         11    1    3    3    0    0 -0.35785990000E+01 -0.39463187860E+02 -0.46299562782E+03  0.46468817603E+03  0.00000000000E+00 0.  1.
        -11    1    3    3    0    0  0.66977223426E+02 -0.11510941596E+02 -0.27598791998E+03  0.28423191624E+03  0.00000000000E+00 0. -1.
         22    1    1    2    0    0 -0.63398624426E+02  0.50974129457E+02  0.26360940184E+03  0.27587617547E+03  0.00000000000E+00 0.  1.
<mgrwt>
<rscale>  0 0.90786938E+03</rscale>
<asrwt>0</asrwt>
<pdfrwt beam="1">  1        2 0.42263240E-01 0.90786938E+03</pdfrwt>
<pdfrwt beam="2">  1       -2 0.11539772E+00 0.90786938E+03</pdfrwt>
<totfact> 0.71004584E+01</totfact>
</mgrwt>
</event>
<event>
 6    1  0.4630212E-004  0.4040980E+04  0.7818608E-02  0.7996330E-01
         -2   -1    0    0    0  501 -0.00000000000E+00  0.00000000000E+00  0.14709923092E+04  0.14709923092E+04  0.00000000000E+00 0. -1.
          2   -1    0    0  501    0  0.00000000000E+00 -0.00000000000E+00 -0.27752557778E+04  0.27752557778E+04  0.00000000000E+00 0.  1.
         23    2    1    2    0    0  0.21768984844E+03 -0.35102602138E+03 -0.27296776447E+04  0.27621949507E+04  0.89290336748E+02 0.  0.
         11    1    3    3    0    0  0.55308582253E+02 -0.13338877513E+03 -0.72796931963E+03  0.74215290535E+03  0.00000000000E+00 0.  1.
        -11    1    3    3    0    0  0.16238126619E+03 -0.21763724626E+03 -0.20017083250E+04  0.20200420454E+04  0.00000000000E+00 0. -1.
         22    1    1    2    0    0 -0.21768984844E+03  0.35102602138E+03  0.14254141760E+04  0.14840531362E+04  0.00000000000E+00 0. -1.
<mgrwt>
<rscale>  0 0.40409800E+04</rscale>
<asrwt>0</asrwt>
<pdfrwt beam="1">  1        2 0.42696243E+00 0.40409800E+04</pdfrwt>
<pdfrwt beam="2">  1       -2 0.22630651E+00 0.40409800E+04</pdfrwt>
<totfact> 0.16967335E-01</totfact>
</mgrwt>
</event>
<event>
 6    1  0.4630212E-004  0.1629231E+04  0.7818608E-02  0.8802789E-01
         -2   -1    0    0    0  501 -0.00000000000E+00  0.00000000000E+00  0.56027999861E+03  0.56027999861E+03  0.00000000000E+00 0. -1.
          2   -1    0    0  501    0  0.00000000000E+00 -0.00000000000E+00 -0.11844048450E+04  0.11844048450E+04  0.00000000000E+00 0.  1.
         23    2    1    2    0    0 -0.79838547781E+03 -0.14732131257E+03 -0.29449169497E+03  0.86845373548E+03  0.91452675963E+02 0.  0.
         11    1    3    3    0    0 -0.45995924221E+03 -0.65933791612E+02 -0.21199315511E+03  0.51073561379E+03  0.00000000000E+00 0.  1.
        -11    1    3    3    0    0 -0.33842623560E+03 -0.81387520955E+02 -0.82498539859E+02  0.35771812169E+03  0.00000000000E+00 0. -1.
         22    1    1    2    0    0  0.79838547781E+03  0.14732131257E+03 -0.32963315140E+03  0.87623110811E+03  0.00000000000E+00 0.  1.
<mgrwt>
<rscale>  0 0.16292309E+04</rscale>
<asrwt>0</asrwt>
<pdfrwt beam="1">  1        2 0.18221613E+00 0.16292309E+04</pdfrwt>
<pdfrwt beam="2">  1       -2 0.86196924E-01 0.16292309E+04</pdfrwt>
<totfact> 0.21613586E+01</totfact>
</mgrwt>
</event>
<event>
 6    1  0.4630212E-004  0.1883482E+04  0.7818608E-02  0.8663122E-01
          2   -1    0    0  501    0  0.00000000000E+00  0.00000000000E+00  0.15056295337E+04  0.15056295337E+04  0.00000000000E+00 0.  1.
         -2   -1    0    0    0  501 -0.00000000000E+00 -0.00000000000E+00 -0.58904015429E+03  0.58904015429E+03  0.00000000000E+00 0. -1.
         23    2    1    2    0    0 -0.72321882545E+03  0.28865555632E+03 -0.12538696675E+03  0.79386908618E+03  0.90214937166E+02 0.  0.
         13    1    3    3    0    0 -0.25149129974E+03  0.12294392761E+03 -0.83540840316E+02  0.29213379671E+03  0.00000000000E+00 0. -1.
        -13    1    3    3    0    0 -0.47172752571E+03  0.16571162870E+03 -0.41846126429E+02  0.50173528947E+03  0.00000000000E+00 0.  1.
         22    1    1    2    0    0  0.72321882545E+03 -0.28865555632E+03  0.10419763461E+04  0.13008006018E+04  0.00000000000E+00 0.  1.
<mgrwt>
<rscale>  0 0.18834822E+04</rscale>
<asrwt>0</asrwt>
<pdfrwt beam="1">  1        2 0.23163531E+00 0.18834822E+04</pdfrwt>
<pdfrwt beam="2">  1       -2 0.90621563E-01 0.18834822E+04</pdfrwt>
<totfact> 0.12292290E+01</totfact>
</mgrwt>
</event>
<event>
 6    1  0.4630212E-004  0.6679219E+03  0.7818608E-02  0.9773719E-01
          2   -1    0    0  501    0  0.00000000000E+00  0.00000000000E+00  0.33370862724E+04  0.33370862724E+04  0.00000000000E+00 0.  1.
         -2   -1    0    0    0  501 -0.00000000000E+00 -0.00000000000E+00 -0.33421350816E+02  0.33421350816E+02  0.00000000000E+00 0. -1.
         23    2    1    2    0    0 -0.28384864460E+03  0.84092877454E+02  0.23934343914E+04  0.24133444798E+04  0.89787120647E+02 0.  0.
         11    1    3    3    0    0 -0.99685208847E+02  0.73160798825E+02  0.85730842920E+03  0.86617976548E+03  0.00000000000E+00 0. -1.
        -11    1    3    3    0    0 -0.18416343576E+03  0.10932078628E+02  0.15361259622E+04  0.15471647143E+04  0.00000000000E+00 0.  1.
         22    1    1    2    0    0  0.28384864460E+03 -0.84092877454E+02  0.91023053015E+03  0.95716314341E+03  0.00000000000E+00 0. -1.
<mgrwt>
<rscale>  0 0.66792194E+03</rscale>
<asrwt>0</asrwt>
<pdfrwt beam="1">  1        2 0.51339763E+00 0.66792194E+03</pdfrwt>
<pdfrwt beam="2">  1       -2 0.51417489E-02 0.66792194E+03</pdfrwt>
<totfact> 0.22460711E+02</totfact>
</mgrwt>
</event>
<event>
 6    1  0.4630212E-004  0.2861416E+04  0.7818608E-02  0.8284451E-01
         -1   -1    0    0    0  501 -0.00000000000E+00  0.00000000000E+00  0.89807864721E+03  0.89807864721E+03  0.00000000000E+00 0. -1.
          1   -1    0    0  501    0  0.00000000000E+00 -0.00000000000E+00 -0.22792280562E+04  0.22792280562E+04  0.00000000000E+00 0.  1.
         23    2    1    2    0    0 -0.56091156741E+03  0.54522838911E+03 -0.20195090932E+04  0.21676538575E+04  0.91708700822E+02 0.  0.
         13    1    3    3    0    0 -0.94918266820E+02  0.92281888154E+02 -0.44597259429E+03  0.46520638336E+03  0.00000000000E+00 0. -1.
        -13    1    3    3    0    0 -0.46599330059E+03  0.45294650096E+03 -0.15735364989E+04  0.17024474742E+04  0.00000000000E+00 0.  1.
         22    1    1    2    0    0  0.56091156741E+03 -0.54522838911E+03  0.63835968421E+03  0.10096528459E+04  0.00000000000E+00 0. -1.
<mgrwt>
<rscale>  0 0.28614165E+04</rscale>
<asrwt>0</asrwt>
<pdfrwt beam="1">  1        1 0.35065046E+00 0.28614165E+04</pdfrwt>
<pdfrwt beam="2">  1       -1 0.13816595E+00 0.28614165E+04</pdfrwt>
<totfact> 0.71835476E-01</totfact>
</mgrwt>
</event>
<event>
 6    1  0.4630212E-004  0.3557817E+04  0.7818608E-02  0.8100223E-01
          2   -1    0    0  501    0  0.00000000000E+00  0.00000000000E+00  0.22988745918E+04  0.22988745918E+04  0.00000000000E+00 0.  1.
         -2   -1    0    0    0  501 -0.00000000000E+00 -0.00000000000E+00 -0.13765502183E+04  0.13765502183E+04  0.00000000000E+00 0. -1.
         23    2    1    2    0    0 -0.56203950757E+03 -0.10110149270E+04  0.18560813863E+04  0.21888375272E+04  0.89061872624E+02 0.  0.
         13    1    3    3    0    0 -0.40944521754E+03 -0.75673554047E+03  0.13067889666E+04  0.15646058506E+04  0.00000000000E+00 0. -1.
        -13    1    3    3    0    0 -0.15259429003E+03 -0.25427938656E+03  0.54929241971E+03  0.62423167665E+03  0.00000000000E+00 0.  1.
         22    1    1    2    0    0  0.56203950757E+03  0.10110149270E+04 -0.93375701284E+03  0.14865872829E+04  0.00000000000E+00 0. -1.
<mgrwt>
<rscale>  0 0.35578175E+04</rscale>
<asrwt>0</asrwt>
<pdfrwt beam="1">  1        2 0.35367301E+00 0.35578175E+04</pdfrwt>
<pdfrwt beam="2">  1       -2 0.21177696E+00 0.35578175E+04</pdfrwt>
<totfact> 0.41415185E-01</totfact>
</mgrwt>
</event>
<event>
 6    1  0.4630212E-004  0.3196659E+04  0.7818608E-02  0.8189700E-01
          2   -1    0    0  501    0  0.00000000000E+00  0.00000000000E+00  0.32349711426E+04  0.32349711426E+04  0.00000000000E+00 0.  1.
         -2   -1    0    0    0  501 -0.00000000000E+00 -0.00000000000E+00 -0.78969992570E+03  0.78969992570E+03  0.00000000000E+00 0. -1.
         23    2    1    2    0    0  0.11507678136E+04  0.95095649637E+03  0.50937793029E+03  0.15800304739E+04  0.91899966067E+02 0.  0.
         11    1    3    3    0    0  0.36444747575E+03  0.33004062245E+03  0.12882234378E+03  0.50827548761E+03  0.00000000000E+00 0. -1.
        -11    1    3    3    0    0  0.78632033782E+03  0.62091587392E+03  0.38055558651E+03  0.10717549863E+04  0.00000000000E+00 0.  1.
         22    1    1    2    0    0 -0.11507678136E+04 -0.95095649637E+03  0.19358932866E+04  0.24446405944E+04  0.00000000000E+00 0.  1.
<mgrwt>
<rscale>  0 0.31966585E+04</rscale>
<asrwt>0</asrwt>
<pdfrwt beam="1">  1        2 0.49768786E+00 0.31966585E+04</pdfrwt>
<pdfrwt beam="2">  1       -2 0.12149230E+00 0.31966585E+04</pdfrwt>
<totfact> 0.53295897E-01</totfact>
</mgrwt>
</event>
<event>
 6    1  0.4630212E-004  0.4491327E+04  0.7818608E-02  0.7912157E-01
          2   -1    0    0  501    0  0.00000000000E+00  0.00000000000E+00  0.33163702304E+04  0.33163702304E+04  0.00000000000E+00 0.  1.
         -2   -1    0    0    0  501 -0.00000000000E+00 -0.00000000000E+00 -0.15206398050E+04  0.15206398050E+04  0.00000000000E+00 0. -1.
         23    2    1    2    0    0 -0.46677170446E+03 -0.79662303585E+03 -0.13053455595E+04  0.16014024651E+04  0.89881811746E+02 0.  0.
         13    1    3    3    0    0 -0.24102097173E+03 -0.36693119927E+03 -0.55306718491E+03  0.70612528976E+03  0.00000000000E+00 0. -1.
        -13    1    3    3    0    0 -0.22575073273E+03 -0.42969183658E+03 -0.75227837461E+03  0.89527717533E+03  0.00000000000E+00 0.  1.
         22    1    1    2    0    0  0.46677170446E+03  0.79662303585E+03  0.31010759849E+04  0.32356075703E+04  0.00000000000E+00 0.  1.
<mgrwt>
<rscale>  0 0.44913270E+04</rscale>
<asrwt>0</asrwt>
<pdfrwt beam="1">  1        2 0.51021080E+00 0.44913270E+04</pdfrwt>
<pdfrwt beam="2">  1       -2 0.23394459E+00 0.44913270E+04</pdfrwt>
<totfact> 0.66439535E-02</totfact>
</mgrwt>
</event>
<event>
 6    1  0.4630212E-004  0.4417783E+04  0.7818608E-02  0.7925191E-01
         -2   -1    0    0    0  501 -0.00000000000E+00  0.00000000000E+00  0.16777639689E+04  0.16777639689E+04  0.00000000000E+00 0. -1.
          2   -1    0    0  501    0  0.00000000000E+00 -0.00000000000E+00 -0.29081578470E+04  0.29081578470E+04  0.00000000000E+00 0.  1.
         23    2    1    2    0    0 -0.17532963943E+04 -0.10470395149E+04 -0.14869702278E+04  0.25277256603E+04  0.89311608773E+02 0.  0.
         11    1    3    3    0    0 -0.62862161912E+03 -0.35906684792E+03 -0.47754209719E+03  0.86726039682E+03  0.00000000000E+00 0. -1.
        -11    1    3    3    0    0 -0.11246747752E+04 -0.68797266694E+03 -0.10094281306E+04  0.16604652635E+04  0.00000000000E+00 0.  1.
         22    1    1    2    0    0  0.17532963943E+04  0.10470395149E+04  0.25657634971E+03  0.20581961556E+04  0.00000000000E+00 0. -1.
<mgrwt>
<rscale>  0 0.44177834E+04</rscale>
<asrwt>0</asrwt>
<pdfrwt beam="1">  1        2 0.44740889E+00 0.44177834E+04</pdfrwt>
<pdfrwt beam="2">  1       -2 0.25811754E+00 0.44177834E+04</pdfrwt>
<totfact> 0.86753691E-02</totfact>
</mgrwt>
</event>
<event>
 6    1  0.4630212E-004  0.2187317E+04  0.7818608E-02  0.8523726E-01
         -2   -1    0    0    0  501 -0.00000000000E+00  0.00000000000E+00  0.38855220346E+03  0.38855220346E+03  0.00000000000E+00 0. -1.
          2   -1    0    0  501    0  0.00000000000E+00 -0.00000000000E+00 -0.30783226548E+04  0.30783226548E+04  0.00000000000E+00 0.  1.
         23    2    1    2    0    0  0.10391492988E+04  0.28936898531E+03 -0.16132530883E+04  0.19429144560E+04  0.93623615122E+02 0.  0.
         11    1    3    3    0    0  0.53239726565E+03  0.17458848147E+03 -0.90739672999E+03  0.10664411901E+04  0.00000000000E+00 0.  1.
        -11    1    3    3    0    0  0.50675203317E+03  0.11478050384E+03 -0.70585635835E+03  0.87647326588E+03  0.00000000000E+00 0. -1.
         22    1    1    2    0    0 -0.10391492988E+04 -0.28936898531E+03 -0.10765173630E+04  0.15239604023E+04  0.00000000000E+00 0.  1.
<mgrwt>
<rscale>  0 0.21873171E+04</rscale>
<asrwt>0</asrwt>
<pdfrwt beam="1">  1        2 0.47358810E+00 0.21873171E+04</pdfrwt>
<pdfrwt beam="2">  1       -2 0.59777262E-01 0.21873171E+04</pdfrwt>
<totfact> 0.37165971E+00</totfact>
</mgrwt>
</event>
<event>
 6    1  0.4630212E-004  0.3742469E+04  0.7818608E-02  0.8058615E-01
          1   -1    0    0  501    0  0.00000000000E+00  0.00000000000E+00  0.31860697986E+04  0.31860697986E+04  0.00000000000E+00 0.  1.
         -1   -1    0    0    0  501 -0.00000000000E+00 -0.00000000000E+00 -0.10990087721E+04  0.10990087721E+04  0.00000000000E+00 0. -1.
         23    2    1    2    0    0 -0.14294002902E+04 -0.12040578904E+04  0.11162712870E+04  0.21790459709E+04  0.96120568877E+02 0.  0.
         11    1    3    3    0    0 -0.11550755988E+04 -0.95205551977E+03  0.93376583573E+03  0.17642358084E+04  0.00000000000E+00 0. -1.
        -11    1    3    3    0    0 -0.27432469136E+03 -0.25200237064E+03  0.18250545131E+03  0.41481016243E+03  0.00000000000E+00 0.  1.
         22    1    1    2    0    0  0.14294002902E+04  0.12040578904E+04  0.97078973951E+03  0.21060325998E+04  0.00000000000E+00 0. -1.
<mgrwt>
<rscale>  0 0.37424691E+04</rscale>
<asrwt>0</asrwt>
<pdfrwt beam="1">  1        1 0.49016458E+00 0.37424691E+04</pdfrwt>
<pdfrwt beam="2">  1       -1 0.16907827E+00 0.37424691E+04</pdfrwt>
<totfact> 0.86925964E-02</totfact>
</mgrwt>
</event>
<event>
 6    1  0.4630212E-004  0.1547858E+04  0.7818608E-02  0.8853237E-01
          2   -1    0    0  501    0  0.00000000000E+00  0.00000000000E+00  0.11178596245E+04  0.11178596245E+04  0.00000000000E+00 0.  1.
         -2   -1    0    0    0  501 -0.00000000000E+00 -0.00000000000E+00 -0.53581482616E+03  0.53581482616E+03  0.00000000000E+00 0. -1.
         23    2    1    2    0    0  0.52106979961E+03 -0.32441861042E+03  0.79094209354E+03  0.10052924253E+04  0.90897162647E+02 0.  0.
         11    1    3    3    0    0  0.39216289953E+03 -0.20286232610E+03  0.59804038121E+03  0.74336879183E+03  0.00000000000E+00 0. -1.
        -11    1    3    3    0    0  0.12890690008E+03 -0.12155628433E+03  0.19290171233E+03  0.26192363346E+03  0.00000000000E+00 0.  1.
         22    1    1    2    0    0 -0.52106979961E+03  0.32441861042E+03 -0.20889729521E+03  0.64838202535E+03  0.00000000000E+00 0. -1.
<mgrwt>
<rscale>  0 0.15478576E+04</rscale>
<asrwt>0</asrwt>
<pdfrwt beam="1">  1        2 0.17197840E+00 0.15478576E+04</pdfrwt>
<pdfrwt beam="2">  1       -2 0.82433051E-01 0.15478576E+04</pdfrwt>
<totfact> 0.26422672E+01</totfact>
</mgrwt>
</event>
<event>
 6    1  0.4630212E-004  0.3939412E+04  0.7818608E-02  0.8016882E-01
         -2   -1    0    0    0  501 -0.00000000000E+00  0.00000000000E+00  0.19371153962E+04  0.19371153962E+04  0.00000000000E+00 0. -1.
          2   -1    0    0  501    0  0.00000000000E+00 -0.00000000000E+00 -0.20028451656E+04  0.20028451656E+04  0.00000000000E+00 0.  1.
         23    2    1    2    0    0  0.14866218478E+03 -0.83299510177E+03 -0.18106834415E+04  0.20006708458E+04  0.90155549481E+02 0.  0.
         13    1    3    3    0    0  0.56711839673E+02 -0.55124067287E+03 -0.11496142814E+04  0.12762035528E+04  0.00000000000E+00 0. -1.
        -13    1    3    3    0    0  0.91950345103E+02 -0.28175442889E+03 -0.66106916007E+03  0.72446729295E+03  0.00000000000E+00 0.  1.
         22    1    1    2    0    0 -0.14866218478E+03  0.83299510177E+03  0.17449536721E+04  0.19392897160E+04  0.00000000000E+00 0. -1.
<mgrwt>
<rscale>  0 0.39394122E+04</rscale>
<asrwt>0</asrwt>
<pdfrwt beam="1">  1        2 0.30813003E+00 0.39394122E+04</pdfrwt>
<pdfrwt beam="2">  1       -2 0.29801775E+00 0.39394122E+04</pdfrwt>
<totfact> 0.17248554E-01</totfact>
</mgrwt>
</event>
<event>
 6    1  0.4630212E-004  0.1158454E+04  0.7818608E-02  0.9150020E-01
         -1   -1    0    0    0  501 -0.00000000000E+00  0.00000000000E+00  0.42529818415E+03  0.42529818415E+03  0.00000000000E+00 0. -1.
          1   -1    0    0  501    0  0.00000000000E+00 -0.00000000000E+00 -0.78886724845E+03  0.78886724845E+03  0.00000000000E+00 0.  1.
         23    2    1    2    0    0 -0.16394680068E+03 -0.19108208406E+03 -0.72543546847E+03  0.77332735488E+03  0.91584183115E+02 0.  0.
         11    1    3    3    0    0 -0.84589160123E+02 -0.63558307462E+02 -0.41771279878E+03  0.43090482327E+03  0.00000000000E+00 0. -1.
        -11    1    3    3    0    0 -0.79357640555E+02 -0.12752377659E+03 -0.30772266969E+03  0.34242253161E+03  0.00000000000E+00 0.  1.
         22    1    1    2    0    0  0.16394680068E+03  0.19108208406E+03  0.36186640417E+03  0.44083807772E+03  0.00000000000E+00 0. -1.
<mgrwt>
<rscale>  0 0.11584538E+04</rscale>
<asrwt>0</asrwt>
<pdfrwt beam="1">  1        1 0.12136419E+00 0.11584538E+04</pdfrwt>
<pdfrwt beam="2">  1       -1 0.65430491E-01 0.11584538E+04</pdfrwt>
<totfact> 0.53158085E+01</totfact>
</mgrwt>
</event>
<event>
 6    1  0.4630212E-004  0.1241204E+04  0.7818608E-02  0.9077536E-01
         -2   -1    0    0    0  501 -0.00000000000E+00  0.00000000000E+00  0.25854818219E+03  0.25854818219E+03  0.00000000000E+00 0. -1.
          2   -1    0    0  501    0  0.00000000000E+00 -0.00000000000E+00 -0.14896520415E+04  0.14896520415E+04  0.00000000000E+00 0.  1.
         23    2    1    2    0    0 -0.24398845282E+03 -0.14763098290E+03 -0.13900880159E+04  0.14217017791E+04  0.86982667958E+02 0.  0.
         11    1    3    3    0    0 -0.18017224772E+03 -0.65827383084E+02 -0.98762906920E+03  0.10060847189E+04  0.00000000000E+00 0. -1.
        -11    1    3    3    0    0 -0.63816205100E+02 -0.81803599821E+02 -0.40245894674E+03  0.41561706027E+03  0.00000000000E+00 0.  1.
         22    1    1    2    0    0  0.24398845282E+03  0.14763098290E+03  0.15898415664E+03  0.32649844454E+03  0.00000000000E+00 0. -1.
<mgrwt>
<rscale>  0 0.12412040E+04</rscale>
<asrwt>0</asrwt>
<pdfrwt beam="1">  1        2 0.22917723E+00 0.12412040E+04</pdfrwt>
<pdfrwt beam="2">  1       -2 0.39776644E-01 0.12412040E+04</pdfrwt>
<totfact> 0.75670535E+01</totfact>
</mgrwt>
</event>
<event>
 6    1  0.4630212E-004  0.1797468E+04  0.7818608E-02  0.8707647E-01
         -2   -1    0    0    0  501 -0.00000000000E+00  0.00000000000E+00  0.42798567530E+03  0.42798567530E+03  0.00000000000E+00 0. -1.
          2   -1    0    0  501    0  0.00000000000E+00 -0.00000000000E+00 -0.18872669793E+04  0.18872669793E+04  0.00000000000E+00 0.  1.
         23    2    1    2    0    0  0.59418096398E+03 -0.63163369699E+03 -0.10242398048E+04  0.13450602762E+04  0.90043454757E+02 0.  0.
         11    1    3    3    0    0  0.89369425326E+02 -0.14660624416E+03 -0.20942397296E+03  0.27081116199E+03  0.00000000000E+00 0. -1.
        -11    1    3    3    0    0  0.50481153865E+03 -0.48502745284E+03 -0.81481583180E+03  0.10742491142E+04  0.00000000000E+00 0.  1.
         22    1    1    2    0    0 -0.59418096398E+03  0.63163369699E+03 -0.43504149927E+03  0.97019237846E+03  0.00000000000E+00 0.  1.
<mgrwt>
<rscale>  0 0.17974685E+04</rscale>
<asrwt>0</asrwt>
<pdfrwt beam="1">  1        2 0.29034877E+00 0.17974685E+04</pdfrwt>
<pdfrwt beam="2">  1       -2 0.65843950E-01 0.17974685E+04</pdfrwt>
<totfact> 0.15472914E+01</totfact>
</mgrwt>
</event>
<event>
 6    1  0.4630212E-004  0.2679778E+04  0.7818608E-02  0.8341596E-01
          2   -1    0    0  501    0  0.00000000000E+00  0.00000000000E+00  0.12629946868E+04  0.12629946868E+04  0.00000000000E+00 0.  1.
         -2   -1    0    0    0  501 -0.00000000000E+00 -0.00000000000E+00 -0.14214649687E+04  0.14214649687E+04  0.00000000000E+00 0. -1.
         23    2    1    2    0    0  0.65207490460E+03  0.70618508563E+03  0.85370018336E+03  0.12886129206E+04  0.88431893269E+02 0.  0.
         11    1    3    3    0    0  0.27063075475E+03  0.29099228586E+03  0.29545092575E+03  0.49518558680E+03  0.00000000000E+00 0. -1.
        -11    1    3    3    0    0  0.38144414985E+03  0.41519279977E+03  0.55824925760E+03  0.79342733382E+03  0.00000000000E+00 0.  1.
         22    1    1    2    0    0 -0.65207490460E+03 -0.70618508563E+03 -0.10121704652E+04  0.13958467348E+04  0.00000000000E+00 0. -1.
<mgrwt>
<rscale>  0 0.26797781E+04</rscale>
<asrwt>0</asrwt>
<pdfrwt beam="1">  1        2 0.19430688E+00 0.26797781E+04</pdfrwt>
<pdfrwt beam="2">  1       -2 0.21868692E+00 0.26797781E+04</pdfrwt>
<totfact> 0.15385851E+00</totfact>
</mgrwt>
</event>
<event>
 6    1  0.4630212E-004  0.5014126E+04  0.7818608E-02  0.7826332E-01
          2   -1    0    0  501    0  0.00000000000E+00  0.00000000000E+00  0.40694388188E+04  0.40694388188E+04  0.00000000000E+00 0.  1.
         -2   -1    0    0    0  501 -0.00000000000E+00 -0.00000000000E+00 -0.15445286634E+04  0.15445286634E+04  0.00000000000E+00 0. -1.
         23    2    1    2    0    0  0.12873411500E+04  0.74233522900E+03 -0.99627466970E+03  0.17920502406E+04  0.10282032205E+03 0.  0.
         11    1    3    3    0    0  0.46400150925E+03  0.31421936955E+03 -0.34027334057E+03  0.65560442272E+03  0.00000000000E+00 0. -1.
        -11    1    3    3    0    0  0.82333964075E+03  0.42811585945E+03 -0.65600132913E+03  0.11364458179E+04  0.00000000000E+00 0.  1.
         22    1    1    2    0    0 -0.12873411500E+04 -0.74233522900E+03  0.35211848251E+04  0.38219172416E+04  0.00000000000E+00 0.  1.
<mgrwt>
<rscale>  0 0.50141260E+04</rscale>
<asrwt>0</asrwt>
<pdfrwt beam="1">  1        2 0.62606751E+00 0.50141260E+04</pdfrwt>
<pdfrwt beam="2">  1       -2 0.23761980E+00 0.50141260E+04</pdfrwt>
<totfact> 0.16638020E-02</totfact>
</mgrwt>
</event>
<event>
 6    1  0.4630212E-004  0.1409222E+04  0.7818608E-02  0.8947170E-01
          2   -1    0    0  501    0  0.00000000000E+00  0.00000000000E+00  0.18616842057E+04  0.18616842057E+04  0.00000000000E+00 0.  1.
         -2   -1    0    0    0  501 -0.00000000000E+00 -0.00000000000E+00 -0.26668131144E+03  0.26668131144E+03  0.00000000000E+00 0. -1.
         23    2    1    2    0    0 -0.67362327019E+03  0.14907692420E+03  0.99424364961E+03  0.12135409933E+04  0.90382896864E+02 0.  0.
         13    1    3    3    0    0 -0.54331076802E+03  0.84953852980E+02  0.80761577388E+03  0.97706037992E+03  0.00000000000E+00 0. -1.
        -13    1    3    3    0    0 -0.13031250218E+03  0.64123071222E+02  0.18662787573E+03  0.23648061334E+03  0.00000000000E+00 0.  1.
         22    1    1    2    0    0  0.67362327019E+03 -0.14907692420E+03  0.60075924463E+03  0.91482452388E+03  0.00000000000E+00 0.  1.
<mgrwt>
<rscale>  0 0.14092216E+04</rscale>
<asrwt>0</asrwt>
<pdfrwt beam="1">  1        2 0.28641295E+00 0.14092216E+04</pdfrwt>
<pdfrwt beam="2">  1       -2 0.41027895E-01 0.14092216E+04</pdfrwt>
<totfact> 0.43650622E+01</totfact>
</mgrwt>
</event>
<event>
 6    1  0.5239616E-004  0.3160832E+04  0.7818608E-02  0.8199239E-01
         -2   -1    0    0    0  501 -0.00000000000E+00  0.00000000000E+00  0.14977502139E+04  0.14977502139E+04  0.00000000000E+00 0. -1.
          2   -1    0    0  501    0  0.00000000000E+00 -0.00000000000E+00 -0.16676444231E+04  0.16676444231E+04  0.00000000000E+00 0.  1.
         23    2    1    2    0    0  0.43900565381E+02 -0.91820864122E+03 -0.13707376520E+04  0.16530919747E+04  0.93578831746E+02 0.  0.
         13    1    3    3    0    0  0.49733154031E+02 -0.41581972825E+03 -0.55945926669E+03  0.69883768079E+03  0.00000000000E+00 0. -1.
        -13    1    3    3    0    0 -0.58325886503E+01 -0.50238891298E+03 -0.81127838531E+03  0.95425429391E+03  0.00000000000E+00 0.  1.
         22    1    1    2    0    0 -0.43900565381E+02  0.91820864122E+03  0.12008434428E+04  0.15123026624E+04  0.00000000000E+00 0. -1.
<mgrwt>
<rscale>  0 0.31608320E+04</rscale>
<asrwt>0</asrwt>
<pdfrwt beam="1">  1        2 0.25656068E+00 0.31608320E+04</pdfrwt>
<pdfrwt beam="2">  1       -2 0.23042311E+00 0.31608320E+04</pdfrwt>
<totfact> 0.73390997E-01</totfact>
</mgrwt>
</event>
<event>
 6    1  0.4630212E-004  0.2885700E+04  0.7818608E-02  0.8277145E-01
          2   -1    0    0  501    0  0.00000000000E+00  0.00000000000E+00  0.21012597864E+04  0.21012597864E+04  0.00000000000E+00 0.  1.
         -2   -1    0    0    0  501 -0.00000000000E+00 -0.00000000000E+00 -0.99074700204E+03  0.99074700204E+03  0.00000000000E+00 0. -1.
         23    2    1    2    0    0  0.41901183965E+03  0.16231277758E+03  0.20234076948E+04  0.20745130650E+04  0.86656780793E+02 0.  0.
         11    1    3    3    0    0  0.10258649224E+03  0.34959573763E+01  0.51258043549E+03  0.52275703052E+03  0.00000000000E+00 0.  1.
        -11    1    3    3    0    0  0.31642534741E+03  0.15881682020E+03  0.15108272594E+04  0.15517560345E+04  0.00000000000E+00 0. -1.
         22    1    1    2    0    0 -0.41901183965E+03 -0.16231277758E+03 -0.91289491053E+03  0.10174937234E+04  0.00000000000E+00 0. -1.
<mgrwt>
<rscale>  0 0.28857005E+04</rscale>
<asrwt>0</asrwt>
<pdfrwt beam="1">  1        2 0.32327074E+00 0.28857005E+04</pdfrwt>
<pdfrwt beam="2">  1       -2 0.15242262E+00 0.28857005E+04</pdfrwt>
<totfact> 0.14554141E+00</totfact>
</mgrwt>
</event>
<event>
 6    1  0.4630212E-004  0.1015302E+04  0.7818608E-02  0.9291920E-01
         -2   -1    0    0    0  501 -0.00000000000E+00  0.00000000000E+00  0.19033324369E+03  0.19033324369E+03  0.00000000000E+00 0. -1.
          2   -1    0    0  501    0  0.00000000000E+00 -0.00000000000E+00 -0.13539905717E+04  0.13539905717E+04  0.00000000000E+00 0.  1.
         23    2    1    2    0    0 -0.21468656351E+03 -0.42964221853E+03 -0.81701819681E+03  0.95200511420E+03  0.90068013440E+02 0.  0.
         11    1    3    3    0    0 -0.64743561850E+02 -0.21134617795E+03 -0.32148731636E+03  0.39014488375E+03  0.00000000000E+00 0.  1.
        -11    1    3    3    0    0 -0.14994300166E+03 -0.21829604057E+03 -0.49553088045E+03  0.56186023045E+03  0.00000000000E+00 0. -1.
         22    1    1    2    0    0  0.21468656351E+03  0.42964221853E+03 -0.34663913118E+03  0.59231870117E+03  0.00000000000E+00 0. -1.
<mgrwt>
<rscale>  0 0.10153018E+04</rscale>
<asrwt>0</asrwt>
<pdfrwt beam="1">  1        2 0.20830625E+00 0.10153018E+04</pdfrwt>
<pdfrwt beam="2">  1       -2 0.29282037E-01 0.10153018E+04</pdfrwt>
<totfact> 0.16439444E+02</totfact>
</mgrwt>
</event>
<event>
 6    1  0.4630212E-004  0.4197256E+04  0.7818608E-02  0.7965894E-01
         -2   -1    0    0    0  501 -0.00000000000E+00  0.00000000000E+00  0.14708232678E+04  0.14708232678E+04  0.00000000000E+00 0.  1.
          2   -1    0    0  501    0  0.00000000000E+00 -0.00000000000E+00 -0.29944046029E+04  0.29944046029E+04  0.00000000000E+00 0. -1.
         23    2    1    2    0    0  0.51262604772E+03  0.18208422876E+04 -0.17265670247E+04  0.25627412632E+04  0.91416574490E+02 0.  0.
         13    1    3    3    0    0  0.21830224223E+03  0.68491298534E+03 -0.70627531489E+03  0.10077631105E+04  0.00000000000E+00 0. -1.
        -13    1    3    3    0    0  0.29432380549E+03  0.11359293023E+04 -0.10202917099E+04  0.15549781527E+04  0.00000000000E+00 0.  1.
         22    1    1    2    0    0 -0.51262604772E+03 -0.18208422876E+04  0.20298568959E+03  0.19024866074E+04  0.00000000000E+00 0.  1.
<mgrwt>
<rscale>  0 0.41972562E+04</rscale>
<asrwt>0</asrwt>
<pdfrwt beam="1">  1        2 0.46067762E+00 0.41972562E+04</pdfrwt>
<pdfrwt beam="2">  1       -2 0.22628051E+00 0.41972562E+04</pdfrwt>
<totfact> 0.12288343E-01</totfact>
</mgrwt>
</event>
<event>
 6    1  0.4630212E-004  0.1492430E+04  0.7818608E-02  0.8889502E-01
          2   -1    0    0  501    0  0.00000000000E+00  0.00000000000E+00  0.53442377736E+03  0.53442377736E+03  0.00000000000E+00 0.  1.
         -2   -1    0    0    0  501 -0.00000000000E+00 -0.00000000000E+00 -0.10419388523E+04  0.10419388523E+04  0.00000000000E+00 0. -1.
         23    2    1    2    0    0 -0.51927048031E+03 -0.15731413827E+03 -0.79142697520E+03  0.96399383810E+03  0.92400719652E+02 0.  0.
         11    1    3    3    0    0 -0.23733510765E+03 -0.64558472233E+02 -0.43929274124E+03  0.50346187757E+03  0.00000000000E+00 0. -1.
        -11    1    3    3    0    0 -0.28193537267E+03 -0.92755666039E+02 -0.35213423396E+03  0.46053196053E+03  0.00000000000E+00 0.  1.
         22    1    1    2    0    0  0.51927048031E+03  0.15731413827E+03  0.28391190023E+03  0.61236879159E+03  0.00000000000E+00 0.  1.
<mgrwt>
<rscale>  0 0.14924301E+04</rscale>
<asrwt>0</asrwt>
<pdfrwt beam="1">  1        2 0.82219043E-01 0.14924301E+04</pdfrwt>
<pdfrwt beam="2">  1       -2 0.16029828E+00 0.14924301E+04</pdfrwt>
<totfact> 0.13786186E+01</totfact>
</mgrwt>
</event>
<event>
 6    1  0.4630212E-004  0.2616973E+04  0.7818608E-02  0.8362459E-01
         -2   -1    0    0    0  501 -0.00000000000E+00  0.00000000000E+00  0.11297013783E+04  0.11297013783E+04  0.00000000000E+00 0. -1.
          2   -1    0    0  501    0  0.00000000000E+00 -0.00000000000E+00 -0.15155655232E+04  0.15155655232E+04  0.00000000000E+00 0.  1.
         23    2    1    2    0    0  0.43719647110E+03  0.72078824615E+03 -0.12025948027E+04  0.14715014149E+04  0.91682627963E+02 0.  0.
         11    1    3    3    0    0  0.11001936836E+03  0.21922392686E+03 -0.28797469708E+03  0.37827611302E+03  0.00000000000E+00 0. -1.
        -11    1    3    3    0    0  0.32717710274E+03  0.50156431929E+03 -0.91462010563E+03  0.10932253018E+04  0.00000000000E+00 0.  1.
         22    1    1    2    0    0 -0.43719647110E+03 -0.72078824615E+03  0.81673065780E+03  0.11737654866E+04  0.00000000000E+00 0. -1.
<mgrwt>
<rscale>  0 0.26169726E+04</rscale>
<asrwt>0</asrwt>
<pdfrwt beam="1">  1        2 0.23316392E+00 0.26169726E+04</pdfrwt>
<pdfrwt beam="2">  1       -2 0.17380021E+00 0.26169726E+04</pdfrwt>
<totfact> 0.22016503E+00</totfact>
</mgrwt>
</event>
<event>
 6    1  0.4630212E-004  0.2502097E+04  0.7818608E-02  0.8402239E-01
          2   -1    0    0  501    0  0.00000000000E+00  0.00000000000E+00  0.19685040242E+04  0.19685040242E+04  0.00000000000E+00 0. -1.
         -2   -1    0    0    0  501 -0.00000000000E+00 -0.00000000000E+00 -0.79508220276E+03  0.79508220276E+03  0.00000000000E+00 0.  1.
         23    2    1    2    0    0 -0.53937541995E+03  0.35934202911E+03 -0.59290796450E+03  0.88210451026E+03  0.80721590186E+02 0.  0.
         13    1    3    3    0    0 -0.17354114434E+03  0.16120656038E+03 -0.20425839308E+03  0.31277080272E+03  0.00000000000E+00 0. -1.
        -13    1    3    3    0    0 -0.36583427561E+03  0.19813546873E+03 -0.38864957142E+03  0.56933370754E+03  0.00000000000E+00 0.  1.
         22    1    1    2    0    0  0.53937541995E+03 -0.35934202911E+03  0.17663297859E+04  0.18814817167E+04  0.00000000000E+00 0. -1.
<mgrwt>
<rscale>  0 0.25020971E+04</rscale>
<asrwt>0</asrwt>
<pdfrwt beam="1">  1        2 0.30284677E+00 0.25020971E+04</pdfrwt>
<pdfrwt beam="2">  1       -2 0.12232034E+00 0.25020971E+04</pdfrwt>
<totfact> 0.31403123E+00</totfact>
</mgrwt>
</event>
<event>
 6    1  0.4630212E-004  0.2291107E+04  0.7818608E-02  0.8481436E-01
         -2   -1    0    0    0  501 -0.00000000000E+00  0.00000000000E+00  0.35049843331E+03  0.35049843331E+03  0.00000000000E+00 0. -1.
          2   -1    0    0  501    0  0.00000000000E+00 -0.00000000000E+00 -0.37440765641E+04  0.37440765641E+04  0.00000000000E+00 0.  1.
         23    2    1    2    0    0  0.82785485441E+02  0.90616731430E+03 -0.46167672456E+03  0.10247153110E+04  0.94358002119E+02 0.  0.
         11    1    3    3    0    0  0.63794915389E+02  0.56939042136E+03 -0.24065885606E+03  0.62144342314E+03  0.00000000000E+00 0. -1.
        -11    1    3    3    0    0  0.18990570051E+02  0.33677689294E+03 -0.22101786850E+03  0.40327188790E+03  0.00000000000E+00 0.  1.
         22    1    1    2    0    0 -0.82785485441E+02 -0.90616731430E+03 -0.29319014063E+04  0.30698596864E+04  0.00000000000E+00 0.  1.
<mgrwt>
<rscale>  0 0.22911071E+04</rscale>
<asrwt>0</asrwt>
<pdfrwt beam="1">  1        2 0.57601176E+00 0.22911071E+04</pdfrwt>
<pdfrwt beam="2">  1       -2 0.53922838E-01 0.22911071E+04</pdfrwt>
<totfact> 0.15973523E+00</totfact>
</mgrwt>
</event>
<event>
 6    1  0.4630212E-004  0.3140466E+04  0.7818608E-02  0.8204719E-01
          2   -1    0    0  501    0  0.00000000000E+00  0.00000000000E+00  0.27671583838E+04  0.27671583838E+04  0.00000000000E+00 0.  1.
         -2   -1    0    0    0  501 -0.00000000000E+00 -0.00000000000E+00 -0.89103399070E+03  0.89103399070E+03  0.00000000000E+00 0. -1.
         23    2    1    2    0    0 -0.23290016867E+02  0.15213334151E+04  0.49294715774E+03  0.16019392167E+04  0.90634259494E+02 0.  0.
         13    1    3    3    0    0 -0.30918180406E+02  0.93438574085E+03  0.34560361812E+03  0.99673191353E+03  0.00000000000E+00 0. -1.
        -13    1    3    3    0    0  0.76281635395E+01  0.58694767420E+03  0.14734353961E+03  0.60520730316E+03  0.00000000000E+00 0.  1.
         22    1    1    2    0    0  0.23290016867E+02 -0.15213334151E+04  0.13831772354E+04  0.20562531579E+04  0.00000000000E+00 0. -1.
<mgrwt>
<rscale>  0 0.31404663E+04</rscale>
<asrwt>0</asrwt>
<pdfrwt beam="1">  1        2 0.42571667E+00 0.31404663E+04</pdfrwt>
<pdfrwt beam="2">  1       -2 0.13708215E+00 0.31404663E+04</pdfrwt>
<totfact> 0.77658728E-01</totfact>
</mgrwt>
</event>
<event>
 6    1  0.4630212E-004  0.5929570E+04  0.7818608E-02  0.7699196E-01
         -2   -1    0    0    0  501 -0.00000000000E+00  0.00000000000E+00  0.20704750641E+04  0.20704750641E+04  0.00000000000E+00 0. -1.
          2   -1    0    0  501    0  0.00000000000E+00 -0.00000000000E+00 -0.42453779562E+04  0.42453779562E+04  0.00000000000E+00 0.  1.
         23    2    1    2    0    0 -0.58993813312E+03 -0.19842464426E+04 -0.33473656118E+04  0.39367923286E+04  0.90644107134E+02 0.  0.
         13    1    3    3    0    0 -0.46429492557E+03 -0.16353779237E+04 -0.27992847709E+04  0.32750612147E+04  0.00000000000E+00 0. -1.
        -13    1    3    3    0    0 -0.12564320754E+03 -0.34886851881E+03 -0.54808084090E+03  0.66173111396E+03  0.00000000000E+00 0.  1.
         22    1    1    2    0    0  0.58993813312E+03  0.19842464426E+04  0.11724627197E+04  0.23790606917E+04  0.00000000000E+00 0. -1.
<mgrwt>
<rscale>  0 0.59295697E+04</rscale>
<asrwt>0</asrwt>
<pdfrwt beam="1">  1        2 0.65313506E+00 0.59295697E+04</pdfrwt>
<pdfrwt beam="2">  1       -2 0.31853463E+00 0.59295697E+04</pdfrwt>
<totfact> 0.34829906E-03</totfact>
</mgrwt>
</event>
<event>
 6    1  0.4630212E-004  0.2809690E+04  0.7818608E-02  0.8300266E-01
          1   -1    0    0  501    0  0.00000000000E+00  0.00000000000E+00  0.16337247487E+04  0.16337247487E+04  0.00000000000E+00 0. -1.
         -1   -1    0    0    0  501 -0.00000000000E+00 -0.00000000000E+00 -0.12080306599E+04  0.12080306599E+04  0.00000000000E+00 0.  1.
         23    2    1    2    0    0 -0.13517782795E+04  0.26423788113E+03  0.47926273666E+03  0.14633520661E+04  0.12074901104E+03 0.  0.
         13    1    3    3    0    0 -0.68057418437E+03  0.18963970901E+03  0.27000839784E+03  0.75633919280E+03  0.00000000000E+00 0.  1.
        -13    1    3    3    0    0 -0.67120409514E+03  0.74598172125E+02  0.20925433882E+03  0.70701287325E+03  0.00000000000E+00 0. -1.
         22    1    1    2    0    0  0.13517782795E+04 -0.26423788113E+03 -0.53568647919E+02  0.13784033426E+04  0.00000000000E+00 0.  1.
<mgrwt>
<rscale>  0 0.28096901E+04</rscale>
<asrwt>0</asrwt>
<pdfrwt beam="1">  1        1 0.25134227E+00 0.28096901E+04</pdfrwt>
<pdfrwt beam="2">  1       -1 0.18585087E+00 0.28096901E+04</pdfrwt>
<totfact> 0.86507806E-01</totfact>
</mgrwt>
</event>
<event>
 6    1  0.4630212E-004  0.1229906E+04  0.7818608E-02  0.9087075E-01
          2   -1    0    0  501    0  0.00000000000E+00  0.00000000000E+00  0.14348236190E+04  0.14348236190E+04  0.00000000000E+00 0.  1.
         -2   -1    0    0    0  501 -0.00000000000E+00 -0.00000000000E+00 -0.26356365307E+03  0.26356365307E+03  0.00000000000E+00 0. -1.
         23    2    1    2    0    0  0.39393341222E+03  0.16676491066E+03  0.11923919009E+04  0.12700875787E+04  0.91268523703E+02 0.  0.
         11    1    3    3    0    0  0.15067003843E+03  0.11276421296E+03  0.50616218603E+03  0.54001609862E+03  0.00000000000E+00 0. -1.
        -11    1    3    3    0    0  0.24326337378E+03  0.54000697700E+02  0.68622971490E+03  0.73007148006E+03  0.00000000000E+00 0.  1.
         22    1    1    2    0    0 -0.39393341222E+03 -0.16676491066E+03 -0.21131934993E+02  0.42829969340E+03  0.00000000000E+00 0.  1.
<mgrwt>
<rscale>  0 0.12299063E+04</rscale>
<asrwt>0</asrwt>
<pdfrwt beam="1">  1        2 0.22074209E+00 0.12299063E+04</pdfrwt>
<pdfrwt beam="2">  1       -2 0.40548255E-01 0.12299063E+04</pdfrwt>
<totfact> 0.78343735E+01</totfact>
</mgrwt>
</event>
<event>
 6    1  0.4630212E-004  0.9801959E+03  0.7818608E-02  0.9330536E-01
          2   -1    0    0  501    0  0.00000000000E+00  0.00000000000E+00  0.68376609975E+03  0.68376609975E+03  0.00000000000E+00 0.  1.
         -2   -1    0    0    0  501 -0.00000000000E+00 -0.00000000000E+00 -0.35128384659E+03  0.35128384659E+03  0.00000000000E+00 0. -1.
         23    2    1    2    0    0 -0.76214809224E+02 -0.46459798399E+03  0.41280756607E+02  0.48146319121E+03  0.91884273672E+02 0.  0.
         11    1    3    3    0    0 -0.96614555917E+02 -0.37349088888E+03  0.24135301181E+02  0.38653891040E+03  0.00000000000E+00 0. -1.
        -11    1    3    3    0    0  0.20399746694E+02 -0.91107095111E+02  0.17145455426E+02  0.94924280806E+02  0.00000000000E+00 0.  1.
         22    1    1    2    0    0  0.76214809224E+02  0.46459798399E+03  0.29120149655E+03  0.55358675514E+03  0.00000000000E+00 0. -1.
<mgrwt>
<rscale>  0 0.98019587E+03</rscale>
<asrwt>0</asrwt>
<pdfrwt beam="1">  1        2 0.10519478E+00 0.98019587E+03</pdfrwt>
<pdfrwt beam="2">  1       -2 0.54043669E-01 0.98019587E+03</pdfrwt>
<totfact> 0.13605255E+02</totfact>
</mgrwt>
</event>
<event>
 6    1  0.4630212E-004  0.3702776E+04  0.7818608E-02  0.8067347E-01
          2   -1    0    0  501    0  0.00000000000E+00  0.00000000000E+00  0.35829081201E+04  0.35829081201E+04  0.00000000000E+00 0.  1.
         -2   -1    0    0    0  501 -0.00000000000E+00 -0.00000000000E+00 -0.95666348036E+03  0.95666348036E+03  0.00000000000E+00 0. -1.
         23    2    1    2    0    0 -0.13162873322E+04 -0.40101615078E+03 -0.20257629050E+03  0.13938357327E+04  0.91184440329E+02 0.  0.
         11    1    3    3    0    0 -0.84293492482E+03 -0.28951617229E+03 -0.16165602605E+03  0.90580989853E+03  0.00000000000E+00 0.  1.
        -11    1    3    3    0    0 -0.47335240740E+03 -0.11149997849E+03 -0.40920264450E+02  0.48802583419E+03  0.00000000000E+00 0. -1.
         22    1    1    2    0    0  0.13162873322E+04  0.40101615078E+03  0.28288209302E+04  0.31457358677E+04  0.00000000000E+00 0.  1.
<mgrwt>
<rscale>  0 0.37027759E+04</rscale>
<asrwt>0</asrwt>
<pdfrwt beam="1">  1        2 0.55121663E+00 0.37027759E+04</pdfrwt>
<pdfrwt beam="2">  1       -2 0.14717900E+00 0.37027759E+04</pdfrwt>
<totfact> 0.18048188E-01</totfact>
</mgrwt>
</event>
<event>
 6    1  0.4630212E-004  0.3764497E+04  0.7818608E-02  0.8053817E-01
         -2   -1    0    0    0  501 -0.00000000000E+00  0.00000000000E+00  0.89456471216E+03  0.89456471216E+03  0.00000000000E+00 0. -1.
          2   -1    0    0  501    0  0.00000000000E+00 -0.00000000000E+00 -0.39604292817E+04  0.39604292817E+04  0.00000000000E+00 0.  1.
         23    2    1    2    0    0  0.16044416409E+04 -0.57437666170E+03 -0.25612903303E+04  0.30777104793E+04  0.89174602940E+02 0.  0.
         11    1    3    3    0    0  0.71178199124E+03 -0.20926425766E+03 -0.11330135131E+04  0.13543060044E+04  0.00000000000E+00 0.  1.
        -11    1    3    3    0    0  0.89265964961E+03 -0.36511240404E+03 -0.14282768172E+04  0.17234044749E+04  0.00000000000E+00 0. -1.
         22    1    1    2    0    0 -0.16044416409E+04  0.57437666170E+03 -0.50457423930E+03  0.17772835146E+04  0.00000000000E+00 0. -1.
<mgrwt>
<rscale>  0 0.37644975E+04</rscale>
<asrwt>0</asrwt>
<pdfrwt beam="1">  1        2 0.60929682E+00 0.37644975E+04</pdfrwt>
<pdfrwt beam="2">  1       -2 0.13762534E+00 0.37644975E+04</pdfrwt>
<totfact> 0.11080932E-01</totfact>
</mgrwt>
</event>
<event>
 6    1  0.4630212E-004  0.1694092E+04  0.7818608E-02  0.8764741E-01
          2   -1    0    0  501    0  0.00000000000E+00  0.00000000000E+00  0.29541982059E+04  0.29541982059E+04  0.00000000000E+00 0.  1.
         -2   -1    0    0    0  501 -0.00000000000E+00 -0.00000000000E+00 -0.24287033435E+03  0.24287033435E+03  0.00000000000E+00 0. -1.
         23    2    1    2    0    0  0.25877925038E+03 -0.75130945086E+03  0.18993489597E+04  0.20609601191E+04  0.92722976322E+02 0.  0.
         11    1    3    3    0    0  0.14744470964E+03 -0.42865309483E+03  0.96344711222E+03  0.10647599524E+04  0.00000000000E+00 0.  1.
        -11    1    3    3    0    0  0.11133454074E+03 -0.32265635603E+03  0.93590184750E+03  0.99620016673E+03  0.00000000000E+00 0. -1.
         22    1    1    2    0    0 -0.25877925038E+03  0.75130945086E+03  0.81197891186E+03  0.11361084212E+04  0.00000000000E+00 0. -1.
<mgrwt>
<rscale>  0 0.16940922E+04</rscale>
<asrwt>0</asrwt>
<pdfrwt beam="1">  1        2 0.45449201E+00 0.16940922E+04</pdfrwt>
<pdfrwt beam="2">  1       -2 0.37364669E-01 0.16940922E+04</pdfrwt>
<totfact> 0.12012393E+01</totfact>
</mgrwt>
</event>
<event>
 6    1  0.4630212E-004  0.2839847E+04  0.7818608E-02  0.8291003E-01
          2   -1    0    0  501    0  0.00000000000E+00  0.00000000000E+00  0.29061375365E+04  0.29061375365E+04  0.00000000000E+00 0.  1.
         -2   -1    0    0    0  501 -0.00000000000E+00 -0.00000000000E+00 -0.69376731497E+03  0.69376731497E+03  0.00000000000E+00 0. -1.
         23    2    1    2    0    0  0.50796403207E+03  0.12978966772E+04  0.77388854203E+03  0.15969588250E+04  0.93865706408E+02 0.  0.
         13    1    3    3    0    0  0.30201144912E+03  0.81048662070E+03  0.52927304209E+03  0.10140164845E+04  0.00000000000E+00 0.  1.
        -13    1    3    3    0    0  0.20595258295E+03  0.48741005649E+03  0.24461549994E+03  0.58294234055E+03  0.00000000000E+00 0. -1.
         22    1    1    2    0    0 -0.50796403207E+03 -0.12978966772E+04  0.14384816795E+04  0.20029460264E+04  0.00000000000E+00 0. -1.
<mgrwt>
<rscale>  0 0.28398473E+04</rscale>
<asrwt>0</asrwt>
<pdfrwt beam="1">  1        2 0.44709808E+00 0.28398473E+04</pdfrwt>
<pdfrwt beam="2">  1       -2 0.10673343E+00 0.28398473E+04</pdfrwt>
<totfact> 0.12201831E+00</totfact>
</mgrwt>
</event>
<event>
 6    1  0.4630212E-004  0.1455411E+04  0.7818608E-02  0.8914658E-01
         -2   -1    0    0    0  501 -0.00000000000E+00  0.00000000000E+00  0.26754309063E+03  0.26754309063E+03  0.00000000000E+00 0. -1.
          2   -1    0    0  501    0  0.00000000000E+00 -0.00000000000E+00 -0.19793278715E+04  0.19793278715E+04  0.00000000000E+00 0.  1.
         23    2    1    2    0    0  0.26003241129E+02  0.62864507566E+03 -0.14149261549E+04  0.15511728641E+04  0.90831883045E+02 0.  0.
         11    1    3    3    0    0  0.30295698879E+02  0.20526865152E+03 -0.37939306222E+03  0.43242588304E+03  0.00000000000E+00 0.  1.
        -11    1    3    3    0    0 -0.42924577499E+01  0.42337642414E+03 -0.10355330927E+04  0.11187469811E+04  0.00000000000E+00 0. -1.
         22    1    1    2    0    0 -0.26003241129E+02 -0.62864507566E+03 -0.29685862596E+03  0.69569809796E+03  0.00000000000E+00 0. -1.
<mgrwt>
<rscale>  0 0.14554113E+04</rscale>
<asrwt>0</asrwt>
<pdfrwt beam="1">  1        2 0.30451198E+00 0.14554113E+04</pdfrwt>
<pdfrwt beam="2">  1       -2 0.41160475E-01 0.14554113E+04</pdfrwt>
<totfact> 0.37198418E+01</totfact>
</mgrwt>
</event>
<event>
 6    1  0.4630212E-004  0.1770594E+04  0.7818608E-02  0.8722095E-01
         -2   -1    0    0    0  501 -0.00000000000E+00  0.00000000000E+00  0.14422572488E+04  0.14422572488E+04  0.00000000000E+00 0. -1.
          2   -1    0    0  501    0  0.00000000000E+00 -0.00000000000E+00 -0.54341953896E+03  0.54341953896E+03  0.00000000000E+00 0.  1.
         23    2    1    2    0    0  0.14755585894E+03 -0.23047618221E+02  0.14265270568E+04  0.14372609136E+04  0.91845335319E+02 0.  0.
         11    1    3    3    0    0  0.73064318602E+02  0.56962424960E+01  0.10396863226E+04  0.10422660367E+04  0.00000000000E+00 0. -1.
        -11    1    3    3    0    0  0.74491540334E+02 -0.28743860717E+02  0.38684073424E+03  0.39499487690E+03  0.00000000000E+00 0.  1.
         22    1    1    2    0    0 -0.14755585894E+03  0.23047618221E+02 -0.52768934695E+03  0.54841587422E+03  0.00000000000E+00 0.  1.
<mgrwt>
<rscale>  0 0.17705940E+04</rscale>
<asrwt>0</asrwt>
<pdfrwt beam="1">  1        2 0.83603007E-01 0.17705940E+04</pdfrwt>
<pdfrwt beam="2">  1       -2 0.22188573E+00 0.17705940E+04</pdfrwt>
<totfact> 0.50777837E+00</totfact>
</mgrwt>
</event>
<event>
 6    1  0.4630212E-004  0.4220240E+04  0.7818608E-02  0.7961533E-01
         -2   -1    0    0    0  501 -0.00000000000E+00  0.00000000000E+00  0.15118111142E+04  0.15118111142E+04  0.00000000000E+00 0. -1.
          2   -1    0    0  501    0  0.00000000000E+00 -0.00000000000E+00 -0.29452128220E+04  0.29452128220E+04  0.00000000000E+00 0.  1.
         23    2    1    2    0    0 -0.28856667897E+03 -0.18769626323E+04  0.25199449155E+03  0.19179650948E+04  0.93965047236E+02 0.  0.
         11    1    3    3    0    0 -0.20201619973E+03 -0.10121619634E+04  0.14622843505E+03  0.10424323193E+04  0.00000000000E+00 0. -1.
        -11    1    3    3    0    0 -0.86550479243E+02 -0.86480066885E+03  0.10576605651E+03  0.87553277552E+03  0.00000000000E+00 0.  1.
         22    1    1    2    0    0  0.28856667897E+03  0.18769626323E+04 -0.16853961994E+04  0.25390588414E+04  0.00000000000E+00 0.  1.
<mgrwt>
<rscale>  0 0.42202396E+04</rscale>
<asrwt>0</asrwt>
<pdfrwt beam="1">  1        2 0.45310966E+00 0.42202396E+04</pdfrwt>
<pdfrwt beam="2">  1       -2 0.23258633E+00 0.42202396E+04</pdfrwt>
<totfact> 0.12020289E-01</totfact>
</mgrwt>
</event>
<event>
 6    1  0.4630212E-004  0.3090986E+04  0.7818608E-02  0.8218216E-01
          2   -1    0    0  501    0  0.00000000000E+00  0.00000000000E+00  0.16620228225E+04  0.16620228225E+04  0.00000000000E+00 0.  1.
         -2   -1    0    0    0  501 -0.00000000000E+00 -0.00000000000E+00 -0.14371335546E+04  0.14371335546E+04  0.00000000000E+00 0. -1.
         23    2    1    2    0    0 -0.70974054231E+02  0.12981495406E+04 -0.72281127086E+03  0.14903164668E+04  0.91419318817E+02 0.  0.
         11    1    3    3    0    0 -0.38868526228E+02  0.48831996915E+03 -0.22398612411E+03  0.53864360982E+03  0.00000000000E+00 0. -1.
        -11    1    3    3    0    0 -0.32105528003E+02  0.80982957141E+03 -0.49882514675E+03  0.95167285697E+03  0.00000000000E+00 0.  1.
         22    1    1    2    0    0  0.70974054231E+02 -0.12981495406E+04  0.94770053877E+03  0.16088399104E+04  0.00000000000E+00 0.  1.
<mgrwt>
<rscale>  0 0.30909861E+04</rscale>
<asrwt>0</asrwt>
<pdfrwt beam="1">  1        2 0.25569582E+00 0.30909861E+04</pdfrwt>
<pdfrwt beam="2">  1       -2 0.22109747E+00 0.30909861E+04</pdfrwt>
<totfact> 0.85099468E-01</totfact>
</mgrwt>
</event>
<event>
 6    1  0.4630212E-004  0.1661561E+04  0.7818608E-02  0.8783596E-01
          2   -1    0    0  501    0  0.00000000000E+00  0.00000000000E+00  0.14540102358E+04  0.14540102358E+04  0.00000000000E+00 0.  1.
         -2   -1    0    0    0  501 -0.00000000000E+00 -0.00000000000E+00 -0.47468444389E+03  0.47468444389E+03  0.00000000000E+00 0. -1.
         23    2    1    2    0    0 -0.76435561403E+02  0.82076705473E+03  0.39640711139E+03  0.91909320323E+03  0.89959797100E+02 0.  0.
         13    1    3    3    0    0 -0.15380722089E+02  0.90942102149E+02  0.15301407326E+02  0.93494201004E+02  0.00000000000E+00 0. -1.
        -13    1    3    3    0    0 -0.61054839314E+02  0.72982495258E+03  0.38110570407E+03  0.82559900223E+03  0.00000000000E+00 0.  1.
         22    1    1    2    0    0  0.76435561403E+02 -0.82076705473E+03  0.58291868052E+03  0.10096014765E+04  0.00000000000E+00 0. -1.
<mgrwt>
<rscale>  0 0.16615608E+04</rscale>
<asrwt>0</asrwt>
<pdfrwt beam="1">  1        2 0.22369388E+00 0.16615608E+04</pdfrwt>
<pdfrwt beam="2">  1       -2 0.73028377E-01 0.16615608E+04</pdfrwt>
<totfact> 0.21788946E+01</totfact>
</mgrwt>
</event>
<event>
 6    1  0.4630212E-004  0.2373553E+04  0.7818608E-02  0.8449472E-01
         -2   -1    0    0    0  501 -0.00000000000E+00  0.00000000000E+00  0.29399004006E+03  0.29399004006E+03  0.00000000000E+00 0.  1.
          2   -1    0    0  501    0  0.00000000000E+00 -0.00000000000E+00 -0.47907697256E+04  0.47907697256E+04  0.00000000000E+00 0. -1.
         23    2    1    2    0    0 -0.11311635196E+04  0.18963950919E+03 -0.16142943408E+04  0.19824677398E+04  0.93477637552E+02 0.  0.
         11    1    3    3    0    0 -0.78666130990E+03  0.12982483519E+03 -0.10459990466E+04  0.13152203275E+04  0.00000000000E+00 0. -1.
        -11    1    3    3    0    0 -0.34450220972E+03  0.59814674000E+02 -0.56829529426E+03  0.66724741229E+03  0.00000000000E+00 0.  1.
         22    1    1    2    0    0  0.11311635196E+04 -0.18963950919E+03 -0.28824853447E+04  0.31022920259E+04  0.00000000000E+00 0. -1.
<mgrwt>
<rscale>  0 0.23735531E+04</rscale>
<asrwt>0</asrwt>
<pdfrwt beam="1">  1        2 0.73704146E+00 0.23735531E+04</pdfrwt>
<pdfrwt beam="2">  1       -2 0.45229239E-01 0.23735531E+04</pdfrwt>
<totfact> 0.25746928E-01</totfact>
</mgrwt>
</event>
<event>
 6    1  0.4630212E-004  0.1551014E+04  0.7818608E-02  0.8851220E-01
          2   -1    0    0  501    0  0.00000000000E+00  0.00000000000E+00  0.61948672301E+03  0.61948672301E+03  0.00000000000E+00 0.  1.
         -2   -1    0    0    0  501 -0.00000000000E+00 -0.00000000000E+00 -0.97082178764E+03  0.97082178764E+03  0.00000000000E+00 0. -1.
         23    2    1    2    0    0  0.71009093623E+03  0.64199125032E+02 -0.48217796304E+03  0.86541504990E+03  0.89983082774E+02 0.  0.
         13    1    3    3    0    0  0.33488927008E+03  0.39963900016E+02 -0.17535781411E+03  0.38012931943E+03  0.00000000000E+00 0.  1.
        -13    1    3    3    0    0  0.37520166615E+03  0.24235225017E+02 -0.30682014893E+03  0.48528573047E+03  0.00000000000E+00 0. -1.
         22    1    1    2    0    0 -0.71009093623E+03 -0.64199125032E+02  0.13084289841E+03  0.72489346075E+03  0.00000000000E+00 0. -1.
<mgrwt>
<rscale>  0 0.15510141E+04</rscale>
<asrwt>0</asrwt>
<pdfrwt beam="1">  1        2 0.95305650E-01 0.15510141E+04</pdfrwt>
<pdfrwt beam="2">  1       -2 0.14935720E+00 0.15510141E+04</pdfrwt>
<totfact> 0.13904973E+01</totfact>
</mgrwt>
</event>
<event>
 6    1  0.4630212E-004  0.3986140E+04  0.7818608E-02  0.8007348E-01
          2   -1    0    0  501    0  0.00000000000E+00  0.00000000000E+00  0.19766727525E+04  0.19766727525E+04  0.00000000000E+00 0.  1.
         -2   -1    0    0    0  501 -0.00000000000E+00 -0.00000000000E+00 -0.20096035410E+04  0.20096035410E+04  0.00000000000E+00 0. -1.
         23    2    1    2    0    0  0.10763155021E+04 -0.12445286328E+04  0.11064941209E+04  0.19848778568E+04  0.90023823423E+02 0.  0.
         11    1    3    3    0    0  0.10545378341E+04 -0.12002214579E+04  0.10834084383E+04  0.19303770191E+04  0.00000000000E+00 0.  1.
        -11    1    3    3    0    0  0.21777668034E+02 -0.44307174872E+02  0.23085682645E+02  0.54500837731E+02  0.00000000000E+00 0. -1.
         22    1    1    2    0    0 -0.10763155021E+04  0.12445286328E+04 -0.11394249094E+04  0.20013984366E+04  0.00000000000E+00 0. -1.
<mgrwt>
<rscale>  0 0.39861403E+04</rscale>
<asrwt>0</asrwt>
<pdfrwt beam="1">  1        2 0.30410350E+00 0.39861403E+04</pdfrwt>
<pdfrwt beam="2">  1       -2 0.30916977E+00 0.39861403E+04</pdfrwt>
<totfact> 0.15179747E-01</totfact>
</mgrwt>
</event>
<event>
 6    1  0.4630212E-004  0.3976442E+04  0.7818608E-02  0.8009316E-01
         -2   -1    0    0    0  501 -0.00000000000E+00  0.00000000000E+00  0.12070795376E+04  0.12070795376E+04  0.00000000000E+00 0. -1.
          2   -1    0    0  501    0  0.00000000000E+00 -0.00000000000E+00 -0.32748659144E+04  0.32748659144E+04  0.00000000000E+00 0.  1.
         23    2    1    2    0    0 -0.10435392776E+04  0.35559118596E+03  0.82906663487E+03  0.13824008585E+04  0.90891875682E+02 0.  0.
         11    1    3    3    0    0 -0.48020385297E+03  0.11923780944E+03  0.35025236792E+03  0.60620963110E+03  0.00000000000E+00 0. -1.
        -11    1    3    3    0    0 -0.56333542465E+03  0.23635337652E+03  0.47881426695E+03  0.77619122740E+03  0.00000000000E+00 0.  1.
         22    1    1    2    0    0  0.10435392776E+04 -0.35559118596E+03 -0.28968530117E+04  0.30995445935E+04  0.00000000000E+00 0.  1.
<mgrwt>
<rscale>  0 0.39764424E+04</rscale>
<asrwt>0</asrwt>
<pdfrwt beam="1">  1        2 0.50382552E+00 0.39764424E+04</pdfrwt>
<pdfrwt beam="2">  1       -2 0.18570455E+00 0.39764424E+04</pdfrwt>
<totfact> 0.15143799E-01</totfact>
</mgrwt>
</event>
<event>
 6    1  0.4630212E-004  0.3003191E+04  0.7818608E-02  0.8242820E-01
         -2   -1    0    0    0  501 -0.00000000000E+00  0.00000000000E+00  0.85819961423E+03  0.85819961423E+03  0.00000000000E+00 0. -1.
          2   -1    0    0  501    0  0.00000000000E+00 -0.00000000000E+00 -0.26273477927E+04  0.26273477927E+04  0.00000000000E+00 0.  1.
         23    2    1    2    0    0  0.85956445467E+03  0.78334564288E+03 -0.19858141552E+04  0.23025742063E+04  0.76867863033E+02 0.  0.
         13    1    3    3    0    0  0.21619043440E+03  0.15485375327E+03 -0.46956589579E+03  0.53963887862E+03  0.00000000000E+00 0. -1.
        -13    1    3    3    0    0  0.64337402027E+03  0.62849188961E+03 -0.15162482595E+04  0.17629353277E+04  0.00000000000E+00 0.  1.
         22    1    1    2    0    0 -0.85956445467E+03 -0.78334564288E+03  0.21666597677E+03  0.11829732006E+04  0.00000000000E+00 0. -1.
<mgrwt>
<rscale>  0 0.30031909E+04</rscale>
<asrwt>0</asrwt>
<pdfrwt beam="1">  1        2 0.40420735E+00 0.30031909E+04</pdfrwt>
<pdfrwt beam="2">  1       -2 0.13203071E+00 0.30031909E+04</pdfrwt>
<totfact> 0.10475253E+00</totfact>
</mgrwt>
</event>
<event>
 6    1  0.5810241E-004  0.4470466E+04  0.7818608E-02  0.7915828E-01
         -2   -1    0    0    0  501 -0.00000000000E+00  0.00000000000E+00  0.19564614276E+04  0.19564614276E+04  0.00000000000E+00 0. -1.
          2   -1    0    0  501    0  0.00000000000E+00 -0.00000000000E+00 -0.25537264597E+04  0.25537264597E+04  0.00000000000E+00 0.  1.
         23    2    1    2    0    0  0.25609662868E+03 -0.67536395883E+03  0.18343683814E+04  0.19735477832E+04  0.91002933438E+02 0.  0.
         11    1    3    3    0    0  0.12614993885E+03 -0.28502225771E+03  0.67913095132E+03  0.74724182398E+03  0.00000000000E+00 0. -1.
        -11    1    3    3    0    0  0.12994668983E+03 -0.39034170112E+03  0.11552374301E+04  0.12263059592E+04  0.00000000000E+00 0.  1.
         22    1    1    2    0    0 -0.25609662868E+03  0.67536395883E+03 -0.24316334135E+04  0.25366401041E+04  0.00000000000E+00 0.  1.
<mgrwt>
<rscale>  0 0.44704663E+04</rscale>
<asrwt>0</asrwt>
<pdfrwt beam="1">  1        2 0.39288099E+00 0.44704663E+04</pdfrwt>
<pdfrwt beam="2">  1       -2 0.30099407E+00 0.44704663E+04</pdfrwt>
<totfact> 0.77106846E-02</totfact>
</mgrwt>
</event>
<event>
 6    1  0.4630212E-004  0.3553548E+04  0.7818608E-02  0.8101216E-01
          2   -1    0    0  501    0  0.00000000000E+00  0.00000000000E+00  0.18008748870E+04  0.18008748870E+04  0.00000000000E+00 0.  1.
         -2   -1    0    0    0  501 -0.00000000000E+00 -0.00000000000E+00 -0.17529960189E+04  0.17529960189E+04  0.00000000000E+00 0. -1.
         23    2    1    2    0    0  0.13901148619E+04  0.48097782704E+03  0.10185587751E+04  0.17914922630E+04  0.90683795232E+02 0.  0.
         11    1    3    3    0    0  0.20446542183E+03  0.10483707998E+03  0.15109519169E+03  0.27500305274E+03  0.00000000000E+00 0. -1.
        -11    1    3    3    0    0  0.11856494401E+04  0.37614074706E+03  0.86746358339E+03  0.15164892103E+04  0.00000000000E+00 0.  1.
         22    1    1    2    0    0 -0.13901148619E+04 -0.48097782704E+03 -0.97067990698E+03  0.17623786430E+04  0.00000000000E+00 0. -1.
<mgrwt>
<rscale>  0 0.35535484E+04</rscale>
<asrwt>0</asrwt>
<pdfrwt beam="1">  1        2 0.27705767E+00 0.35535484E+04</pdfrwt>
<pdfrwt beam="2">  1       -2 0.26969170E+00 0.35535484E+04</pdfrwt>
<totfact> 0.34326310E-01</totfact>
</mgrwt>
</event>
<event>
 6    1  0.4630212E-004  0.1552495E+04  0.7818608E-02  0.8850276E-01
          2   -1    0    0  501    0  0.00000000000E+00  0.00000000000E+00  0.45184449757E+03  0.45184449757E+03  0.00000000000E+00 0.  1.
         -2   -1    0    0    0  501 -0.00000000000E+00 -0.00000000000E+00 -0.13335565758E+04  0.13335565758E+04  0.00000000000E+00 0. -1.
         23    2    1    2    0    0 -0.11179678204E+02 -0.18600062236E+03 -0.13057986340E+04  0.13221833885E+04  0.91310589304E+02 0.  0.
         13    1    3    3    0    0 -0.41121287950E+02 -0.41009923323E+02 -0.30308174755E+03  0.30859572231E+03  0.00000000000E+00 0. -1.
        -13    1    3    3    0    0  0.29941609746E+02 -0.14499069904E+03 -0.10027168864E+04  0.10135876662E+04  0.00000000000E+00 0.  1.
         22    1    1    2    0    0  0.11179678204E+02  0.18600062236E+03  0.42408655577E+03  0.46321768480E+03  0.00000000000E+00 0.  1.
<mgrwt>
<rscale>  0 0.15524950E+04</rscale>
<asrwt>0</asrwt>
<pdfrwt beam="1">  1        2 0.69514539E-01 0.15524950E+04</pdfrwt>
<pdfrwt beam="2">  1       -2 0.20516255E+00 0.15524950E+04</pdfrwt>
<totfact> 0.81904959E+00</totfact>
</mgrwt>
</event>
<event>
 6    1  0.4630212E-004  0.1908553E+04  0.7818608E-02  0.8650611E-01
          2   -1    0    0  501    0  0.00000000000E+00  0.00000000000E+00  0.15169160330E+04  0.15169160330E+04  0.00000000000E+00 0.  1.
         -2   -1    0    0    0  501 -0.00000000000E+00 -0.00000000000E+00 -0.60032536824E+03  0.60032536824E+03  0.00000000000E+00 0. -1.
         23    2    1    2    0    0 -0.14355449110E+03  0.92881016591E+03  0.62742394148E+03  0.11339237465E+04  0.93947029605E+02 0.  0.
         11    1    3    3    0    0 -0.49478707904E+02  0.30184663193E+03  0.15249872735E+03  0.34178267010E+03  0.00000000000E+00 0. -1.
        -11    1    3    3    0    0 -0.94075783198E+02  0.62696353398E+03  0.47492521414E+03  0.79214107642E+03  0.00000000000E+00 0.  1.
         22    1    1    2    0    0  0.14355449110E+03 -0.92881016591E+03  0.28916672326E+03  0.98331765471E+03  0.00000000000E+00 0. -1.
<mgrwt>
<rscale>  0 0.19085525E+04</rscale>
<asrwt>0</asrwt>
<pdfrwt beam="1">  1        2 0.23337170E+00 0.19085525E+04</pdfrwt>
<pdfrwt beam="2">  1       -2 0.92357750E-01 0.19085525E+04</pdfrwt>
<totfact> 0.11568721E+01</totfact>
</mgrwt>
</event>
<event>
 6    1  0.4630212E-004  0.1701754E+04  0.7818608E-02  0.8760365E-01
          2   -1    0    0  501    0  0.00000000000E+00  0.00000000000E+00  0.20588829911E+04  0.20588829911E+04  0.00000000000E+00 0.  1.
         -2   -1    0    0    0  501 -0.00000000000E+00 -0.00000000000E+00 -0.35164284835E+03  0.35164284835E+03  0.00000000000E+00 0. -1.
         23    2    1    2    0    0 -0.70906047150E+03 -0.24483723179E+01  0.15160425539E+04  0.16761354360E+04  0.90951787665E+02 0.  0.
         13    1    3    3    0    0 -0.62914976279E+03 -0.26359502960E+02  0.12979381502E+04  0.14426252768E+04  0.00000000000E+00 0.  1.
        -13    1    3    3    0    0 -0.79910708711E+02  0.23911130642E+02  0.21810440370E+03  0.23351015919E+03  0.00000000000E+00 0. -1.
         22    1    1    2    0    0  0.70906047150E+03  0.24483723179E+01  0.19119758886E+03  0.73439040350E+03  0.00000000000E+00 0. -1.
<mgrwt>
<rscale>  0 0.17017538E+04</rscale>
<asrwt>0</asrwt>
<pdfrwt beam="1">  1        2 0.31675122E+00 0.17017538E+04</pdfrwt>
<pdfrwt beam="2">  1       -2 0.54098901E-01 0.17017538E+04</pdfrwt>
<totfact> 0.18968186E+01</totfact>
</mgrwt>
</event>
<event>
 6    1  0.4630212E-004  0.1374224E+04  0.7818608E-02  0.8972691E-01
         -2   -1    0    0    0  501 -0.00000000000E+00  0.00000000000E+00  0.32184930332E+03  0.32184930332E+03  0.00000000000E+00 0. -1.
          2   -1    0    0  501    0  0.00000000000E+00 -0.00000000000E+00 -0.14669071977E+04  0.14669071977E+04  0.00000000000E+00 0.  1.
         23    2    1    2    0    0  0.44420381766E+02  0.21564690122E+03 -0.14181699806E+04  0.14379474819E+04  0.89499220031E+02 0.  0.
         11    1    3    3    0    0  0.17924596831E+02  0.20154353785E+03 -0.11075820310E+04  0.11259125384E+04  0.00000000000E+00 0. -1.
        -11    1    3    3    0    0  0.26495784936E+02  0.14103363371E+02 -0.31058794963E+03  0.31203494345E+03  0.00000000000E+00 0.  1.
         22    1    1    2    0    0 -0.44420381766E+02 -0.21564690122E+03  0.27311208619E+03  0.35080901919E+03  0.00000000000E+00 0. -1.
<mgrwt>
<rscale>  0 0.13742242E+04</rscale>
<asrwt>0</asrwt>
<pdfrwt beam="1">  1        2 0.22567803E+00 0.13742242E+04</pdfrwt>
<pdfrwt beam="2">  1       -2 0.49515277E-01 0.13742242E+04</pdfrwt>
<totfact> 0.49876271E+01</totfact>
</mgrwt>
</event>
<event>
 6    1  0.4630212E-004  0.5899975E+04  0.7818608E-02  0.7702929E-01
          2   -1    0    0  501    0  0.00000000000E+00  0.00000000000E+00  0.25669360949E+04  0.25669360949E+04  0.00000000000E+00 0.  1.
         -2   -1    0    0    0  501 -0.00000000000E+00 -0.00000000000E+00 -0.33901993128E+04  0.33901993128E+04  0.00000000000E+00 0. -1.
         23    2    1    2    0    0 -0.28455800557E+04 -0.60220941542E+03 -0.90458810023E+03  0.30473938780E+04  0.91366205749E+02 0.  0.
         11    1    3    3    0    0 -0.13033939753E+04 -0.32216677080E+03 -0.41266860276E+03  0.14046076529E+04  0.00000000000E+00 0. -1.
        -11    1    3    3    0    0 -0.15421860804E+04 -0.28004264462E+03 -0.49191949747E+03  0.16427862251E+04  0.00000000000E+00 0.  1.
         22    1    1    2    0    0  0.28455800557E+04  0.60220941542E+03  0.81324882338E+02  0.29097415297E+04  0.00000000000E+00 0.  1.
<mgrwt>
<rscale>  0 0.58999746E+04</rscale>
<asrwt>0</asrwt>
<pdfrwt beam="1">  1        2 0.39491325E+00 0.58999746E+04</pdfrwt>
<pdfrwt beam="2">  1       -2 0.52156912E+00 0.58999746E+04</pdfrwt>
<totfact> 0.26780008E-03</totfact>
</mgrwt>
</event>
<event>
 6    1  0.4630212E-004  0.2319210E+04  0.7818608E-02  0.8470385E-01
         -2   -1    0    0    0  501 -0.00000000000E+00  0.00000000000E+00  0.10212442426E+04  0.10212442426E+04  0.00000000000E+00 0. -1.
          2   -1    0    0  501    0  0.00000000000E+00 -0.00000000000E+00 -0.13167108584E+04  0.13167108584E+04  0.00000000000E+00 0.  1.
         23    2    1    2    0    0 -0.40256260548E+03  0.10807372215E+03  0.94045906506E+03  0.10336357884E+04  0.10101044174E+03 0.  0.
         11    1    3    3    0    0 -0.20067593214E+03  0.31304911528E+01  0.46920807490E+03  0.51033013557E+03  0.00000000000E+00 0.  1.
        -11    1    3    3    0    0 -0.20188667334E+03  0.10494323099E+03  0.47125099016E+03  0.52330565287E+03  0.00000000000E+00 0. -1.
         22    1    1    2    0    0  0.40256260548E+03 -0.10807372215E+03 -0.12359256808E+04  0.13043193126E+04  0.00000000000E+00 0.  1.
<mgrwt>
<rscale>  0 0.23192097E+04</rscale>
<asrwt>0</asrwt>
<pdfrwt beam="1">  1        2 0.20257090E+00 0.23192097E+04</pdfrwt>
<pdfrwt beam="2">  1       -2 0.15711450E+00 0.23192097E+04</pdfrwt>
<totfact> 0.38730371E+00</totfact>
</mgrwt>
</event>
<event>
 6    1  0.4630212E-004  0.3370786E+04  0.7818608E-02  0.8145114E-01
          2   -1    0    0  501    0  0.00000000000E+00  0.00000000000E+00  0.32466579605E+04  0.32466579605E+04  0.00000000000E+00 0. -1.
         -2   -1    0    0    0  501 -0.00000000000E+00 -0.00000000000E+00 -0.87491469077E+03  0.87491469077E+03  0.00000000000E+00 0.  1.
         23    2    1    2    0    0 -0.14564842378E+04 -0.68784864668E+03  0.17882911650E+04  0.24084181182E+04  0.89501089666E+02 0.  0.
         11    1    3    3    0    0 -0.42441228421E+03 -0.15780229158E+03  0.51913684829E+03  0.68886168239E+03  0.00000000000E+00 0.  1.
        -11    1    3    3    0    0 -0.10320719536E+04 -0.53004635511E+03  0.12691543168E+04  0.17195564358E+04  0.00000000000E+00 0. -1.
         22    1    1    2    0    0  0.14564842378E+04  0.68784864668E+03  0.58345210464E+03  0.17131545331E+04  0.00000000000E+00 0.  1.
<mgrwt>
<rscale>  0 0.33707855E+04</rscale>
<asrwt>0</asrwt>
<pdfrwt beam="1">  1        2 0.49948583E+00 0.33707855E+04</pdfrwt>
<pdfrwt beam="2">  1       -2 0.13460226E+00 0.33707855E+04</pdfrwt>
<totfact> 0.39846550E-01</totfact>
</mgrwt>
</event>
<event>
 6    1  0.4630212E-004  0.2597594E+04  0.7818608E-02  0.8369019E-01
          1   -1    0    0  501    0  0.00000000000E+00  0.00000000000E+00  0.14596158139E+04  0.14596158139E+04  0.00000000000E+00 0.  1.
         -1   -1    0    0    0  501 -0.00000000000E+00 -0.00000000000E+00 -0.11556971173E+04  0.11556971173E+04  0.00000000000E+00 0. -1.
         23    2    1    2    0    0 -0.95216007436E+03  0.72589313135E+03  0.65493975938E+03  0.13676168818E+04  0.88883078138E+02 0.  0.
         11    1    3    3    0    0 -0.70039115670E+03  0.52756254951E+03  0.43432304425E+03  0.97852262253E+03  0.00000000000E+00 0.  1.
        -11    1    3    3    0    0 -0.25176891766E+03  0.19833058184E+03  0.22061671513E+03  0.38909425926E+03  0.00000000000E+00 0. -1.
         22    1    1    2    0    0  0.95216007436E+03 -0.72589313135E+03 -0.35102106275E+03  0.12476960495E+04  0.00000000000E+00 0. -1.
<mgrwt>
<rscale>  0 0.25975941E+04</rscale>
<asrwt>0</asrwt>
<pdfrwt beam="1">  1        1 0.22455628E+00 0.25975941E+04</pdfrwt>
<pdfrwt beam="2">  1       -1 0.17779956E+00 0.25975941E+04</pdfrwt>
<totfact> 0.13270984E+00</totfact>
</mgrwt>
</event>
<event>
 6    1  0.4630212E-004  0.1319800E+04  0.7818608E-02  0.9014010E-01
          2   -1    0    0  501    0  0.00000000000E+00  0.00000000000E+00  0.19294982818E+04  0.19294982818E+04  0.00000000000E+00 0.  1.
         -2   -1    0    0    0  501 -0.00000000000E+00 -0.00000000000E+00 -0.22568964750E+03  0.22568964750E+03  0.00000000000E+00 0. -1.
         23    2    1    2    0    0 -0.34794320654E+03 -0.10986903133E+03 -0.36084942331E+02  0.37744628974E+03  0.89598546593E+02 0.  0.
         11    1    3    3    0    0 -0.10807720560E+03 -0.75110801638E+02 -0.30043530583E+02  0.13499973564E+03  0.00000000000E+00 0. -1.
        -11    1    3    3    0    0 -0.23986600094E+03 -0.34758229690E+02 -0.60414117482E+01  0.24244655410E+03  0.00000000000E+00 0.  1.
         22    1    1    2    0    0  0.34794320654E+03  0.10986903133E+03  0.17398935766E+04  0.17777416395E+04  0.00000000000E+00 0.  1.
<mgrwt>
<rscale>  0 0.13197997E+04</rscale>
<asrwt>0</asrwt>
<pdfrwt beam="1">  1        2 0.29684588E+00 0.13197997E+04</pdfrwt>
<pdfrwt beam="2">  1       -2 0.34721486E-01 0.13197997E+04</pdfrwt>
<totfact> 0.55707089E+01</totfact>
</mgrwt>
</event>
<event>
 6    1  0.4630212E-004  0.2654596E+04  0.7818608E-02  0.8349889E-01
         -2   -1    0    0    0  501 -0.00000000000E+00  0.00000000000E+00  0.18975396732E+04  0.18975396732E+04  0.00000000000E+00 0. -1.
          2   -1    0    0  501    0  0.00000000000E+00 -0.00000000000E+00 -0.92842295019E+03  0.92842295019E+03  0.00000000000E+00 0.  1.
         23    2    1    2    0    0 -0.10407939410E+04  0.37803077267E+03 -0.28888826832E+03  0.11500342684E+04  0.11385558537E+03 0.  0.
         13    1    3    3    0    0 -0.23369934577E+03  0.13661375260E+03 -0.73939972843E+02  0.28061685836E+03  0.00000000000E+00 0. -1.
        -13    1    3    3    0    0 -0.80709459524E+03  0.24141702007E+03 -0.21494829548E+03  0.86941741009E+03  0.00000000000E+00 0.  1.
         22    1    1    2    0    0  0.10407939410E+04 -0.37803077267E+03  0.12580049914E+04  0.16759283550E+04  0.00000000000E+00 0. -1.
<mgrwt>
<rscale>  0 0.26545955E+04</rscale>
<asrwt>0</asrwt>
<pdfrwt beam="1">  1        2 0.14283430E+00 0.26545955E+04</pdfrwt>
<pdfrwt beam="2">  1       -2 0.29192918E+00 0.26545955E+04</pdfrwt>
<totfact> 0.87989126E-01</totfact>
</mgrwt>
</event>
<event>
 6    1  0.4630212E-004  0.2611708E+04  0.7818608E-02  0.8364235E-01
          2   -1    0    0  501    0  0.00000000000E+00  0.00000000000E+00  0.35172083385E+04  0.35172083385E+04  0.00000000000E+00 0.  1.
         -2   -1    0    0    0  501 -0.00000000000E+00 -0.00000000000E+00 -0.48483197152E+03  0.48483197152E+03  0.00000000000E+00 0. -1.
         23    2    1    2    0    0  0.14014289209E+03 -0.11659980221E+04  0.64852303490E+03  0.13446076906E+04  0.90533402735E+02 0.  0.
         13    1    3    3    0    0  0.10734612930E+03 -0.10260282012E+04  0.53948811740E+03  0.11641754550E+04  0.00000000000E+00 0.  1.
        -13    1    3    3    0    0  0.32796762791E+02 -0.13996982092E+03  0.10903491750E+03  0.18043223563E+03  0.00000000000E+00 0. -1.
         22    1    1    2    0    0 -0.14014289209E+03  0.11659980221E+04  0.23838533321E+04  0.26574326194E+04  0.00000000000E+00 0.  1.
<mgrwt>
<rscale>  0 0.26117083E+04</rscale>
<asrwt>0</asrwt>
<pdfrwt beam="1">  1        2 0.54110896E+00 0.26117083E+04</pdfrwt>
<pdfrwt beam="2">  1       -2 0.74589536E-01 0.26117083E+04</pdfrwt>
<totfact> 0.11301690E+00</totfact>
</mgrwt>
</event>
<event>
 6    1  0.4630212E-004  0.3193362E+04  0.7818608E-02  0.8190573E-01
         -2   -1    0    0    0  501 -0.00000000000E+00  0.00000000000E+00  0.20223780534E+04  0.20223780534E+04  0.00000000000E+00 0. -1.
          2   -1    0    0  501    0  0.00000000000E+00 -0.00000000000E+00 -0.12605899975E+04  0.12605899975E+04  0.00000000000E+00 0.  1.
         23    2    1    2    0    0  0.94845830913E+03  0.12393327195E+04  0.40704160377E+02  0.15638168830E+04  0.91365534273E+02 0.  0.
         11    1    3    3    0    0  0.34294936171E+03  0.48332670409E+03 -0.23387860928E+02  0.59309860868E+03  0.00000000000E+00 0.  1.
        -11    1    3    3    0    0  0.60550894743E+03  0.75600601544E+03  0.64092021305E+02  0.97071827427E+03  0.00000000000E+00 0. -1.
         22    1    1    2    0    0 -0.94845830913E+03 -0.12393327195E+04  0.72108389551E+03  0.17191511679E+04  0.00000000000E+00 0. -1.
<mgrwt>
<rscale>  0 0.31933616E+04</rscale>
<asrwt>0</asrwt>
<pdfrwt beam="1">  1        2 0.19393692E+00 0.31933616E+04</pdfrwt>
<pdfrwt beam="2">  1       -2 0.31113508E+00 0.31933616E+04</pdfrwt>
<totfact> 0.39883105E-01</totfact>
</mgrwt>
</event>
<event>
 6    1  0.4630212E-004  0.1710362E+04  0.7818608E-02  0.8755477E-01
         -2   -1    0    0    0  501 -0.00000000000E+00  0.00000000000E+00  0.54323186182E+03  0.54323186182E+03  0.00000000000E+00 0. -1.
          2   -1    0    0  501    0  0.00000000000E+00 -0.00000000000E+00 -0.13462654326E+04  0.13462654326E+04  0.00000000000E+00 0.  1.
         23    2    1    2    0    0  0.11755498845E+03  0.84348978919E+03 -0.36453640163E+03  0.93159648162E+03  0.98442961547E+02 0.  0.
         11    1    3    3    0    0  0.26954090783E+02  0.11668411311E+03 -0.17216782076E+02  0.12098811035E+03  0.00000000000E+00 0. -1.
        -11    1    3    3    0    0  0.90600897663E+02  0.72680567608E+03 -0.34731961955E+03  0.81060837127E+03  0.00000000000E+00 0.  1.
         22    1    1    2    0    0 -0.11755498845E+03 -0.84348978919E+03 -0.43849716911E+03  0.95790081276E+03  0.00000000000E+00 0.  1.
<mgrwt>
<rscale>  0 0.17103617E+04</rscale>
<asrwt>0</asrwt>
<pdfrwt beam="1">  1        2 0.20711776E+00 0.17103617E+04</pdfrwt>
<pdfrwt beam="2">  1       -2 0.83574133E-01 0.17103617E+04</pdfrwt>
<totfact> 0.18501400E+01</totfact>
</mgrwt>
</event>
<event>
 6    1  0.4630212E-004  0.1591119E+04  0.7818608E-02  0.8826023E-01
         -2   -1    0    0    0  501 -0.00000000000E+00  0.00000000000E+00  0.26943565536E+03  0.26943565536E+03  0.00000000000E+00 0. -1.
          2   -1    0    0  501    0  0.00000000000E+00 -0.00000000000E+00 -0.23490379668E+04  0.23490379668E+04  0.00000000000E+00 0.  1.
         23    2    1    2    0    0 -0.68424694575E+03 -0.67024258593E+01 -0.17023764157E+04  0.18371041950E+04  0.92884644620E+02 0.  0.
         11    1    3    3    0    0 -0.33592162573E+03  0.27745333116E+02 -0.92718199871E+03  0.98654934031E+03  0.00000000000E+00 0.  1.
        -11    1    3    3    0    0 -0.34832532002E+03 -0.34447758976E+02 -0.77519441699E+03  0.85055485467E+03  0.00000000000E+00 0. -1.
         22    1    1    2    0    0  0.68424694575E+03  0.67024258593E+01 -0.37722589569E+03  0.78136942713E+03  0.00000000000E+00 0. -1.
<mgrwt>
<rscale>  0 0.15911186E+04</rscale>
<asrwt>0</asrwt>
<pdfrwt beam="1">  1        2 0.36139044E+00 0.15911186E+04</pdfrwt>
<pdfrwt beam="2">  1       -2 0.41451642E-01 0.15911186E+04</pdfrwt>
<totfact> 0.22525890E+01</totfact>
</mgrwt>
</event>
<event>
 6    1  0.4630212E-004  0.1653340E+04  0.7818608E-02  0.8788433E-01
          2   -1    0    0  501    0  0.00000000000E+00  0.00000000000E+00  0.10574859175E+04  0.10574859175E+04  0.00000000000E+00 0.  1.
         -2   -1    0    0    0  501 -0.00000000000E+00 -0.00000000000E+00 -0.64623427161E+03  0.64623427161E+03  0.00000000000E+00 0. -1.
         23    2    1    2    0    0 -0.36187308158E+03 -0.73373672619E+03  0.10388551277E+03  0.82976615695E+03  0.91640411017E+02 0.  0.
         11    1    3    3    0    0 -0.19338297813E+03 -0.44668067348E+03  0.99899449369E+02  0.49689083336E+03  0.00000000000E+00 0.  1.
        -11    1    3    3    0    0 -0.16849010345E+03 -0.28705605271E+03  0.39860634035E+01  0.33287532359E+03  0.00000000000E+00 0. -1.
         22    1    1    2    0    0  0.36187308158E+03  0.73373672619E+03  0.30736613312E+03  0.87395403215E+03  0.00000000000E+00 0. -1.
<mgrwt>
<rscale>  0 0.16533404E+04</rscale>
<asrwt>0</asrwt>
<pdfrwt beam="1">  1        2 0.16269014E+00 0.16533404E+04</pdfrwt>
<pdfrwt beam="2">  1       -2 0.99420657E-01 0.16533404E+04</pdfrwt>
<totfact> 0.18523072E+01</totfact>
</mgrwt>
</event>
<event>
 6    1  0.5906661E-004  0.3220040E+04  0.7818608E-02  0.8183545E-01
          2   -1    0    0  501    0  0.00000000000E+00  0.00000000000E+00  0.22408469003E+04  0.22408469003E+04  0.00000000000E+00 0.  1.
         -2   -1    0    0    0  501 -0.00000000000E+00 -0.00000000000E+00 -0.11567788127E+04  0.11567788127E+04  0.00000000000E+00 0. -1.
         23    2    1    2    0    0  0.95565088373E+03  0.63350876812E+03  0.17329824420E+04  0.20801691444E+04  0.96299295062E+02 0.  0.
         11    1    3    3    0    0  0.57068354909E+03  0.39519834669E+03  0.96648768132E+03  0.11899411265E+04  0.00000000000E+00 0.  1.
        -11    1    3    3    0    0  0.38496733464E+03  0.23831042143E+03  0.76649476066E+03  0.89022801788E+03  0.00000000000E+00 0. -1.
         22    1    1    2    0    0 -0.95565088373E+03 -0.63350876812E+03 -0.64891435440E+03  0.13174565686E+04  0.00000000000E+00 0. -1.
<mgrwt>
<rscale>  0 0.32200399E+04</rscale>
<asrwt>0</asrwt>
<pdfrwt beam="1">  1        2 0.34474568E+00 0.32200399E+04</pdfrwt>
<pdfrwt beam="2">  1       -2 0.17796597E+00 0.32200399E+04</pdfrwt>
<totfact> 0.77114149E-01</totfact>
</mgrwt>
</event>
<event>
 6    1  0.4630212E-004  0.4692856E+04  0.7818608E-02  0.7877717E-01
         -1   -1    0    0    0  501 -0.00000000000E+00  0.00000000000E+00  0.20084323227E+04  0.20084323227E+04  0.00000000000E+00 0. -1.
          1   -1    0    0  501    0  0.00000000000E+00 -0.00000000000E+00 -0.27413043116E+04  0.27413043116E+04  0.00000000000E+00 0.  1.
         23    2    1    2    0    0  0.97484921762E+03  0.14776491891E+03 -0.25205905958E+04  0.27081433139E+04  0.92183453314E+02 0.  0.
         13    1    3    3    0    0  0.87400302263E+03  0.10345239717E+03 -0.22465192363E+04  0.24127644645E+04  0.00000000000E+00 0.  1.
        -13    1    3    3    0    0  0.10084619499E+03  0.44312521741E+02 -0.27407135943E+03  0.29537884943E+03  0.00000000000E+00 0. -1.
         22    1    1    2    0    0 -0.97484921762E+03 -0.14776491891E+03  0.17877186068E+04  0.20415933203E+04  0.00000000000E+00 0. -1.
<mgrwt>
<rscale>  0 0.46928559E+04</rscale>
<asrwt>0</asrwt>
<pdfrwt beam="1">  1        1 0.42173913E+00 0.46928559E+04</pdfrwt>
<pdfrwt beam="2">  1       -1 0.30898959E+00 0.46928559E+04</pdfrwt>
<totfact> 0.19596140E-02</totfact>
</mgrwt>
</event>
<event>
 6    1  0.4630212E-004  0.5128599E+04  0.7818608E-02  0.7808970E-01
          2   -1    0    0  501    0  0.00000000000E+00  0.00000000000E+00  0.26979105349E+04  0.26979105349E+04  0.00000000000E+00 0.  1.
         -2   -1    0    0    0  501 -0.00000000000E+00 -0.00000000000E+00 -0.24373053024E+04  0.24373053024E+04  0.00000000000E+00 0. -1.
         23    2    1    2    0    0 -0.66095247863E+03  0.14149107560E+04 -0.19052520349E+04  0.24650532337E+04  0.87587112131E+02 0.  0.
         13    1    3    3    0    0 -0.18867925343E+03  0.36237089317E+03 -0.44541240002E+03  0.60440444322E+03  0.00000000000E+00 0. -1.
        -13    1    3    3    0    0 -0.47227322520E+03  0.10525398628E+04 -0.14598396349E+04  0.18606487905E+04  0.00000000000E+00 0.  1.
         22    1    1    2    0    0  0.66095247863E+03 -0.14149107560E+04  0.21658572674E+04  0.26701626035E+04  0.00000000000E+00 0.  1.
<mgrwt>
<rscale>  0 0.51285989E+04</rscale>
<asrwt>0</asrwt>
<pdfrwt beam="1">  1        2 0.41506316E+00 0.51285989E+04</pdfrwt>
<pdfrwt beam="2">  1       -2 0.37497005E+00 0.51285989E+04</pdfrwt>
<totfact> 0.20709203E-02</totfact>
</mgrwt>
</event>
<event>
 6    1  0.4630212E-004  0.3029077E+04  0.7818608E-02  0.8235476E-01
          2   -1    0    0  501    0  0.00000000000E+00  0.00000000000E+00  0.25361557486E+04  0.25361557486E+04  0.00000000000E+00 0.  1.
         -2   -1    0    0    0  501 -0.00000000000E+00 -0.00000000000E+00 -0.90445013494E+03  0.90445013494E+03  0.00000000000E+00 0. -1.
         23    2    1    2    0    0  0.10441424261E+04 -0.93617837996E+03  0.17103336371E+03  0.14157042101E+04  0.91118790403E+02 0.  0.
         11    1    3    3    0    0  0.58376539192E+03 -0.49498348617E+03  0.13370566290E+03  0.77696067383E+03  0.00000000000E+00 0. -1.
        -11    1    3    3    0    0  0.46037703420E+03 -0.44119489379E+03  0.37327700803E+02  0.63874353631E+03  0.00000000000E+00 0.  1.
         22    1    1    2    0    0 -0.10441424261E+04  0.93617837996E+03  0.14606722499E+04  0.20249016734E+04  0.00000000000E+00 0.  1.
<mgrwt>
<rscale>  0 0.30290767E+04</rscale>
<asrwt>0</asrwt>
<pdfrwt beam="1">  1        2 0.39017781E+00 0.30290767E+04</pdfrwt>
<pdfrwt beam="2">  1       -2 0.13914618E+00 0.30290767E+04</pdfrwt>
<totfact> 0.10333159E+00</totfact>
</mgrwt>
</event>
<event>
 6    1  0.4630212E-004  0.2953271E+04  0.7818608E-02  0.8257202E-01
          2   -1    0    0  501    0  0.00000000000E+00  0.00000000000E+00  0.19313966501E+04  0.19313966501E+04  0.00000000000E+00 0.  1.
         -2   -1    0    0    0  501 -0.00000000000E+00 -0.00000000000E+00 -0.11289509253E+04  0.11289509253E+04  0.00000000000E+00 0. -1.
         23    2    1    2    0    0 -0.97651748348E+03  0.11055275124E+04  0.42703271890E+03  0.15382725439E+04  0.90266272626E+02 0.  0.
         13    1    3    3    0    0 -0.86309466643E+03  0.97263817866E+03  0.40613364940E+03  0.13623149309E+04  0.00000000000E+00 0. -1.
        -13    1    3    3    0    0 -0.11342281705E+03  0.13288933379E+03  0.20899069505E+02  0.17595761298E+03  0.00000000000E+00 0.  1.
         22    1    1    2    0    0  0.97651748348E+03 -0.11055275124E+04  0.37541300591E+03  0.15220750314E+04  0.00000000000E+00 0.  1.
<mgrwt>
<rscale>  0 0.29532708E+04</rscale>
<asrwt>0</asrwt>
<pdfrwt beam="1">  1        2 0.29713795E+00 0.29532708E+04</pdfrwt>
<pdfrwt beam="2">  1       -2 0.17368476E+00 0.29532708E+04</pdfrwt>
<totfact> 0.12582626E+00</totfact>
</mgrwt>
</event>
<event>
 6    1  0.4630212E-004  0.1988441E+04  0.7818608E-02  0.8612044E-01
         -2   -1    0    0    0  501 -0.00000000000E+00  0.00000000000E+00  0.38047994562E+03  0.38047994562E+03  0.00000000000E+00 0. -1.
          2   -1    0    0  501    0  0.00000000000E+00 -0.00000000000E+00 -0.25979659705E+04  0.25979659705E+04  0.00000000000E+00 0.  1.
         23    2    1    2    0    0  0.86262609305E+03 -0.30470393242E+03 -0.53610580295E+03  0.10642861230E+04  0.91253804333E+02 0.  0.
         11    1    3    3    0    0  0.54688989564E+03 -0.17854672919E+03 -0.38484182948E+03  0.69214935250E+03  0.00000000000E+00 0. -1.
        -11    1    3    3    0    0  0.31573619742E+03 -0.12615720323E+03 -0.15126397348E+03  0.37213677050E+03  0.00000000000E+00 0.  1.
         22    1    1    2    0    0 -0.86262609305E+03  0.30470393242E+03 -0.16813802219E+04  0.19141597931E+04  0.00000000000E+00 0. -1.
<mgrwt>
<rscale>  0 0.19884405E+04</rscale>
<asrwt>0</asrwt>
<pdfrwt beam="1">  1        2 0.39968707E+00 0.19884405E+04</pdfrwt>
<pdfrwt beam="2">  1       -2 0.58535377E-01 0.19884405E+04</pdfrwt>
<totfact> 0.77500929E+00</totfact>
</mgrwt>
</event>
<event>
 6    1  0.4630212E-004  0.4297374E+04  0.7818608E-02  0.7947104E-01
          2   -1    0    0  501    0  0.00000000000E+00  0.00000000000E+00  0.21477582016E+04  0.21477582016E+04  0.00000000000E+00 0.  1.
         -2   -1    0    0    0  501 -0.00000000000E+00 -0.00000000000E+00 -0.21496161531E+04  0.21496161531E+04  0.00000000000E+00 0. -1.
         23    2    1    2    0    0  0.11206833941E+04 -0.15780981394E+04 -0.93166598246E+03  0.21500811791E+04  0.92317748814E+02 0.  0.
         11    1    3    3    0    0  0.14545835246E+03 -0.15522846295E+03 -0.10483075380E+03  0.23715711027E+03  0.00000000000E+00 0. -1.
        -11    1    3    3    0    0  0.97522504159E+03 -0.14228696764E+04 -0.82683522866E+03  0.19129240688E+04  0.00000000000E+00 0.  1.
         22    1    1    2    0    0 -0.11206833941E+04  0.15780981394E+04  0.92980803095E+03  0.21472931755E+04  0.00000000000E+00 0.  1.
<mgrwt>
<rscale>  0 0.42973740E+04</rscale>
<asrwt>0</asrwt>
<pdfrwt beam="1">  1        2 0.33042434E+00 0.42973740E+04</pdfrwt>
<pdfrwt beam="2">  1       -2 0.33071018E+00 0.42973740E+04</pdfrwt>
<totfact> 0.87436323E-02</totfact>
</mgrwt>
</event>
<event>
 6    1  0.4630212E-004  0.1003658E+04  0.7818608E-02  0.9304542E-01
         -2   -1    0    0    0  501 -0.00000000000E+00  0.00000000000E+00  0.15848591298E+03  0.15848591298E+03  0.00000000000E+00 0. -1.
          2   -1    0    0  501    0  0.00000000000E+00 -0.00000000000E+00 -0.15889882545E+04  0.15889882545E+04  0.00000000000E+00 0.  1.
         23    2    1    2    0    0 -0.27510865224E+03  0.11093616211E+03 -0.25535460763E+02  0.31153421796E+03  0.91705542900E+02 0.  0.
         11    1    3    3    0    0 -0.17495776921E+03  0.23562378448E+02 -0.27175674218E+02  0.17861669562E+03  0.00000000000E+00 0.  1.
        -11    1    3    3    0    0 -0.10015088303E+03  0.87373783664E+02  0.16402134543E+01  0.13291752234E+03  0.00000000000E+00 0. -1.
         22    1    1    2    0    0  0.27510865224E+03 -0.11093616211E+03 -0.14049668808E+04  0.14359399495E+04  0.00000000000E+00 0.  1.
<mgrwt>
<rscale>  0 0.10036578E+04</rscale>
<asrwt>0</asrwt>
<pdfrwt beam="1">  1        2 0.24445974E+00 0.10036578E+04</pdfrwt>
<pdfrwt beam="2">  1       -2 0.24382447E-01 0.10036578E+04</pdfrwt>
<totfact> 0.16943151E+02</totfact>
</mgrwt>
</event>
<event>
 6    1  0.8325620E-004  0.5103198E+04  0.7818608E-02  0.7812782E-01
         -2   -1    0    0    0  501 -0.00000000000E+00  0.00000000000E+00  0.29716663701E+04  0.29716663701E+04  0.00000000000E+00 0. -1.
          2   -1    0    0  501    0  0.00000000000E+00 -0.00000000000E+00 -0.21909113901E+04  0.21909113901E+04  0.00000000000E+00 0.  1.
         23    2    1    2    0    0 -0.62383881166E+03  0.26286564044E+03  0.28783908123E+04  0.29584114115E+04  0.93761418829E+02 0.  0.
         11    1    3    3    0    0 -0.35564936711E+03  0.14724420786E+03  0.18337162680E+04  0.18736815846E+04  0.00000000000E+00 0. -1.
        -11    1    3    3    0    0 -0.26818944454E+03  0.11562143258E+03  0.10446745443E+04  0.10847298269E+04  0.00000000000E+00 0.  1.
         22    1    1    2    0    0  0.62383881166E+03 -0.26286564044E+03 -0.20976358323E+04  0.22041663487E+04  0.00000000000E+00 0.  1.
<mgrwt>
<rscale>  0 0.51031981E+04</rscale>
<asrwt>0</asrwt>
<pdfrwt beam="1">  1        2 0.33706329E+00 0.51031981E+04</pdfrwt>
<pdfrwt beam="2">  1       -2 0.45717944E+00 0.51031981E+04</pdfrwt>
<totfact> 0.11782563E-02</totfact>
</mgrwt>
</event>
<event>
 6    1  0.4630212E-004  0.2387463E+04  0.7818608E-02  0.8444212E-01
          2   -1    0    0  501    0  0.00000000000E+00  0.00000000000E+00  0.36456681634E+04  0.36456681634E+04  0.00000000000E+00 0.  1.
         -2   -1    0    0    0  501 -0.00000000000E+00 -0.00000000000E+00 -0.39087341541E+03  0.39087341541E+03  0.00000000000E+00 0. -1.
         23    2    1    2    0    0  0.47179335243E+02  0.74776248347E+03  0.31972734702E+04  0.32850874427E+04  0.88697469925E+02 0.  0.
         11    1    3    3    0    0  0.34582694489E+01  0.60763320193E+03  0.25605945754E+04  0.26317056536E+04  0.00000000000E+00 0. -1.
        -11    1    3    3    0    0  0.43721065794E+02  0.14012928154E+03  0.63667889483E+03  0.65338178905E+03  0.00000000000E+00 0.  1.
         22    1    1    2    0    0 -0.47179335243E+02 -0.74776248347E+03  0.57521277786E+02  0.75145413616E+03  0.00000000000E+00 0. -1.
<mgrwt>
<rscale>  0 0.23874629E+04</rscale>
<asrwt>0</asrwt>
<pdfrwt beam="1">  1        2 0.56087200E+00 0.23874629E+04</pdfrwt>
<pdfrwt beam="2">  1       -2 0.60134374E-01 0.23874629E+04</pdfrwt>
<totfact> 0.14886006E+00</totfact>
</mgrwt>
</event>
<event>
 6    1  0.4630212E-004  0.2675770E+04  0.7818608E-02  0.8342910E-01
          2   -1    0    0  501    0  0.00000000000E+00  0.00000000000E+00  0.36529748777E+04  0.36529748777E+04  0.00000000000E+00 0.  1.
         -2   -1    0    0    0  501 -0.00000000000E+00 -0.00000000000E+00 -0.48999407045E+03  0.48999407045E+03  0.00000000000E+00 0. -1.
         23    2    1    2    0    0 -0.62247742816E+03  0.92874628345E+03  0.44919878336E+03  0.12078947275E+04  0.84748558417E+02 0.  0.
         11    1    3    3    0    0 -0.43342011978E+03  0.70089401241E+03  0.35397148807E+03  0.89688417939E+03  0.00000000000E+00 0.  1.
        -11    1    3    3    0    0 -0.18905730838E+03  0.22785227104E+03  0.95227295290E+02  0.31101054812E+03  0.00000000000E+00 0. -1.
         22    1    1    2    0    0  0.62247742816E+03 -0.92874628345E+03  0.27137820239E+04  0.29350742207E+04  0.00000000000E+00 0.  1.
<mgrwt>
<rscale>  0 0.26757698E+04</rscale>
<asrwt>0</asrwt>
<pdfrwt beam="1">  1        2 0.56199612E+00 0.26757698E+04</pdfrwt>
<pdfrwt beam="2">  1       -2 0.75383705E-01 0.26757698E+04</pdfrwt>
<totfact> 0.87769401E-01</totfact>
</mgrwt>
</event>
<event>
 6    1  0.4630212E-004  0.3723442E+04  0.7818608E-02  0.8062787E-01
          2   -1    0    0  501    0  0.00000000000E+00  0.00000000000E+00  0.13208227724E+04  0.13208227724E+04  0.00000000000E+00 0.  1.
         -2   -1    0    0    0  501 -0.00000000000E+00 -0.00000000000E+00 -0.26241253348E+04  0.26241253348E+04  0.00000000000E+00 0. -1.
         23    2    1    2    0    0  0.17163568651E+04  0.47216468944E+03 -0.78716944474E+02  0.17842930403E+04  0.93192886919E+02 0.  0.
         11    1    3    3    0    0  0.11569800067E+04  0.33794930091E+03 -0.13971063674E+02  0.12054076724E+04  0.00000000000E+00 0.  1.
        -11    1    3    3    0    0  0.55937685832E+03  0.13421538853E+03 -0.64745880800E+02  0.57888536794E+03  0.00000000000E+00 0. -1.
         22    1    1    2    0    0 -0.17163568651E+04 -0.47216468944E+03 -0.12245856180E+04  0.21606550668E+04  0.00000000000E+00 0.  1.
<mgrwt>
<rscale>  0 0.37234417E+04</rscale>
<asrwt>0</asrwt>
<pdfrwt beam="1">  1        2 0.20320351E+00 0.37234417E+04</pdfrwt>
<pdfrwt beam="2">  1       -2 0.40371158E+00 0.37234417E+04</pdfrwt>
<totfact> 0.90966509E-02</totfact>
</mgrwt>
</event>
<event>
 6    1  0.4630212E-004  0.1310437E+04  0.7818608E-02  0.9021329E-01
         -2   -1    0    0    0  501 -0.00000000000E+00  0.00000000000E+00  0.18258339421E+04  0.18258339421E+04  0.00000000000E+00 0. -1.
          2   -1    0    0  501    0  0.00000000000E+00 -0.00000000000E+00 -0.23513152988E+03  0.23513152988E+03  0.00000000000E+00 0.  1.
         23    2    1    2    0    0 -0.16586355660E+03  0.26161581693E+03  0.17019044302E+04  0.17318462780E+04  0.82820807471E+02 0.  0.
         11    1    3    3    0    0 -0.10174130600E+03  0.90793478643E+02  0.82050762915E+03  0.83176169580E+03  0.00000000000E+00 0. -1.
        -11    1    3    3    0    0 -0.64122250599E+02  0.17082233829E+03  0.88139680101E+03  0.90008458220E+03  0.00000000000E+00 0.  1.
         22    1    1    2    0    0  0.16586355660E+03 -0.26161581693E+03 -0.11120201791E+03  0.32911919401E+03  0.00000000000E+00 0.  1.
<mgrwt>
<rscale>  0 0.13104368E+04</rscale>
<asrwt>0</asrwt>
<pdfrwt beam="1">  1        2 0.36174083E-01 0.13104368E+04</pdfrwt>
<pdfrwt beam="2">  1       -2 0.28089752E+00 0.13104368E+04</pdfrwt>
<totfact> 0.58978486E+00</totfact>
</mgrwt>
</event>
<event>
 6    1  0.4630212E-004  0.4376389E+04  0.7818608E-02  0.7932642E-01
          2   -1    0    0  501    0  0.00000000000E+00  0.00000000000E+00  0.13954678744E+04  0.13954678744E+04  0.00000000000E+00 0.  1.
         -2   -1    0    0    0  501 -0.00000000000E+00 -0.00000000000E+00 -0.34312477326E+04  0.34312477326E+04  0.00000000000E+00 0. -1.
         23    2    1    2    0    0 -0.20587088015E+04  0.69875454691E+03 -0.75434247132E+03  0.23031027955E+04  0.93327790952E+02 0.  0.
         11    1    3    3    0    0 -0.19938266374E+04  0.68619735910E+03 -0.74507799812E+03  0.22363704297E+04  0.00000000000E+00 0.  1.
        -11    1    3    3    0    0 -0.64882164074E+02  0.12557187808E+02 -0.92644732027E+01  0.66732365793E+02  0.00000000000E+00 0. -1.
         22    1    1    2    0    0  0.20587088015E+04 -0.69875454691E+03 -0.12814373868E+04  0.25236128115E+04  0.00000000000E+00 0.  1.
<mgrwt>
<rscale>  0 0.43763894E+04</rscale>
<asrwt>0</asrwt>
<pdfrwt beam="1">  1        2 0.21468737E+00 0.43763894E+04</pdfrwt>
<pdfrwt beam="2">  1       -2 0.52788426E+00 0.43763894E+04</pdfrwt>
<totfact> 0.12587266E-02</totfact>
</mgrwt>
</event>
<event>
 6    1  0.4630212E-004  0.2066285E+04  0.7818608E-02  0.8576242E-01
          2   -1    0    0  501    0  0.00000000000E+00  0.00000000000E+00  0.36082249520E+04  0.36082249520E+04  0.00000000000E+00 0.  1.
         -2   -1    0    0    0  501 -0.00000000000E+00 -0.00000000000E+00 -0.29581959444E+03  0.29581959444E+03  0.00000000000E+00 0. -1.
         23    2    1    2    0    0  0.55889106033E+03 -0.86176992626E+03  0.18324084820E+04  0.21025458995E+04  0.89284890343E+02 0.  0.
         13    1    3    3    0    0  0.26548123282E+03 -0.35524985938E+03  0.85766991217E+03  0.96554669789E+03  0.00000000000E+00 0. -1.
        -13    1    3    3    0    0  0.29340982751E+03 -0.50652006688E+03  0.97473856978E+03  0.11369992016E+04  0.00000000000E+00 0.  1.
         22    1    1    2    0    0 -0.55889106033E+03  0.86176992626E+03  0.14799968756E+04  0.18014986469E+04  0.00000000000E+00 0. -1.
<mgrwt>
<rscale>  0 0.20662852E+04</rscale>
<asrwt>0</asrwt>
<pdfrwt beam="1">  1        2 0.55511150E+00 0.20662852E+04</pdfrwt>
<pdfrwt beam="2">  1       -2 0.45510709E-01 0.20662852E+04</pdfrwt>
<totfact> 0.28979436E+00</totfact>
</mgrwt>
</event>
<event>
 6    1  0.4630212E-004  0.1278994E+04  0.7818608E-02  0.9046391E-01
          2   -1    0    0  501    0  0.00000000000E+00  0.00000000000E+00  0.78098127018E+03  0.78098127018E+03  0.00000000000E+00 0.  1.
         -2   -1    0    0    0  501 -0.00000000000E+00 -0.00000000000E+00 -0.52364396013E+03  0.52364396013E+03  0.00000000000E+00 0. -1.
         23    2    1    2    0    0 -0.45541088895E+03 -0.27493681309E+03  0.48526987701E+03  0.72588298712E+03  0.91814642036E+02 0.  0.
         13    1    3    3    0    0 -0.15760917459E+03 -0.51771825154E+02  0.12289328757E+03  0.20645516202E+03  0.00000000000E+00 0.  1.
        -13    1    3    3    0    0 -0.29780171436E+03 -0.22316498794E+03  0.36237658944E+03  0.51942782510E+03  0.00000000000E+00 0. -1.
         22    1    1    2    0    0  0.45541088895E+03  0.27493681309E+03 -0.22793256696E+03  0.57874224319E+03  0.00000000000E+00 0. -1.
<mgrwt>
<rscale>  0 0.12789935E+04</rscale>
<asrwt>0</asrwt>
<pdfrwt beam="1">  1        2 0.12015096E+00 0.12789935E+04</pdfrwt>
<pdfrwt beam="2">  1       -2 0.80560609E-01 0.12789935E+04</pdfrwt>
<totfact> 0.47521330E+01</totfact>
</mgrwt>
</event>
<event>
 6    1  0.4630212E-004  0.5959583E+03  0.7818608E-02  0.9913827E-01
          2   -1    0    0  501    0  0.00000000000E+00  0.00000000000E+00  0.10164455328E+04  0.10164455328E+04  0.00000000000E+00 0.  1.
         -2   -1    0    0    0  501 -0.00000000000E+00 -0.00000000000E+00 -0.87354961957E+02  0.87354961957E+02  0.00000000000E+00 0. -1.
         23    2    1    2    0    0 -0.25373931591E+03 -0.46373891480E+02  0.22683583532E+03  0.35567223582E+03  0.92271690669E+02 0.  0.
         13    1    3    3    0    0 -0.14170790864E+03 -0.68937112496E+02  0.15281898383E+03  0.21951560006E+03  0.00000000000E+00 0. -1.
        -13    1    3    3    0    0 -0.11203140727E+03  0.22563221016E+02  0.74016851489E+02  0.13615663576E+03  0.00000000000E+00 0.  1.
         22    1    1    2    0    0  0.25373931591E+03  0.46373891480E+02  0.70225473555E+03  0.74812825896E+03  0.00000000000E+00 0.  1.
<mgrwt>
<rscale>  0 0.59595826E+03</rscale>
<asrwt>0</asrwt>
<pdfrwt beam="1">  1        2 0.15637623E+00 0.59595826E+03</pdfrwt>
<pdfrwt beam="2">  1       -2 0.13439226E-01 0.59595826E+03</pdfrwt>
<totfact> 0.10448871E+03</totfact>
</mgrwt>
</event>
<event>
 6    1  0.4630212E-004  0.7114091E+03  0.7818608E-02  0.9697918E-01
         -3   -1    0    0    0  501 -0.00000000000E+00  0.00000000000E+00  0.41286493622E+03  0.41286493622E+03  0.00000000000E+00 0. -1.
          3   -1    0    0  501    0  0.00000000000E+00 -0.00000000000E+00 -0.30645787293E+03  0.30645787293E+03  0.00000000000E+00 0.  1.
         23    2    1    2    0    0 -0.31428476036E+03  0.90983019691E+02 -0.73773145067E+02  0.34580208958E+03  0.84165240795E+02 0.  0.
         11    1    3    3    0    0 -0.61071272930E+02  0.34170691553E+02 -0.48333029933E+02  0.85049505119E+02  0.00000000000E+00 0.  1.
        -11    1    3    3    0    0 -0.25321348743E+03  0.56812328138E+02 -0.25440115133E+02  0.26075258446E+03  0.00000000000E+00 0. -1.
         22    1    1    2    0    0  0.31428476036E+03 -0.90983019691E+02  0.18018020836E+03  0.37352071957E+03  0.00000000000E+00 0. -1.
<mgrwt>
<rscale>  0 0.71140905E+03</rscale>
<asrwt>0</asrwt>
<pdfrwt beam="1">  1        3 0.47147365E-01 0.71140905E+03</pdfrwt>
<pdfrwt beam="2">  1       -3 0.63517683E-01 0.71140905E+03</pdfrwt>
<totfact> 0.28351951E+01</totfact>
</mgrwt>
</event>
<event>
 6    1  0.4630212E-004  0.1181718E+04  0.7818608E-02  0.9129011E-01
          2   -1    0    0  501    0  0.00000000000E+00  0.00000000000E+00  0.51498029647E+03  0.51498029647E+03  0.00000000000E+00 0.  1.
         -2   -1    0    0    0  501 -0.00000000000E+00 -0.00000000000E+00 -0.67791832223E+03  0.67791832223E+03  0.00000000000E+00 0. -1.
         23    2    1    2    0    0 -0.33554424377E+03  0.25297637091E+03 -0.49625176343E+03  0.65653583896E+03  0.90479342187E+02 0.  0.
         13    1    3    3    0    0 -0.20887935074E+03  0.14527942286E+03 -0.23197134232E+03  0.34430712675E+03  0.00000000000E+00 0.  1.
        -13    1    3    3    0    0 -0.12666489303E+03  0.10769694806E+03 -0.26428042111E+03  0.31222871221E+03  0.00000000000E+00 0. -1.
         22    1    1    2    0    0  0.33554424377E+03 -0.25297637091E+03  0.33331373767E+03  0.53636277974E+03  0.00000000000E+00 0.  1.
<mgrwt>
<rscale>  0 0.11817184E+04</rscale>
<asrwt>0</asrwt>
<pdfrwt beam="1">  1        2 0.79227738E-01 0.11817184E+04</pdfrwt>
<pdfrwt beam="2">  1       -2 0.10429513E+00 0.11817184E+04</pdfrwt>
<totfact> 0.43912982E+01</totfact>
</mgrwt>
</event>
<event>
 6    1  0.4630212E-004  0.1228525E+04  0.7818608E-02  0.9088248E-01
          2   -1    0    0  501    0  0.00000000000E+00  0.00000000000E+00  0.15174602038E+04  0.15174602038E+04  0.00000000000E+00 0.  1.
         -2   -1    0    0    0  501 -0.00000000000E+00 -0.00000000000E+00 -0.24865142095E+03  0.24865142095E+03  0.00000000000E+00 0. -1.
         23    2    1    2    0    0 -0.11271932421E+03 -0.25472832675E+02  0.15001706006E+04  0.15074945294E+04  0.93131165571E+02 0.  0.
         11    1    3    3    0    0 -0.32806882340E+02  0.31725879013E+02  0.66449892598E+03  0.66606429536E+03  0.00000000000E+00 0. -1.
        -11    1    3    3    0    0 -0.79912441869E+02 -0.57198711688E+02  0.83567167462E+03  0.84143023404E+03  0.00000000000E+00 0.  1.
         22    1    1    2    0    0  0.11271932421E+03  0.25472832675E+02 -0.23136181779E+03  0.25861709531E+03  0.00000000000E+00 0. -1.
<mgrwt>
<rscale>  0 0.12285254E+04</rscale>
<asrwt>0</asrwt>
<pdfrwt beam="1">  1        2 0.23345541E+00 0.12285254E+04</pdfrwt>
<pdfrwt beam="2">  1       -2 0.38254066E-01 0.12285254E+04</pdfrwt>
<totfact> 0.78824279E+01</totfact>
</mgrwt>
</event>
<event>
 6    1  0.4630212E-004  0.4459383E+04  0.7818608E-02  0.7917786E-01
         -2   -1    0    0    0  501 -0.00000000000E+00  0.00000000000E+00  0.13074679438E+04  0.13074679438E+04  0.00000000000E+00 0. -1.
          2   -1    0    0  501    0  0.00000000000E+00 -0.00000000000E+00 -0.38024067263E+04  0.38024067263E+04  0.00000000000E+00 0.  1.
         23    2    1    2    0    0  0.13461672740E+04 -0.16489643361E+04 -0.20046792495E+04  0.29254744959E+04  0.91719257233E+02 0.  0.
         13    1    3    3    0    0  0.77827940099E+03 -0.97204241921E+03 -0.11124320066E+04  0.16697575453E+04  0.00000000000E+00 0.  1.
        -13    1    3    3    0    0  0.56788787296E+03 -0.67692191686E+03 -0.89224724283E+03  0.12557169506E+04  0.00000000000E+00 0. -1.
         22    1    1    2    0    0 -0.13461672740E+04  0.16489643361E+04 -0.49025953301E+03  0.21844001741E+04  0.00000000000E+00 0. -1.
<mgrwt>
<rscale>  0 0.44593833E+04</rscale>
<asrwt>0</asrwt>
<pdfrwt beam="1">  1        2 0.58498565E+00 0.44593833E+04</pdfrwt>
<pdfrwt beam="2">  1       -2 0.20114891E+00 0.44593833E+04</pdfrwt>
<totfact> 0.48442500E-02</totfact>
</mgrwt>
</event>
<event>
 6    1  0.4630212E-004  0.3031016E+04  0.7818608E-02  0.8234929E-01
         -1   -1    0    0    0  501 -0.00000000000E+00  0.00000000000E+00  0.14835352048E+04  0.14835352048E+04  0.00000000000E+00 0. -1.
          1   -1    0    0  501    0  0.00000000000E+00 -0.00000000000E+00 -0.15481696820E+04  0.15481696820E+04  0.00000000000E+00 0.  1.
         23    2    1    2    0    0  0.29891523090E+03  0.12275964498E+04 -0.86702058040E+03  0.15349862033E+04  0.90081065952E+02 0.  0.
         11    1    3    3    0    0  0.21329914199E+03  0.73030230610E+03 -0.48775565270E+03  0.90373865637E+03  0.00000000000E+00 0. -1.
        -11    1    3    3    0    0  0.85616088902E+02  0.49729414375E+03 -0.37926492770E+03  0.63124754690E+03  0.00000000000E+00 0.  1.
         22    1    1    2    0    0 -0.29891523090E+03 -0.12275964498E+04  0.80238610326E+03  0.14967186835E+04  0.00000000000E+00 0. -1.
<mgrwt>
<rscale>  0 0.30310158E+04</rscale>
<asrwt>0</asrwt>
<pdfrwt beam="1">  1        1 0.23817995E+00 0.30310158E+04</pdfrwt>
<pdfrwt beam="2">  1       -1 0.22823618E+00 0.30310158E+04</pdfrwt>
<totfact> 0.49868093E-01</totfact>
</mgrwt>
</event>
<event>
 6    1  0.4630212E-004  0.3509077E+04  0.7818608E-02  0.8111642E-01
         -2   -1    0    0    0  501 -0.00000000000E+00  0.00000000000E+00  0.13941713166E+04  0.13941713166E+04  0.00000000000E+00 0. -1.
          2   -1    0    0  501    0  0.00000000000E+00 -0.00000000000E+00 -0.22080537028E+04  0.22080537028E+04  0.00000000000E+00 0.  1.
         23    2    1    2    0    0 -0.95587372275E+03 -0.60997901822E+03 -0.17800120870E+04  0.21125352614E+04  0.92699645688E+02 0.  0.
         11    1    3    3    0    0 -0.12612352220E+03 -0.67771985224E+02 -0.28233298750E+03  0.31656294898E+03  0.00000000000E+00 0. -1.
        -11    1    3    3    0    0 -0.82975020055E+03 -0.54220703299E+03 -0.14976790995E+04  0.17959723124E+04  0.00000000000E+00 0.  1.
         22    1    1    2    0    0  0.95587372275E+03  0.60997901822E+03  0.96612970071E+03  0.14896897580E+04  0.00000000000E+00 0. -1.
<mgrwt>
<rscale>  0 0.35090769E+04</rscale>
<asrwt>0</asrwt>
<pdfrwt beam="1">  1        2 0.33970057E+00 0.35090769E+04</pdfrwt>
<pdfrwt beam="2">  1       -2 0.21448790E+00 0.35090769E+04</pdfrwt>
<totfact> 0.44963774E-01</totfact>
</mgrwt>
</event>
<event>
 6    1  0.4630212E-004  0.2225011E+04  0.7818608E-02  0.8508089E-01
         -2   -1    0    0    0  501 -0.00000000000E+00  0.00000000000E+00  0.49063736985E+03  0.49063736985E+03  0.00000000000E+00 0. -1.
          2   -1    0    0  501    0  0.00000000000E+00 -0.00000000000E+00 -0.25225734622E+04  0.25225734622E+04  0.00000000000E+00 0.  1.
         23    2    1    2    0    0  0.69931014643E+03  0.83278292560E+03 -0.71314676395E+03  0.13038930223E+04  0.94850538321E+02 0.  0.
         13    1    3    3    0    0  0.41179612727E+03  0.45562763825E+03 -0.45156642251E+03  0.76228920307E+03  0.00000000000E+00 0. -1.
        -13    1    3    3    0    0  0.28751401916E+03  0.37715528735E+03 -0.26158034144E+03  0.54160381924E+03  0.00000000000E+00 0.  1.
         22    1    1    2    0    0 -0.69931014643E+03 -0.83278292560E+03 -0.13187893284E+04  0.17093178098E+04  0.00000000000E+00 0. -1.
<mgrwt>
<rscale>  0 0.22250113E+04</rscale>
<asrwt>0</asrwt>
<pdfrwt beam="1">  1        2 0.38808822E+00 0.22250113E+04</pdfrwt>
<pdfrwt beam="2">  1       -2 0.75482673E-01 0.22250113E+04</pdfrwt>
<totfact> 0.48504275E+00</totfact>
</mgrwt>
</event>
<event>
 6    1  0.4630212E-004  0.2225258E+04  0.7818608E-02  0.8507988E-01
         -2   -1    0    0    0  501 -0.00000000000E+00  0.00000000000E+00  0.36901564126E+04  0.36901564126E+04  0.00000000000E+00 0. -1.
          2   -1    0    0  501    0  0.00000000000E+00 -0.00000000000E+00 -0.33547171467E+03  0.33547171467E+03  0.00000000000E+00 0.  1.
         23    2    1    2    0    0 -0.22598925410E+03 -0.10843290969E+04  0.18307672124E+04  0.21417052955E+04  0.91390662490E+02 0.  0.
         11    1    3    3    0    0 -0.56522197955E+02 -0.33122964712E+03  0.47997959607E+03  0.58590805647E+03  0.00000000000E+00 0.  1.
        -11    1    3    3    0    0 -0.16946705614E+03 -0.75309944983E+03  0.13507876164E+04  0.15557972390E+04  0.00000000000E+00 0. -1.
         22    1    1    2    0    0  0.22598925410E+03  0.10843290969E+04  0.15239174855E+04  0.18839228318E+04  0.00000000000E+00 0.  1.
<mgrwt>
<rscale>  0 0.22252578E+04</rscale>
<asrwt>0</asrwt>
<pdfrwt beam="1">  1        2 0.51611036E-01 0.22252578E+04</pdfrwt>
<pdfrwt beam="2">  1       -2 0.56771634E+00 0.22252578E+04</pdfrwt>
<totfact> 0.60784227E-02</totfact>
</mgrwt>
</event>
<event>
 6    1  0.4630212E-004  0.3123568E+04  0.7818608E-02  0.8209300E-01
          2   -1    0    0  501    0  0.00000000000E+00  0.00000000000E+00  0.22866592363E+04  0.22866592363E+04  0.00000000000E+00 0.  1.
         -2   -1    0    0    0  501 -0.00000000000E+00 -0.00000000000E+00 -0.10666952825E+04  0.10666952825E+04  0.00000000000E+00 0. -1.
         23    2    1    2    0    0 -0.44108741320E+03  0.76376380314E+03 -0.77141790522E+03  0.11753979164E+04  0.92635977752E+02 0.  0.
         13    1    3    3    0    0 -0.76020540162E+02  0.10868649892E+03 -0.15985893820E+03  0.20771797635E+03  0.00000000000E+00 0. -1.
        -13    1    3    3    0    0 -0.36506687304E+03  0.65507730422E+03 -0.61155896701E+03  0.96767994008E+03  0.00000000000E+00 0.  1.
         22    1    1    2    0    0  0.44108741320E+03 -0.76376380314E+03  0.19913818591E+04  0.21779566024E+04  0.00000000000E+00 0.  1.
<mgrwt>
<rscale>  0 0.31235676E+04</rscale>
<asrwt>0</asrwt>
<pdfrwt beam="1">  1        2 0.35179373E+00 0.31235676E+04</pdfrwt>
<pdfrwt beam="2">  1       -2 0.16410697E+00 0.31235676E+04</pdfrwt>
<totfact> 0.91862670E-01</totfact>
</mgrwt>
</event>
<event>
 6    1  0.4630212E-004  0.2189924E+04  0.7818608E-02  0.8522634E-01
         -2   -1    0    0    0  501 -0.00000000000E+00  0.00000000000E+00  0.10185186298E+04  0.10185186298E+04  0.00000000000E+00 0. -1.
          2   -1    0    0  501    0  0.00000000000E+00 -0.00000000000E+00 -0.11771428510E+04  0.11771428510E+04  0.00000000000E+00 0.  1.
         23    2    1    2    0    0 -0.27103404730E+03 -0.61541605604E+03  0.78438456344E+03  0.10374464987E+04  0.94019771956E+02 0.  0.
         13    1    3    3    0    0 -0.27550182461E+03 -0.56765361051E+03  0.73209432169E+03  0.96648537119E+03  0.00000000000E+00 0.  1.
        -13    1    3    3    0    0  0.44677773098E+01 -0.47762445536E+02  0.52290241749E+02  0.70961127527E+02  0.00000000000E+00 0. -1.
         22    1    1    2    0    0  0.27103404730E+03  0.61541605604E+03 -0.94300878458E+03  0.11582149820E+04  0.00000000000E+00 0.  1.
<mgrwt>
<rscale>  0 0.21899241E+04</rscale>
<asrwt>0</asrwt>
<pdfrwt beam="1">  1        2 0.18109890E+00 0.21899241E+04</pdfrwt>
<pdfrwt beam="2">  1       -2 0.15669517E+00 0.21899241E+04</pdfrwt>
<totfact> 0.47676009E+00</totfact>
</mgrwt>
</event>
<event>
 6    1  0.4630212E-004  0.2551743E+04  0.7818608E-02  0.8384780E-01
          2   -1    0    0  501    0  0.00000000000E+00  0.00000000000E+00  0.88635960786E+03  0.88635960786E+03  0.00000000000E+00 0.  1.
         -2   -1    0    0    0  501 -0.00000000000E+00 -0.00000000000E+00 -0.18365542889E+04  0.18365542889E+04  0.00000000000E+00 0. -1.
         23    2    1    2    0    0 -0.14550026659E+03  0.91168026049E+03  0.46193363139E+03  0.10357750182E+04  0.84356289011E+02 0.  0.
         11    1    3    3    0    0 -0.11189936820E+03  0.44587362347E+03  0.24329364173E+03  0.52011205794E+03  0.00000000000E+00 0. -1.
        -11    1    3    3    0    0 -0.33600898382E+02  0.46580663702E+03  0.21863998966E+03  0.51566296022E+03  0.00000000000E+00 0.  1.
         22    1    1    2    0    0  0.14550026659E+03 -0.91168026049E+03 -0.14121283124E+04  0.16871388786E+04  0.00000000000E+00 0. -1.
<mgrwt>
<rscale>  0 0.25517426E+04</rscale>
<asrwt>0</asrwt>
<pdfrwt beam="1">  1        2 0.13636302E+00 0.25517426E+04</pdfrwt>
<pdfrwt beam="2">  1       -2 0.28254681E+00 0.25517426E+04</pdfrwt>
<totfact> 0.10809618E+00</totfact>
</mgrwt>
</event>
<event>
 6    1  0.4630212E-004  0.4141535E+04  0.7818608E-02  0.7976588E-01
          2   -1    0    0  501    0  0.00000000000E+00  0.00000000000E+00  0.15835536196E+04  0.15835536196E+04  0.00000000000E+00 0.  1.
         -2   -1    0    0    0  501 -0.00000000000E+00 -0.00000000000E+00 -0.27078824904E+04  0.27078824904E+04  0.00000000000E+00 0. -1.
         23    2    1    2    0    0 -0.89097499025E+03  0.27344265938E+03 -0.24773722362E+04  0.26484712078E+04  0.91756309787E+02 0.  0.
         11    1    3    3    0    0 -0.21893491485E+03  0.54734103402E+02 -0.71126132896E+03  0.74620439364E+03  0.00000000000E+00 0. -1.
        -11    1    3    3    0    0 -0.67204007540E+03  0.21870855598E+03 -0.17661109073E+04  0.19022668141E+04  0.00000000000E+00 0.  1.
         22    1    1    2    0    0  0.89097499025E+03 -0.27344265938E+03  0.13530433654E+04  0.16429649022E+04  0.00000000000E+00 0.  1.
<mgrwt>
<rscale>  0 0.41415346E+04</rscale>
<asrwt>0</asrwt>
<pdfrwt beam="1">  1        2 0.24362364E+00 0.41415346E+04</pdfrwt>
<pdfrwt beam="2">  1       -2 0.41659730E+00 0.41415346E+04</pdfrwt>
<totfact> 0.51286911E-02</totfact>
</mgrwt>
</event>
<event>
 6    1  0.4630212E-004  0.2092655E+04  0.7818608E-02  0.8564486E-01
          1   -1    0    0  501    0  0.00000000000E+00  0.00000000000E+00  0.24381122905E+04  0.24381122905E+04  0.00000000000E+00 0. -1.
         -1   -1    0    0    0  501 -0.00000000000E+00 -0.00000000000E+00 -0.44903648026E+03  0.44903648026E+03  0.00000000000E+00 0.  1.
         23    2    1    2    0    0 -0.99786608423E+03 -0.28661868511E+03  0.11519671491E+04  0.15534929294E+04  0.91787669459E+02 0.  0.
         13    1    3    3    0    0 -0.63556682262E+03 -0.21423908601E+03  0.69493781173E+03  0.96580646827E+03  0.00000000000E+00 0.  1.
        -13    1    3    3    0    0 -0.36229926161E+03 -0.72379599101E+02  0.45702933738E+03  0.58768646110E+03  0.00000000000E+00 0. -1.
         22    1    1    2    0    0  0.99786608423E+03  0.28661868511E+03  0.83710866112E+03  0.13336558414E+04  0.00000000000E+00 0.  1.
<mgrwt>
<rscale>  0 0.20926551E+04</rscale>
<asrwt>0</asrwt>
<pdfrwt beam="1">  1        1 0.37509419E+00 0.20926551E+04</pdfrwt>
<pdfrwt beam="2">  1       -1 0.69082536E-01 0.20926551E+04</pdfrwt>
<totfact> 0.29176599E+00</totfact>
</mgrwt>
</event>
<event>
 6    1  0.4630212E-004  0.3180056E+04  0.7818608E-02  0.8194104E-01
          2   -1    0    0  501    0  0.00000000000E+00  0.00000000000E+00  0.10214415429E+04  0.10214415429E+04  0.00000000000E+00 0.  1.
         -2   -1    0    0    0  501 -0.00000000000E+00 -0.00000000000E+00 -0.24751193979E+04  0.24751193979E+04  0.00000000000E+00 0. -1.
         23    2    1    2    0    0  0.39044065908E+03  0.81652816194E+03 -0.21631125106E+04  0.23465784721E+04  0.90623643042E+02 0.  0.
         13    1    3    3    0    0  0.22302390357E+03  0.44847486730E+03 -0.10812696637E+04  0.11916431738E+04  0.00000000000E+00 0.  1.
        -13    1    3    3    0    0  0.16741675551E+03  0.36805329464E+03 -0.10818428470E+04  0.11549352983E+04  0.00000000000E+00 0. -1.
         22    1    1    2    0    0 -0.39044065908E+03 -0.81652816194E+03  0.70943465566E+03  0.11499824686E+04  0.00000000000E+00 0.  1.
<mgrwt>
<rscale>  0 0.31800565E+04</rscale>
<asrwt>0</asrwt>
<pdfrwt beam="1">  1        2 0.15714486E+00 0.31800565E+04</pdfrwt>
<pdfrwt beam="2">  1       -2 0.38078759E+00 0.31800565E+04</pdfrwt>
<totfact> 0.20355401E-01</totfact>
</mgrwt>
</event>
<event>
 6    1  0.7544852E-004  0.4426117E+04  0.7818608E-02  0.7923701E-01
         -2   -1    0    0    0  501 -0.00000000000E+00  0.00000000000E+00  0.16019544362E+04  0.16019544362E+04  0.00000000000E+00 0. -1.
          2   -1    0    0  501    0  0.00000000000E+00 -0.00000000000E+00 -0.30572825206E+04  0.30572825206E+04  0.00000000000E+00 0.  1.
         23    2    1    2    0    0 -0.10817152994E+04 -0.19142536876E+04 -0.98389427910E+03  0.24105206559E+04  0.89926142243E+02 0.  0.
         13    1    3    3    0    0 -0.54246430242E+03 -0.95087719614E+03 -0.44086176648E+03  0.11801669622E+04  0.00000000000E+00 0.  1.
        -13    1    3    3    0    0 -0.53925099694E+03 -0.96337649142E+03 -0.54303251261E+03  0.12303536937E+04  0.00000000000E+00 0. -1.
         22    1    1    2    0    0  0.10817152994E+04  0.19142536876E+04 -0.47143380529E+03  0.22487163009E+04  0.00000000000E+00 0.  1.
<mgrwt>
<rscale>  0 0.44261167E+04</rscale>
<asrwt>0</asrwt>
<pdfrwt beam="1">  1        2 0.47035116E+00 0.44261167E+04</pdfrwt>
<pdfrwt beam="2">  1       -2 0.24645453E+00 0.44261167E+04</pdfrwt>
<totfact> 0.82472475E-02</totfact>
</mgrwt>
</event>
<event>
 6    1  0.4630212E-004  0.4338169E+04  0.7818608E-02  0.7939598E-01
         -2   -1    0    0    0  501 -0.00000000000E+00  0.00000000000E+00  0.18062880765E+04  0.18062880765E+04  0.00000000000E+00 0.  1.
          2   -1    0    0  501    0  0.00000000000E+00 -0.00000000000E+00 -0.26047491675E+04  0.26047491675E+04  0.00000000000E+00 0. -1.
         23    2    1    2    0    0  0.12190884532E+04  0.64760196022E+03  0.13003083423E+04  0.18989866694E+04  0.98912234310E+02 0.  0.
         11    1    3    3    0    0  0.77268536585E+03  0.46382872529E+03  0.84619718445E+03  0.12362157724E+04  0.00000000000E+00 0. -1.
        -11    1    3    3    0    0  0.44640308734E+03  0.18377323493E+03  0.45411115781E+03  0.66277089700E+03  0.00000000000E+00 0.  1.
         22    1    1    2    0    0 -0.12190884532E+04 -0.64760196022E+03 -0.20987694332E+04  0.25120505746E+04  0.00000000000E+00 0. -1.
<mgrwt>
<rscale>  0 0.43381689E+04</rscale>
<asrwt>0</asrwt>
<pdfrwt beam="1">  1        2 0.40073064E+00 0.43381689E+04</pdfrwt>
<pdfrwt beam="2">  1       -2 0.27789047E+00 0.43381689E+04</pdfrwt>
<totfact> 0.10068755E-01</totfact>
</mgrwt>
</event>
<event>
 6    1  0.4630212E-004  0.1067448E+04  0.7818608E-02  0.9237513E-01
          2   -1    0    0  501    0  0.00000000000E+00  0.00000000000E+00  0.39608755161E+04  0.39608755161E+04  0.00000000000E+00 0.  1.
         -2   -1    0    0    0  501 -0.00000000000E+00 -0.00000000000E+00 -0.71918779903E+02  0.71918779903E+02  0.00000000000E+00 0. -1.
         23    2    1    2    0    0 -0.20662931164E+03 -0.24235316281E+03  0.35583710851E+04  0.35737544277E+04  0.91023087173E+02 0.  0.
         11    1    3    3    0    0 -0.11341025867E+03 -0.65382427945E+02  0.13332578086E+04  0.13396690385E+04  0.00000000000E+00 0. -1.
        -11    1    3    3    0    0 -0.93219052974E+02 -0.17697073486E+03  0.22251132766E+04  0.22340853892E+04  0.00000000000E+00 0.  1.
         22    1    1    2    0    0  0.20662931164E+03  0.24235316281E+03  0.33058565104E+03  0.45903986823E+03  0.00000000000E+00 0. -1.
<mgrwt>
<rscale>  0 0.10674480E+04</rscale>
<asrwt>0</asrwt>
<pdfrwt beam="1">  1        2 0.60936529E+00 0.10674480E+04</pdfrwt>
<pdfrwt beam="2">  1       -2 0.11064431E-01 0.10674480E+04</pdfrwt>
<totfact> 0.22421620E+01</totfact>
</mgrwt>
</event>
<event>
 6    1  0.4630212E-004  0.1813264E+04  0.7818608E-02  0.8699277E-01
          2   -1    0    0  501    0  0.00000000000E+00  0.00000000000E+00  0.16408915538E+04  0.16408915538E+04  0.00000000000E+00 0.  1.
         -2   -1    0    0    0  501 -0.00000000000E+00 -0.00000000000E+00 -0.50093611051E+03  0.50093611051E+03  0.00000000000E+00 0. -1.
         23    2    1    2    0    0 -0.66603069836E+03  0.19913064803E+03 -0.11186130533E+03  0.70994251588E+03  0.90859881600E+02 0.  0.
         11    1    3    3    0    0 -0.31779360253E+03  0.11332223625E+03 -0.11832615970E+02  0.33760141267E+03  0.00000000000E+00 0. -1.
        -11    1    3    3    0    0 -0.34823709583E+03  0.85808411778E+02 -0.10002868936E+03  0.37234110321E+03  0.00000000000E+00 0.  1.
         22    1    1    2    0    0  0.66603069836E+03 -0.19913064803E+03  0.12518167486E+04  0.14318851484E+04  0.00000000000E+00 0.  1.
<mgrwt>
<rscale>  0 0.18132643E+04</rscale>
<asrwt>0</asrwt>
<pdfrwt beam="1">  1        2 0.25244485E+00 0.18132643E+04</pdfrwt>
<pdfrwt beam="2">  1       -2 0.77067095E-01 0.18132643E+04</pdfrwt>
<totfact> 0.14995679E+01</totfact>
</mgrwt>
</event>
<event>
 6    1  0.4630212E-004  0.5347749E+03  0.7818608E-02  0.1005081E+00
         -1   -1    0    0    0  501 -0.00000000000E+00  0.00000000000E+00  0.19537658797E+03  0.19537658797E+03  0.00000000000E+00 0. -1.
          1   -1    0    0  501    0  0.00000000000E+00 -0.00000000000E+00 -0.36593968341E+03  0.36593968341E+03  0.00000000000E+00 0.  1.
         23    2    1    2    0    0  0.19757277179E+03  0.15528529539E+03 -0.16289826279E+03  0.30990570521E+03  0.79731919471E+02 0.  0.
         11    1    3    3    0    0  0.20693541006E+02 -0.74158080424E+00 -0.37362546319E+02  0.42716887163E+02  0.00000000000E+00 0.  1.
        -11    1    3    3    0    0  0.17687923079E+03  0.15602687620E+03 -0.12553571647E+03  0.26718881805E+03  0.00000000000E+00 0. -1.
         22    1    1    2    0    0 -0.19757277179E+03 -0.15528529539E+03 -0.76648326483E+01  0.25141056616E+03  0.00000000000E+00 0. -1.
<mgrwt>
<rscale>  0 0.53477489E+03</rscale>
<asrwt>0</asrwt>
<pdfrwt beam="1">  1        1 0.56298413E-01 0.53477489E+03</pdfrwt>
<pdfrwt beam="2">  1       -1 0.30057937E-01 0.53477489E+03</pdfrwt>
<totfact> 0.69189946E+02</totfact>
</mgrwt>
</event>
<event>
 6    1  0.4630212E-004  0.2028855E+04  0.7818608E-02  0.8593248E-01
         -2   -1    0    0    0  501 -0.00000000000E+00  0.00000000000E+00  0.10141312069E+04  0.10141312069E+04  0.00000000000E+00 0. -1.
          2   -1    0    0  501    0  0.00000000000E+00 -0.00000000000E+00 -0.10147238821E+04  0.10147238821E+04  0.00000000000E+00 0.  1.
         23    2    1    2    0    0 -0.30208323667E+03  0.52892242036E+03 -0.80900550195E+03  0.10166572294E+04  0.89937818450E+02 0.  0.
         11    1    3    3    0    0 -0.23877175826E+03  0.33965723485E+03 -0.51944566423E+03  0.66498329890E+03  0.00000000000E+00 0. -1.
        -11    1    3    3    0    0 -0.63311478407E+02  0.18926518551E+03 -0.28955983772E+03  0.35167393046E+03  0.00000000000E+00 0.  1.
         22    1    1    2    0    0  0.30208323667E+03 -0.52892242036E+03  0.80841282672E+03  0.10121978596E+04  0.00000000000E+00 0. -1.
<mgrwt>
<rscale>  0 0.20288550E+04</rscale>
<asrwt>0</asrwt>
<pdfrwt beam="1">  1        2 0.15611137E+00 0.20288550E+04</pdfrwt>
<pdfrwt beam="2">  1       -2 0.15602019E+00 0.20288550E+04</pdfrwt>
<totfact> 0.61607349E+00</totfact>
</mgrwt>
</event>
<event>
 6    1  0.4630212E-004  0.2148734E+04  0.7818608E-02  0.8540074E-01
          2   -1    0    0  501    0  0.00000000000E+00  0.00000000000E+00  0.16316838780E+04  0.16316838780E+04  0.00000000000E+00 0.  1.
         -2   -1    0    0    0  501 -0.00000000000E+00 -0.00000000000E+00 -0.70740719816E+03  0.70740719816E+03  0.00000000000E+00 0. -1.
         23    2    1    2    0    0 -0.62969392727E+03 -0.84497196276E+03  0.67970181973E+03  0.12572829037E+04  0.90959750336E+02 0.  0.
         13    1    3    3    0    0 -0.45202117217E+03 -0.54096162714E+03  0.47375468301E+03  0.84935629850E+03  0.00000000000E+00 0. -1.
        -13    1    3    3    0    0 -0.17767275510E+03 -0.30401033561E+03  0.20594713672E+03  0.40792660515E+03  0.00000000000E+00 0.  1.
         22    1    1    2    0    0  0.62969392727E+03  0.84497196276E+03  0.24457486011E+03  0.10818081725E+04  0.00000000000E+00 0. -1.
<mgrwt>
<rscale>  0 0.21487344E+04</rscale>
<asrwt>0</asrwt>
<pdfrwt beam="1">  1        2 0.25102829E+00 0.21487344E+04</pdfrwt>
<pdfrwt beam="2">  1       -2 0.10883188E+00 0.21487344E+04</pdfrwt>
<totfact> 0.66262333E+00</totfact>
</mgrwt>
</event>
<event>
 6    1  0.4630212E-004  0.1049084E+04  0.7818608E-02  0.9256290E-01
         -2   -1    0    0    0  501 -0.00000000000E+00  0.00000000000E+00  0.32562708763E+03  0.32562708763E+03  0.00000000000E+00 0. -1.
          2   -1    0    0  501    0  0.00000000000E+00 -0.00000000000E+00 -0.84496747071E+03  0.84496747071E+03  0.00000000000E+00 0.  1.
         23    2    1    2    0    0 -0.12560976105E+03  0.40407496749E+03  0.76645419660E+02  0.43966811300E+03  0.91537630566E+02 0.  0.
         11    1    3    3    0    0 -0.11490834480E+03  0.21943853287E+03  0.51776290893E+02  0.25305726963E+03  0.00000000000E+00 0.  1.
        -11    1    3    3    0    0 -0.10701416258E+02  0.18463643462E+03  0.24869128767E+02  0.18661084337E+03  0.00000000000E+00 0. -1.
         22    1    1    2    0    0  0.12560976105E+03 -0.40407496749E+03 -0.59598580275E+03  0.73092644534E+03  0.00000000000E+00 0.  1.
<mgrwt>
<rscale>  0 0.10490840E+04</rscale>
<asrwt>0</asrwt>
<pdfrwt beam="1">  1        2 0.12999499E+00 0.10490840E+04</pdfrwt>
<pdfrwt beam="2">  1       -2 0.50096475E-01 0.10490840E+04</pdfrwt>
<totfact> 0.12009181E+02</totfact>
</mgrwt>
</event>
<event>
 6    1  0.4630212E-004  0.3748698E+04  0.7818608E-02  0.8057255E-01
          2   -1    0    0  501    0  0.00000000000E+00  0.00000000000E+00  0.14001793072E+04  0.14001793072E+04  0.00000000000E+00 0.  1.
         -2   -1    0    0    0  501 -0.00000000000E+00 -0.00000000000E+00 -0.25090959652E+04  0.25090959652E+04  0.00000000000E+00 0. -1.
         23    2    1    2    0    0 -0.36340167251E+03 -0.17460551495E+04  0.42843316442E+02  0.17862301953E+04  0.89517597913E+02 0.  0.
         13    1    3    3    0    0 -0.17249239305E+03 -0.75948694426E+03  0.60818814969E+02  0.78119970072E+03  0.00000000000E+00 0.  1.
        -13    1    3    3    0    0 -0.19090927946E+03 -0.98656820520E+03 -0.17975498527E+02  0.10050304946E+04  0.00000000000E+00 0. -1.
         22    1    1    2    0    0  0.36340167251E+03  0.17460551495E+04 -0.11517599745E+04  0.21230450771E+04  0.00000000000E+00 0. -1.
<mgrwt>
<rscale>  0 0.37486980E+04</rscale>
<asrwt>0</asrwt>
<pdfrwt beam="1">  1        2 0.21541220E+00 0.37486980E+04</pdfrwt>
<pdfrwt beam="2">  1       -2 0.38601476E+00 0.37486980E+04</pdfrwt>
<totfact> 0.10656825E-01</totfact>
</mgrwt>
</event>
<event>
 6    1  0.4630212E-004  0.1909752E+04  0.7818608E-02  0.8650017E-01
         -2   -1    0    0    0  501 -0.00000000000E+00  0.00000000000E+00  0.42761235474E+03  0.42761235474E+03  0.00000000000E+00 0. -1.
          2   -1    0    0  501    0  0.00000000000E+00 -0.00000000000E+00 -0.21322785344E+04  0.21322785344E+04  0.00000000000E+00 0.  1.
         23    2    1    2    0    0  0.44736483760E+03  0.82176244872E+03 -0.10952150192E+04  0.14432622413E+04  0.89895155413E+02 0.  0.
         11    1    3    3    0    0  0.98553137799E+02  0.14846422516E+03 -0.16217478237E+03  0.24094606691E+03  0.00000000000E+00 0. -1.
        -11    1    3    3    0    0  0.34881169980E+03  0.67329822356E+03 -0.93304023684E+03  0.12023161744E+04  0.00000000000E+00 0.  1.
         22    1    1    2    0    0 -0.44736483760E+03 -0.82176244872E+03 -0.60945116041E+03  0.11166286477E+04  0.00000000000E+00 0. -1.
<mgrwt>
<rscale>  0 0.19097525E+04</rscale>
<asrwt>0</asrwt>
<pdfrwt beam="1">  1        2 0.32804286E+00 0.19097525E+04</pdfrwt>
<pdfrwt beam="2">  1       -2 0.65786515E-01 0.19097525E+04</pdfrwt>
<totfact> 0.11221339E+01</totfact>
</mgrwt>
</event>
<event>
 6    1  0.4630212E-004  0.2775472E+04  0.7818608E-02  0.8310924E-01
         -2   -1    0    0    0  501 -0.00000000000E+00  0.00000000000E+00  0.45740258205E+03  0.45740258205E+03  0.00000000000E+00 0. -1.
          2   -1    0    0  501    0  0.00000000000E+00 -0.00000000000E+00 -0.42103197250E+04  0.42103197250E+04  0.00000000000E+00 0.  1.
         23    2    1    2    0    0 -0.72115718588E+03 -0.89151542845E+03 -0.56792740539E+03  0.12826038343E+04  0.87542059226E+02 0.  0.
         13    1    3    3    0    0 -0.36516854416E+03 -0.43640390629E+03 -0.23413961118E+03  0.61531926070E+03  0.00000000000E+00 0.  1.
        -13    1    3    3    0    0 -0.35598864172E+03 -0.45511152217E+03 -0.33378779421E+03  0.66728457363E+03  0.00000000000E+00 0. -1.
         22    1    1    2    0    0  0.72115718588E+03  0.89151542845E+03 -0.31849897375E+04  0.33851184727E+04  0.00000000000E+00 0.  1.
<mgrwt>
<rscale>  0 0.27754719E+04</rscale>
<asrwt>0</asrwt>
<pdfrwt beam="1">  1        2 0.64774146E+00 0.27754719E+04</pdfrwt>
<pdfrwt beam="2">  1       -2 0.70369631E-01 0.27754719E+04</pdfrwt>
<totfact> 0.36542013E-01</totfact>
</mgrwt>
</event>
<event>
 6    1  0.4630212E-004  0.3580047E+03  0.7818608E-02  0.1059377E+00
         -2   -1    0    0    0  501 -0.00000000000E+00  0.00000000000E+00  0.27170151807E+02  0.27170151807E+02  0.00000000000E+00 0. -1.
          2   -1    0    0  501    0  0.00000000000E+00 -0.00000000000E+00 -0.11793028357E+04  0.11793028357E+04  0.00000000000E+00 0.  1.
         23    2    1    2    0    0  0.21761995542E+02 -0.33061240489E+02 -0.11615353895E+04  0.11657907931E+04  0.91307623976E+02 0.  0.
         13    1    3    3    0    0  0.44550235559E+02 -0.52493097452E+02 -0.74174255659E+03  0.74493104985E+03  0.00000000000E+00 0. -1.
        -13    1    3    3    0    0 -0.22788240017E+02  0.19431856963E+02 -0.41979283290E+03  0.42085974326E+03  0.00000000000E+00 0.  1.
         22    1    1    2    0    0 -0.21761995542E+02  0.33061240489E+02  0.94027055535E+01  0.40682194439E+02  0.00000000000E+00 0. -1.
<mgrwt>
<rscale>  0 0.35800468E+03</rscale>
<asrwt>0</asrwt>
<pdfrwt beam="1">  1        2 0.18143119E+00 0.35800468E+03</pdfrwt>
<pdfrwt beam="2">  1       -2 0.41800237E-02 0.35800468E+03</pdfrwt>
<totfact> 0.53012723E+03</totfact>
</mgrwt>
</event>
<event>
 6    1  0.4630212E-004  0.5087471E+03  0.7818608E-02  0.1011521E+00
         -2   -1    0    0    0  501 -0.00000000000E+00  0.00000000000E+00  0.28597138613E+02  0.28597138613E+02  0.00000000000E+00 0. -1.
          2   -1    0    0  501    0  0.00000000000E+00 -0.00000000000E+00 -0.22626702369E+04  0.22626702369E+04  0.00000000000E+00 0.  1.
         23    2    1    2    0    0  0.11710462098E+03  0.21091927253E+03 -0.92784153289E+03  0.96294462324E+03  0.90399145366E+02 0.  0.
         13    1    3    3    0    0  0.85740021551E+02  0.18717540297E+03 -0.63672225360E+03  0.66917950582E+03  0.00000000000E+00 0.  1.
        -13    1    3    3    0    0  0.31364599434E+02  0.23743869559E+02 -0.29111927929E+03  0.29376511742E+03  0.00000000000E+00 0. -1.
         22    1    1    2    0    0 -0.11710462098E+03 -0.21091927253E+03 -0.13062315654E+04  0.13283227523E+04  0.00000000000E+00 0. -1.
<mgrwt>
<rscale>  0 0.50874707E+03</rscale>
<asrwt>0</asrwt>
<pdfrwt beam="1">  1        2 0.34810309E+00 0.50874707E+03</pdfrwt>
<pdfrwt beam="2">  1       -2 0.43995600E-02 0.50874707E+03</pdfrwt>
<totfact> 0.12547825E+03</totfact>
</mgrwt>
</event>
<event>
 6    1  0.4630212E-004  0.4837689E+04  0.7818608E-02  0.7854045E-01
          2   -1    0    0  501    0  0.00000000000E+00  0.00000000000E+00  0.24876331324E+04  0.24876331324E+04  0.00000000000E+00 0.  1.
         -2   -1    0    0    0  501 -0.00000000000E+00 -0.00000000000E+00 -0.23519579209E+04  0.23519579209E+04  0.00000000000E+00 0. -1.
         23    2    1    2    0    0  0.14537129943E+04  0.16369145466E+04  0.10945411329E+04  0.24495712714E+04  0.98022544502E+02 0.  0.
         11    1    3    3    0    0  0.12599315912E+04  0.13659519902E+04  0.92481929349E+03  0.20757030567E+04  0.00000000000E+00 0. -1.
        -11    1    3    3    0    0  0.19378140312E+03  0.27096255640E+03  0.16972183936E+03  0.37386821464E+03  0.00000000000E+00 0.  1.
         22    1    1    2    0    0 -0.14537129943E+04 -0.16369145466E+04 -0.95886592135E+03  0.23900197819E+04  0.00000000000E+00 0. -1.
<mgrwt>
<rscale>  0 0.48376889E+04</rscale>
<asrwt>0</asrwt>
<pdfrwt beam="1">  1        2 0.38271279E+00 0.48376889E+04</pdfrwt>
<pdfrwt beam="2">  1       -2 0.36183968E+00 0.48376889E+04</pdfrwt>
<totfact> 0.34167660E-02</totfact>
</mgrwt>
</event>
<event>
 6    1  0.4630212E-004  0.3448722E+04  0.7818608E-02  0.8126051E-01
          2   -1    0    0  501    0  0.00000000000E+00  0.00000000000E+00  0.30943223577E+04  0.30943223577E+04  0.00000000000E+00 0.  1.
         -2   -1    0    0    0  501 -0.00000000000E+00 -0.00000000000E+00 -0.96092793488E+03  0.96092793488E+03  0.00000000000E+00 0. -1.
         23    2    1    2    0    0 -0.16208128873E+04 -0.56566550697E+03  0.89667547658E+03  0.19394795977E+04  0.10267579268E+03 0.  0.
         13    1    3    3    0    0 -0.68151045532E+03 -0.23574746657E+03  0.43403457432E+03  0.84167652956E+03  0.00000000000E+00 0.  1.
        -13    1    3    3    0    0 -0.93930243193E+03 -0.32991804041E+03  0.46264090226E+03  0.10978030682E+04  0.00000000000E+00 0. -1.
         22    1    1    2    0    0  0.16208128873E+04  0.56566550697E+03  0.12367189463E+04  0.21157706949E+04  0.00000000000E+00 0.  1.
<mgrwt>
<rscale>  0 0.34487220E+04</rscale>
<asrwt>0</asrwt>
<pdfrwt beam="1">  1        2 0.47604959E+00 0.34487220E+04</pdfrwt>
<pdfrwt beam="2">  1       -2 0.14783507E+00 0.34487220E+04</pdfrwt>
<totfact> 0.38955653E-01</totfact>
</mgrwt>
</event>
<event>
 6    1  0.4630212E-004  0.1666158E+04  0.7818608E-02  0.8780904E-01
         -2   -1    0    0    0  501 -0.00000000000E+00  0.00000000000E+00  0.56406759198E+03  0.56406759198E+03  0.00000000000E+00 0. -1.
          2   -1    0    0  501    0  0.00000000000E+00 -0.00000000000E+00 -0.12303858745E+04  0.12303858745E+04  0.00000000000E+00 0.  1.
         23    2    1    2    0    0  0.70628549153E+03 -0.15642576570E+03  0.10545661406E+03  0.73665163876E+03  0.90699083333E+02 0.  0.
         13    1    3    3    0    0  0.29553060386E+03 -0.20006819624E+02  0.39007499220E+02  0.29876444843E+03  0.00000000000E+00 0.  1.
        -13    1    3    3    0    0  0.41075488767E+03 -0.13641894607E+03  0.66449114843E+02  0.43788719033E+03  0.00000000000E+00 0. -1.
         22    1    1    2    0    0 -0.70628549153E+03  0.15642576570E+03 -0.77177489658E+03  0.10578018277E+04  0.00000000000E+00 0.  1.
<mgrwt>
<rscale>  0 0.16661582E+04</rscale>
<asrwt>0</asrwt>
<pdfrwt beam="1">  1        2 0.18929013E+00 0.16661582E+04</pdfrwt>
<pdfrwt beam="2">  1       -2 0.86779630E-01 0.16661582E+04</pdfrwt>
<totfact> 0.19921203E+01</totfact>
</mgrwt>
</event>
<event>
 6    1  0.4630212E-004  0.2462194E+04  0.7818608E-02  0.8416579E-01
         -1   -1    0    0    0  501 -0.00000000000E+00  0.00000000000E+00  0.82378242510E+03  0.82378242510E+03  0.00000000000E+00 0. -1.
          1   -1    0    0  501    0  0.00000000000E+00 -0.00000000000E+00 -0.18398056565E+04  0.18398056565E+04  0.00000000000E+00 0.  1.
         23    2    1    2    0    0 -0.81389695100E+03  0.28029280290E+02 -0.15050416408E+04  0.17136655099E+04  0.91023359321E+02 0.  0.
         13    1    3    3    0    0 -0.50372598291E+03  0.50337977403E+02 -0.86981057082E+03  0.10064016131E+04  0.00000000000E+00 0. -1.
        -13    1    3    3    0    0 -0.31017096809E+03 -0.22308697113E+02 -0.63523107000E+03  0.70726389679E+03  0.00000000000E+00 0.  1.
         22    1    1    2    0    0  0.81389695100E+03 -0.28029280290E+02  0.48901840942E+03  0.94992257166E+03  0.00000000000E+00 0.  1.
<mgrwt>
<rscale>  0 0.24621938E+04</rscale>
<asrwt>0</asrwt>
<pdfrwt beam="1">  1        1 0.28304702E+00 0.24621938E+04</pdfrwt>
<pdfrwt beam="2">  1       -1 0.12673576E+00 0.24621938E+04</pdfrwt>
<totfact> 0.18445383E+00</totfact>
</mgrwt>
</event>
<event>
 6    1  0.4630212E-004  0.1447333E+04  0.7818608E-02  0.8920252E-01
         -2   -1    0    0    0  501 -0.00000000000E+00  0.00000000000E+00  0.91960172603E+03  0.91960172603E+03  0.00000000000E+00 0.  1.
          2   -1    0    0  501    0  0.00000000000E+00 -0.00000000000E+00 -0.56947820792E+03  0.56947820792E+03  0.00000000000E+00 0. -1.
         23    2    1    2    0    0 -0.66181260063E+03 -0.24468359288E+03  0.23333884317E+02  0.71148270934E+03  0.88301735823E+02 0.  0.
         13    1    3    3    0    0 -0.38995601310E+03 -0.10995661281E+03 -0.16334228969E+02  0.40549100593E+03  0.00000000000E+00 0.  1.
        -13    1    3    3    0    0 -0.27185658754E+03 -0.13472698007E+03  0.39668113286E+02  0.30599170341E+03  0.00000000000E+00 0. -1.
         22    1    1    2    0    0  0.66181260063E+03  0.24468359288E+03  0.32678963379E+03  0.77759722462E+03  0.00000000000E+00 0.  1.
<mgrwt>
<rscale>  0 0.14473329E+04</rscale>
<asrwt>0</asrwt>
<pdfrwt beam="1">  1        2 0.87612032E-01 0.14473329E+04</pdfrwt>
<pdfrwt beam="2">  1       -2 0.14147719E+00 0.14473329E+04</pdfrwt>
<totfact> 0.17891261E+01</totfact>
</mgrwt>
</event>
<event>
 6    1  0.4630212E-004  0.3010833E+04  0.7818608E-02  0.8240644E-01
         -2   -1    0    0    0  501 -0.00000000000E+00  0.00000000000E+00  0.94247735776E+03  0.94247735776E+03  0.00000000000E+00 0. -1.
          2   -1    0    0  501    0  0.00000000000E+00 -0.00000000000E+00 -0.24045980104E+04  0.24045980104E+04  0.00000000000E+00 0.  1.
         23    2    1    2    0    0  0.67145375673E+03  0.11505124784E+04 -0.15080489572E+04  0.20141693251E+04  0.90206998293E+02 0.  0.
         11    1    3    3    0    0  0.48153672714E+03  0.78664908978E+03 -0.98696937691E+03  0.13508526792E+04  0.00000000000E+00 0.  1.
        -11    1    3    3    0    0  0.18991702960E+03  0.36386338862E+03 -0.52107958031E+03  0.66331664590E+03  0.00000000000E+00 0. -1.
         22    1    1    2    0    0 -0.67145375673E+03 -0.11505124784E+04  0.45928304592E+02  0.13329060430E+04  0.00000000000E+00 0. -1.
<mgrwt>
<rscale>  0 0.30108332E+04</rscale>
<asrwt>0</asrwt>
<pdfrwt beam="1">  1        2 0.36993815E+00 0.30108332E+04</pdfrwt>
<pdfrwt beam="2">  1       -2 0.14499652E+00 0.30108332E+04</pdfrwt>
<totfact> 0.11072873E+00</totfact>
</mgrwt>
</event>
<event>
 6    1  0.4630212E-004  0.4607506E+04  0.7818608E-02  0.7892081E-01
          2   -1    0    0  501    0  0.00000000000E+00  0.00000000000E+00  0.40768416774E+04  0.40768416774E+04  0.00000000000E+00 0.  1.
         -2   -1    0    0    0  501 -0.00000000000E+00 -0.00000000000E+00 -0.13018112824E+04  0.13018112824E+04  0.00000000000E+00 0. -1.
         23    2    1    2    0    0  0.70853159287E+03 -0.12790820551E+04  0.34648679068E+04  0.37618834294E+04  0.91593683888E+02 0.  0.
         11    1    3    3    0    0  0.49742688582E+03 -0.87885851358E+03  0.22841840679E+04  0.24974632429E+04  0.00000000000E+00 0. -1.
        -11    1    3    3    0    0  0.21110470705E+03 -0.40022354149E+03  0.11806838389E+04  0.12644201865E+04  0.00000000000E+00 0.  1.
         22    1    1    2    0    0 -0.70853159287E+03  0.12790820551E+04 -0.68983751186E+03  0.16167695304E+04  0.00000000000E+00 0. -1.
<mgrwt>
<rscale>  0 0.46075063E+04</rscale>
<asrwt>0</asrwt>
<pdfrwt beam="1">  1        2 0.62720640E+00 0.46075063E+04</pdfrwt>
<pdfrwt beam="2">  1       -2 0.20027866E+00 0.46075063E+04</pdfrwt>
<totfact> 0.29292520E-02</totfact>
</mgrwt>
</event>
<event>
 6    1  0.4630212E-004  0.1563759E+04  0.7818608E-02  0.8843127E-01
         -2   -1    0    0    0  501 -0.00000000000E+00  0.00000000000E+00  0.32712685399E+03  0.32712685399E+03  0.00000000000E+00 0. -1.
          2   -1    0    0  501    0  0.00000000000E+00 -0.00000000000E+00 -0.18688027633E+04  0.18688027633E+04  0.00000000000E+00 0.  1.
         23    2    1    2    0    0 -0.70611934508E+03  0.28399556697E+03 -0.10083143793E+04  0.12665574995E+04  0.90620088986E+02 0.  0.
         11    1    3    3    0    0 -0.24132616617E+03  0.10998787149E+03 -0.42171600699E+03  0.49817671654E+03  0.00000000000E+00 0.  1.
        -11    1    3    3    0    0 -0.46479317892E+03  0.17400769548E+03 -0.58659837228E+03  0.76838078296E+03  0.00000000000E+00 0. -1.
         22    1    1    2    0    0  0.70611934508E+03 -0.28399556697E+03 -0.53336153000E+03  0.92937211775E+03  0.00000000000E+00 0.  1.
<mgrwt>
<rscale>  0 0.15637590E+04</rscale>
<asrwt>0</asrwt>
<pdfrwt beam="1">  1        2 0.28750812E+00 0.15637590E+04</pdfrwt>
<pdfrwt beam="2">  1       -2 0.50327208E-01 0.15637590E+04</pdfrwt>
<totfact> 0.28375517E+01</totfact>
</mgrwt>
</event>
<event>
 6    1  0.4630212E-004  0.2445362E+04  0.7818608E-02  0.8422713E-01
         -2   -1    0    0    0  501 -0.00000000000E+00  0.00000000000E+00  0.60143066866E+03  0.60143066866E+03  0.00000000000E+00 0. -1.
          2   -1    0    0  501    0  0.00000000000E+00 -0.00000000000E+00 -0.24856543134E+04  0.24856543134E+04  0.00000000000E+00 0.  1.
         23    2    1    2    0    0  0.68650191420E+03  0.13603911836E+03  0.31961496872E+03  0.77479257968E+03  0.91423702477E+02 0.  0.
         13    1    3    3    0    0  0.56288251224E+03  0.14354222675E+03  0.24701507022E+03  0.63123493119E+03  0.00000000000E+00 0.  1.
        -13    1    3    3    0    0  0.12361940196E+03 -0.75031083901E+01  0.72599898496E+02  0.14355764849E+03  0.00000000000E+00 0. -1.
         22    1    1    2    0    0 -0.68650191420E+03 -0.13603911836E+03 -0.22038386135E+04  0.23122924024E+04  0.00000000000E+00 0.  1.
<mgrwt>
<rscale>  0 0.24453619E+04</rscale>
<asrwt>0</asrwt>
<pdfrwt beam="1">  1        2 0.38240835E+00 0.24453619E+04</pdfrwt>
<pdfrwt beam="2">  1       -2 0.92527796E-01 0.24453619E+04</pdfrwt>
<totfact> 0.31502806E+00</totfact>
</mgrwt>
</event>
<event>
 6    1  0.4630212E-004  0.5765862E+04  0.7818608E-02  0.7720130E-01
          2   -1    0    0  501    0  0.00000000000E+00  0.00000000000E+00  0.46414264089E+04  0.46414264089E+04  0.00000000000E+00 0.  1.
         -2   -1    0    0    0  501 -0.00000000000E+00 -0.00000000000E+00 -0.17906761140E+04  0.17906761140E+04  0.00000000000E+00 0. -1.
         23    2    1    2    0    0 -0.11812660045E+04 -0.25704432054E+04  0.80986410617E+03  0.29438674275E+04  0.88926456755E+02 0.  0.
         11    1    3    3    0    0 -0.31046398762E+03 -0.71400531881E+03  0.26081936283E+03  0.82110792405E+03  0.00000000000E+00 0. -1.
        -11    1    3    3    0    0 -0.87080201685E+03 -0.18564378866E+04  0.54904474333E+03  0.21227595035E+04  0.00000000000E+00 0.  1.
         22    1    1    2    0    0  0.11812660045E+04  0.25704432054E+04  0.20408861887E+04  0.34882350954E+04  0.00000000000E+00 0.  1.
<mgrwt>
<rscale>  0 0.57658621E+04</rscale>
<asrwt>0</asrwt>
<pdfrwt beam="1">  1        2 0.71406560E+00 0.57658621E+04</pdfrwt>
<pdfrwt beam="2">  1       -2 0.27548863E+00 0.57658621E+04</pdfrwt>
<totfact> 0.26856746E-03</totfact>
</mgrwt>
</event>
<event>
 6    1  0.4630212E-004  0.2945477E+04  0.7818608E-02  0.8259474E-01
         -2   -1    0    0    0  501 -0.00000000000E+00  0.00000000000E+00  0.11738737469E+04  0.11738737469E+04  0.00000000000E+00 0. -1.
          2   -1    0    0  501    0  0.00000000000E+00 -0.00000000000E+00 -0.18476938600E+04  0.18476938600E+04  0.00000000000E+00 0.  1.
         23    2    1    2    0    0 -0.75934869497E+03 -0.87714602760E+03 -0.12655404303E+04  0.17192126138E+04  0.90021310240E+02 0.  0.
         13    1    3    3    0    0 -0.30668234223E+03 -0.29873808471E+03 -0.50143624957E+03  0.65934574744E+03  0.00000000000E+00 0. -1.
        -13    1    3    3    0    0 -0.45266635273E+03 -0.57840794289E+03 -0.76410418078E+03  0.10598668663E+04  0.00000000000E+00 0.  1.
         22    1    1    2    0    0  0.75934869497E+03  0.87714602760E+03  0.59172031717E+03  0.13023549931E+04  0.00000000000E+00 0. -1.
<mgrwt>
<rscale>  0 0.29454774E+04</rscale>
<asrwt>0</asrwt>
<pdfrwt beam="1">  1        2 0.28426059E+00 0.29454774E+04</pdfrwt>
<pdfrwt beam="2">  1       -2 0.18059596E+00 0.29454774E+04</pdfrwt>
<totfact> 0.12540038E+00</totfact>
</mgrwt>
</event>
<event>
 6    1  0.4630212E-004  0.3872498E+04  0.7818608E-02  0.8030774E-01
          2   -1    0    0  501    0  0.00000000000E+00  0.00000000000E+00  0.32124282360E+04  0.32124282360E+04  0.00000000000E+00 0.  1.
         -2   -1    0    0    0  501 -0.00000000000E+00 -0.00000000000E+00 -0.11670485232E+04  0.11670485232E+04  0.00000000000E+00 0. -1.
         23    2    1    2    0    0  0.23676456827E+03 -0.18373096873E+04  0.16537996645E+04  0.24860409187E+04  0.11654085613E+03 0.  0.
         13    1    3    3    0    0  0.19547651022E+03 -0.13476496225E+04  0.11514633028E+04  0.17833222673E+04  0.00000000000E+00 0. -1.
        -13    1    3    3    0    0  0.41288058045E+02 -0.48966006477E+03  0.50233636173E+03  0.70271865144E+03  0.00000000000E+00 0.  1.
         22    1    1    2    0    0 -0.23676456827E+03  0.18373096873E+04  0.39158004834E+03  0.18934358405E+04  0.00000000000E+00 0.  1.
<mgrwt>
<rscale>  0 0.38724977E+04</rscale>
<asrwt>0</asrwt>
<pdfrwt beam="1">  1        2 0.49421973E+00 0.38724977E+04</pdfrwt>
<pdfrwt beam="2">  1       -2 0.17954593E+00 0.38724977E+04</pdfrwt>
<totfact> 0.18508614E-01</totfact>
</mgrwt>
</event>
<event>
 6    1  0.4630212E-004  0.3219079E+04  0.7818608E-02  0.8183797E-01
          2   -1    0    0  501    0  0.00000000000E+00  0.00000000000E+00  0.36389508854E+04  0.36389508854E+04  0.00000000000E+00 0. -1.
         -2   -1    0    0    0  501 -0.00000000000E+00 -0.00000000000E+00 -0.71191305612E+03  0.71191305612E+03  0.00000000000E+00 0.  1.
         23    2    1    2    0    0 -0.14781062198E+04  0.34127375363E+03  0.74274844709E+03  0.16914681686E+04  0.90130671585E+02 0.  0.
         11    1    3    3    0    0 -0.62571097532E+03  0.13716948557E+03  0.26490347631E+03  0.69318362947E+03  0.00000000000E+00 0. -1.
        -11    1    3    3    0    0 -0.85239524444E+03  0.20410426806E+03  0.47784497078E+03  0.99828453914E+03  0.00000000000E+00 0.  1.
         22    1    1    2    0    0  0.14781062198E+04 -0.34127375363E+03  0.21842893822E+04  0.26593957729E+04  0.00000000000E+00 0. -1.
<mgrwt>
<rscale>  0 0.32190785E+04</rscale>
<asrwt>0</asrwt>
<pdfrwt beam="1">  1        2 0.55983859E+00 0.32190785E+04</pdfrwt>
<pdfrwt beam="2">  1       -2 0.10952509E+00 0.32190785E+04</pdfrwt>
<totfact> 0.36065650E-01</totfact>
</mgrwt>
</event>
<event>
 6    1  0.4630212E-004  0.2498187E+04  0.7818608E-02  0.8403632E-01
         -2   -1    0    0    0  501 -0.00000000000E+00  0.00000000000E+00  0.11343811106E+04  0.11343811106E+04  0.00000000000E+00 0. -1.
          2   -1    0    0  501    0  0.00000000000E+00 -0.00000000000E+00 -0.13754059784E+04  0.13754059784E+04  0.00000000000E+00 0.  1.
         23    2    1    2    0    0 -0.11663981643E+04  0.43668158820E+03 -0.19064194496E+03  0.12633064731E+04  0.91779118344E+02 0.  0.
         11    1    3    3    0    0 -0.54518259079E+03  0.25196029577E+03 -0.10152603248E+03  0.60911048523E+03  0.00000000000E+00 0.  1.
        -11    1    3    3    0    0 -0.62121557351E+03  0.18472129243E+03 -0.89115912479E+02  0.65419598784E+03  0.00000000000E+00 0. -1.
         22    1    1    2    0    0  0.11663981643E+04 -0.43668158820E+03 -0.50382922835E+02  0.12464806160E+04  0.00000000000E+00 0.  1.
<mgrwt>
<rscale>  0 0.24981870E+04</rscale>
<asrwt>0</asrwt>
<pdfrwt beam="1">  1        2 0.21160092E+00 0.24981870E+04</pdfrwt>
<pdfrwt beam="2">  1       -2 0.17452017E+00 0.24981870E+04</pdfrwt>
<totfact> 0.26406971E+00</totfact>
</mgrwt>
</event>
<event>
 6    1  0.4630212E-004  0.2207872E+04  0.7818608E-02  0.8515159E-01
         -1   -1    0    0    0  501 -0.00000000000E+00  0.00000000000E+00  0.11796612041E+04  0.11796612041E+04  0.00000000000E+00 0. -1.
          1   -1    0    0  501    0  0.00000000000E+00 -0.00000000000E+00 -0.10330719694E+04  0.10330719694E+04  0.00000000000E+00 0.  1.
         23    2    1    2    0    0  0.31246513397E+03  0.11754247962E+02 -0.98569628606E+03  0.10380659343E+04  0.90615083693E+02 0.  0.
         13    1    3    3    0    0  0.12243549065E+03 -0.85836270463E+01 -0.52787482360E+03  0.54195567846E+03  0.00000000000E+00 0.  1.
        -13    1    3    3    0    0  0.19002964332E+03  0.20337875009E+02 -0.45782146246E+03  0.49611025588E+03  0.00000000000E+00 0. -1.
         22    1    1    2    0    0 -0.31246513397E+03 -0.11754247962E+02  0.11322855207E+04  0.11746672392E+04  0.00000000000E+00 0. -1.
<mgrwt>
<rscale>  0 0.22078722E+04</rscale>
<asrwt>0</asrwt>
<pdfrwt beam="1">  1        1 0.15893415E+00 0.22078722E+04</pdfrwt>
<pdfrwt beam="2">  1       -1 0.18148634E+00 0.22078722E+04</pdfrwt>
<totfact> 0.26384345E+00</totfact>
</mgrwt>
</event>
<event>
 6    1  0.4630212E-004  0.3109720E+04  0.7818608E-02  0.8213075E-01
          2   -1    0    0  501    0  0.00000000000E+00  0.00000000000E+00  0.20788912369E+04  0.20788912369E+04  0.00000000000E+00 0. -1.
         -2   -1    0    0    0  501 -0.00000000000E+00 -0.00000000000E+00 -0.11629225517E+04  0.11629225517E+04  0.00000000000E+00 0.  1.
         23    2    1    2    0    0  0.51516657825E+03  0.10844911714E+04 -0.56938784495E+03  0.13318918724E+04  0.90640706127E+02 0.  0.
         13    1    3    3    0    0  0.16299062822E+03  0.27247944127E+03 -0.17944152016E+03  0.36470570321E+03  0.00000000000E+00 0.  1.
        -13    1    3    3    0    0  0.35217595004E+03  0.81201173010E+03 -0.38994632479E+03  0.96718616917E+03  0.00000000000E+00 0. -1.
         22    1    1    2    0    0 -0.51516657825E+03 -0.10844911714E+04  0.14853565302E+04  0.19099219162E+04  0.00000000000E+00 0. -1.
<mgrwt>
<rscale>  0 0.31097199E+04</rscale>
<asrwt>0</asrwt>
<pdfrwt beam="1">  1        2 0.31982942E+00 0.31097199E+04</pdfrwt>
<pdfrwt beam="2">  1       -2 0.17891116E+00 0.31097199E+04</pdfrwt>
<totfact> 0.94508042E-01</totfact>
</mgrwt>
</event>
<event>
 6    1  0.4630212E-004  0.2945549E+04  0.7818608E-02  0.8259453E-01
          2   -1    0    0  501    0  0.00000000000E+00  0.00000000000E+00  0.36483287740E+04  0.36483287740E+04  0.00000000000E+00 0.  1.
         -2   -1    0    0    0  501 -0.00000000000E+00 -0.00000000000E+00 -0.59453634028E+03  0.59453634028E+03  0.00000000000E+00 0. -1.
         23    2    1    2    0    0 -0.90982438134E+02  0.11710905725E+04  0.28048755834E+04  0.30421609328E+04  0.87665097885E+02 0.  0.
         13    1    3    3    0    0 -0.74839022872E+02  0.47092601076E+03  0.10849887112E+04  0.11851466957E+04  0.00000000000E+00 0. -1.
        -13    1    3    3    0    0 -0.16143415262E+02  0.70016456175E+03  0.17198868722E+04  0.18570142371E+04  0.00000000000E+00 0.  1.
         22    1    1    2    0    0  0.90982438134E+02 -0.11710905725E+04  0.24891685025E+03  0.12007041815E+04  0.00000000000E+00 0.  1.
<mgrwt>
<rscale>  0 0.29455485E+04</rscale>
<asrwt>0</asrwt>
<pdfrwt beam="1">  1        2 0.56128134E+00 0.29455485E+04</pdfrwt>
<pdfrwt beam="2">  1       -2 0.91467131E-01 0.29455485E+04</pdfrwt>
<totfact> 0.55722440E-01</totfact>
</mgrwt>
</event>
<event>
 6    1  0.4630212E-004  0.2444592E+04  0.7818608E-02  0.8422995E-01
          2   -1    0    0  501    0  0.00000000000E+00  0.00000000000E+00  0.94418472716E+03  0.94418472716E+03  0.00000000000E+00 0.  1.
         -2   -1    0    0    0  501 -0.00000000000E+00 -0.00000000000E+00 -0.15823248697E+04  0.15823248697E+04  0.00000000000E+00 0. -1.
         23    2    1    2    0    0  0.10017495399E+04  0.28648464901E+03 -0.97663737385E+03  0.14309932937E+04  0.91354538369E+02 0.  0.
         11    1    3    3    0    0  0.31173843050E+03  0.12808463062E+03 -0.28720520271E+03  0.44280170519E+03  0.00000000000E+00 0.  1.
        -11    1    3    3    0    0  0.69001110942E+03  0.15840001839E+03 -0.68943217114E+03  0.98819158848E+03  0.00000000000E+00 0. -1.
         22    1    1    2    0    0 -0.10017495399E+04 -0.28648464901E+03  0.33849723134E+03  0.10955163032E+04  0.00000000000E+00 0.  1.
<mgrwt>
<rscale>  0 0.24445916E+04</rscale>
<asrwt>0</asrwt>
<pdfrwt beam="1">  1        2 0.14525919E+00 0.24445916E+04</pdfrwt>
<pdfrwt beam="2">  1       -2 0.24343459E+00 0.24445916E+04</pdfrwt>
<totfact> 0.17308157E+00</totfact>
</mgrwt>
</event>
<event>
 6    1  0.4630212E-004  0.5764190E+03  0.7818608E-02  0.9955574E-01
          2   -1    0    0  501    0  0.00000000000E+00  0.00000000000E+00  0.44937105009E+03  0.44937105009E+03  0.00000000000E+00 0.  1.
         -2   -1    0    0    0  501 -0.00000000000E+00 -0.00000000000E+00 -0.18484663130E+03  0.18484663130E+03  0.00000000000E+00 0. -1.
         23    2    1    2    0    0 -0.10063802652E+03 -0.73503532688E+02 -0.14390857567E+03  0.20719509105E+03  0.81788421588E+02 0.  0.
         11    1    3    3    0    0 -0.26211490514E+02 -0.19239469913E+02 -0.10000642623E+03  0.10515933018E+03  0.00000000000E+00 0. -1.
        -11    1    3    3    0    0 -0.74426536008E+02 -0.54264062775E+02 -0.43902149439E+02  0.10203576087E+03  0.00000000000E+00 0.  1.
         22    1    1    2    0    0  0.10063802652E+03  0.73503532688E+02  0.40843299445E+03  0.42702259034E+03  0.00000000000E+00 0.  1.
<mgrwt>
<rscale>  0 0.57641903E+03</rscale>
<asrwt>0</asrwt>
<pdfrwt beam="1">  1        2 0.69134008E-01 0.57641903E+03</pdfrwt>
<pdfrwt beam="2">  1       -2 0.28437943E-01 0.57641903E+03</pdfrwt>
<totfact> 0.79236482E+02</totfact>
</mgrwt>
</event>
<event>
 6    1  0.4630212E-004  0.4382223E+04  0.7818608E-02  0.7931587E-01
         -2   -1    0    0    0  501 -0.00000000000E+00  0.00000000000E+00  0.10798835290E+04  0.10798835290E+04  0.00000000000E+00 0. -1.
          2   -1    0    0  501    0  0.00000000000E+00 -0.00000000000E+00 -0.44458224103E+04  0.44458224103E+04  0.00000000000E+00 0.  1.
         23    2    1    2    0    0 -0.12553597588E+04 -0.55063618875E+03 -0.38374926639E+04  0.40760538065E+04  0.93468454550E+02 0.  0.
         11    1    3    3    0    0 -0.26481049454E+03 -0.76275044383E+02 -0.74628040683E+03  0.79553562210E+03  0.00000000000E+00 0. -1.
        -11    1    3    3    0    0 -0.99054926425E+03 -0.47436114436E+03 -0.30912122570E+04  0.32805181844E+04  0.00000000000E+00 0.  1.
         22    1    1    2    0    0  0.12553597588E+04  0.55063618875E+03  0.47155378250E+03  0.14496521328E+04  0.00000000000E+00 0. -1.
<mgrwt>
<rscale>  0 0.43822234E+04</rscale>
<asrwt>0</asrwt>
<pdfrwt beam="1">  1        2 0.68397269E+00 0.43822234E+04</pdfrwt>
<pdfrwt beam="2">  1       -2 0.16613593E+00 0.43822234E+04</pdfrwt>
<totfact> 0.23946631E-02</totfact>
</mgrwt>
</event>
<event>
 6    1  0.4630212E-004  0.1558703E+04  0.7818608E-02  0.8846328E-01
         -2   -1    0    0    0  501 -0.00000000000E+00  0.00000000000E+00  0.49199629060E+03  0.49199629060E+03  0.00000000000E+00 0. -1.
          2   -1    0    0  501    0  0.00000000000E+00 -0.00000000000E+00 -0.12345394272E+04  0.12345394272E+04  0.00000000000E+00 0.  1.
         23    2    1    2    0    0  0.28291279914E+03  0.34059308475E+03 -0.10793948063E+04  0.11701973777E+04  0.90694287262E+02 0.  0.
         13    1    3    3    0    0  0.13413479787E+03  0.93419822228E+02 -0.38773982407E+03  0.42078685620E+03  0.00000000000E+00 0.  1.
        -13    1    3    3    0    0  0.14877800127E+03  0.24717326252E+03 -0.69165498219E+03  0.74941052152E+03  0.00000000000E+00 0. -1.
         22    1    1    2    0    0 -0.28291279914E+03 -0.34059308475E+03  0.33685166966E+03  0.55633834008E+03  0.00000000000E+00 0. -1.
<mgrwt>
<rscale>  0 0.15587031E+04</rscale>
<asrwt>0</asrwt>
<pdfrwt beam="1">  1        2 0.18992914E+00 0.15587031E+04</pdfrwt>
<pdfrwt beam="2">  1       -2 0.75691737E-01 0.15587031E+04</pdfrwt>
<totfact> 0.27189846E+01</totfact>
</mgrwt>
</event>
<event>
 6    1  0.4630212E-004  0.1202353E+04  0.7818608E-02  0.9110799E-01
          2   -1    0    0  501    0  0.00000000000E+00  0.00000000000E+00  0.40546388733E+04  0.40546388733E+04  0.00000000000E+00 0.  1.
         -2   -1    0    0    0  501 -0.00000000000E+00 -0.00000000000E+00 -0.89135767856E+02  0.89135767856E+02  0.00000000000E+00 0. -1.
         23    2    1    2    0    0 -0.41776183896E+02  0.59660724998E+03  0.19652631867E+04  0.20560377820E+04  0.85711772933E+02 0.  0.
         13    1    3    3    0    0  0.18108900919E+02  0.13718280259E+03  0.53501845660E+03  0.55262265835E+03  0.00000000000E+00 0.  1.
        -13    1    3    3    0    0 -0.59885084815E+02  0.45942444738E+03  0.14302447301E+04  0.15034151237E+04  0.00000000000E+00 0. -1.
         22    1    1    2    0    0  0.41776183896E+02 -0.59660724998E+03  0.20002399188E+04  0.20877368591E+04  0.00000000000E+00 0.  1.
<mgrwt>
<rscale>  0 0.12023533E+04</rscale>
<asrwt>0</asrwt>
<pdfrwt beam="1">  1        2 0.62379045E+00 0.12023533E+04</pdfrwt>
<pdfrwt beam="2">  1       -2 0.13713198E-01 0.12023533E+04</pdfrwt>
<totfact> 0.12970536E+01</totfact>
</mgrwt>
</event>
<event>
 6    1  0.4630212E-004  0.6759978E+03  0.7818608E-02  0.9759183E-01
          2   -1    0    0  501    0  0.00000000000E+00  0.00000000000E+00  0.54052154863E+03  0.54052154863E+03  0.00000000000E+00 0.  1.
         -2   -1    0    0    0  501 -0.00000000000E+00 -0.00000000000E+00 -0.21135744153E+03  0.21135744153E+03  0.00000000000E+00 0. -1.
         23    2    1    2    0    0 -0.70499902638E+02 -0.32377540347E+02  0.52624652399E+03  0.54007714777E+03  0.93431151887E+02 0.  0.
         11    1    3    3    0    0 -0.31322976626E+02 -0.62788305720E+02  0.35117743816E+03  0.35811882563E+03  0.00000000000E+00 0. -1.
        -11    1    3    3    0    0 -0.39176926013E+02  0.30410765373E+02  0.17506908583E+03  0.18195832214E+03  0.00000000000E+00 0.  1.
         22    1    1    2    0    0  0.70499902638E+02  0.32377540347E+02 -0.19708241689E+03  0.21180184239E+03  0.00000000000E+00 0. -1.
<mgrwt>
<rscale>  0 0.67599779E+03</rscale>
<asrwt>0</asrwt>
<pdfrwt beam="1">  1        2 0.83157161E-01 0.67599779E+03</pdfrwt>
<pdfrwt beam="2">  1       -2 0.32516530E-01 0.67599779E+03</pdfrwt>
<totfact> 0.49856766E+02</totfact>
</mgrwt>
</event>
<event>
 6    1  0.4630212E-004  0.4063540E+04  0.7818608E-02  0.7991850E-01
          2   -1    0    0  501    0  0.00000000000E+00  0.00000000000E+00  0.39671568809E+04  0.39671568809E+04  0.00000000000E+00 0.  1.
         -2   -1    0    0    0  501 -0.00000000000E+00 -0.00000000000E+00 -0.10405662103E+04  0.10405662103E+04  0.00000000000E+00 0. -1.
         23    2    1    2    0    0 -0.67707344768E+03  0.17954800943E+04  0.22831508760E+04  0.29838179571E+04  0.90633636539E+02 0.  0.
         13    1    3    3    0    0 -0.29577852237E+03  0.80227264608E+03  0.94833995593E+03  0.12769005462E+04  0.00000000000E+00 0.  1.
        -13    1    3    3    0    0 -0.38129492531E+03  0.99320744819E+03  0.13348109201E+04  0.17069174109E+04  0.00000000000E+00 0. -1.
         22    1    1    2    0    0  0.67707344768E+03 -0.17954800943E+04  0.64343979461E+03  0.20239051341E+04  0.00000000000E+00 0. -1.
<mgrwt>
<rscale>  0 0.40635400E+04</rscale>
<asrwt>0</asrwt>
<pdfrwt beam="1">  1        2 0.61033182E+00 0.40635400E+04</pdfrwt>
<pdfrwt beam="2">  1       -2 0.16008711E+00 0.40635400E+04</pdfrwt>
<totfact> 0.71523321E-02</totfact>
</mgrwt>
</event>
<event>
 6    1  0.4630212E-004  0.1881333E+04  0.7818608E-02  0.8664205E-01
          2   -1    0    0  501    0  0.00000000000E+00  0.00000000000E+00  0.25310029588E+04  0.25310029588E+04  0.00000000000E+00 0.  1.
         -2   -1    0    0    0  501 -0.00000000000E+00 -0.00000000000E+00 -0.34960569946E+03  0.34960569946E+03  0.00000000000E+00 0. -1.
         23    2    1    2    0    0 -0.75219313248E+02  0.82846850726E+03  0.17573656965E+04  0.19468952231E+04  0.10024373325E+03 0.  0.
         13    1    3    3    0    0 -0.87612614568E+02  0.48720102170E+03  0.98439635544E+03  0.11018516190E+04  0.00000000000E+00 0. -1.
        -13    1    3    3    0    0  0.12393301320E+02  0.34126748556E+03  0.77296934105E+03  0.84504360409E+03  0.00000000000E+00 0.  1.
         22    1    1    2    0    0  0.75219313248E+02 -0.82846850726E+03  0.42403156283E+03  0.93371343510E+03  0.00000000000E+00 0.  1.
<mgrwt>
<rscale>  0 0.18813326E+04</rscale>
<asrwt>0</asrwt>
<pdfrwt beam="1">  1        2 0.38938506E+00 0.18813326E+04</pdfrwt>
<pdfrwt beam="2">  1       -2 0.53785494E-01 0.18813326E+04</pdfrwt>
<totfact> 0.10211106E+01</totfact>
</mgrwt>
</event>
<event>
 6    1  0.4630212E-004  0.1231224E+04  0.7818608E-02  0.9085956E-01
         -2   -1    0    0    0  501 -0.00000000000E+00  0.00000000000E+00  0.41447773781E+03  0.41447773781E+03  0.00000000000E+00 0. -1.
          2   -1    0    0  501    0  0.00000000000E+00 -0.00000000000E+00 -0.91435167828E+03  0.91435167828E+03  0.00000000000E+00 0.  1.
         23    2    1    2    0    0 -0.38519183481E+03  0.28541855208E+03 -0.66232749225E+03  0.82264006816E+03  0.90677865387E+02 0.  0.
         13    1    3    3    0    0 -0.29615924820E+03  0.21346258089E+03 -0.43325450327E+03  0.56655629759E+03  0.00000000000E+00 0. -1.
        -13    1    3    3    0    0 -0.89032586612E+02  0.71955971193E+02 -0.22907298898E+03  0.25608377057E+03  0.00000000000E+00 0.  1.
         22    1    1    2    0    0  0.38519183481E+03 -0.28541855208E+03  0.16245355179E+03  0.50618934794E+03  0.00000000000E+00 0. -1.
<mgrwt>
<rscale>  0 0.12312245E+04</rscale>
<asrwt>0</asrwt>
<pdfrwt beam="1">  1        2 0.14066949E+00 0.12312245E+04</pdfrwt>
<pdfrwt beam="2">  1       -2 0.63765807E-01 0.12312245E+04</pdfrwt>
<totfact> 0.64254031E+01</totfact>
</mgrwt>
</event>
<event>
 6    1  0.4630212E-004  0.2540089E+04  0.7818608E-02  0.8388841E-01
         -2   -1    0    0    0  501 -0.00000000000E+00  0.00000000000E+00  0.84942953324E+03  0.84942953324E+03  0.00000000000E+00 0. -1.
          2   -1    0    0  501    0  0.00000000000E+00 -0.00000000000E+00 -0.18989369362E+04  0.18989369362E+04  0.00000000000E+00 0.  1.
         23    2    1    2    0    0 -0.12030115394E+04  0.11233863760E+03 -0.10721984905E+03  0.12161254415E+04  0.87225341371E+02 0.  0.
         13    1    3    3    0    0 -0.53382804810E+03  0.15779945014E+02 -0.74363138186E+02  0.53921356430E+03  0.00000000000E+00 0.  1.
        -13    1    3    3    0    0 -0.66918349127E+03  0.96558692591E+02 -0.32856710866E+02  0.67691187724E+03  0.00000000000E+00 0. -1.
         22    1    1    2    0    0  0.12030115394E+04 -0.11233863760E+03 -0.94228755391E+03  0.15322410279E+04  0.00000000000E+00 0.  1.
<mgrwt>
<rscale>  0 0.25400891E+04</rscale>
<asrwt>0</asrwt>
<pdfrwt beam="1">  1        2 0.29214414E+00 0.25400891E+04</pdfrwt>
<pdfrwt beam="2">  1       -2 0.13068147E+00 0.25400891E+04</pdfrwt>
<totfact> 0.28971224E+00</totfact>
</mgrwt>
</event>
<event>
 6    1  0.4630212E-004  0.3105923E+04  0.7818608E-02  0.8214114E-01
         -2   -1    0    0    0  501 -0.00000000000E+00  0.00000000000E+00  0.15242395577E+04  0.15242395577E+04  0.00000000000E+00 0. -1.
          2   -1    0    0  501    0  0.00000000000E+00 -0.00000000000E+00 -0.15822241945E+04  0.15822241945E+04  0.00000000000E+00 0.  1.
         23    2    1    2    0    0 -0.84860868736E+03  0.12141523001E+04 -0.49229315444E+03  0.15627907296E+04  0.75231658400E+02 0.  0.
         11    1    3    3    0    0 -0.42338485257E+02  0.93038705040E+02 -0.38011808951E+02  0.10905799186E+03  0.00000000000E+00 0. -1.
        -11    1    3    3    0    0 -0.80627020210E+03  0.11211135950E+04 -0.45428134549E+03  0.14537327377E+04  0.00000000000E+00 0.  1.
         22    1    1    2    0    0  0.84860868736E+03 -0.12141523001E+04  0.43430851764E+03  0.15436730226E+04  0.00000000000E+00 0. -1.
<mgrwt>
<rscale>  0 0.31059225E+04</rscale>
<asrwt>0</asrwt>
<pdfrwt beam="1">  1        2 0.24341911E+00 0.31059225E+04</pdfrwt>
<pdfrwt beam="2">  1       -2 0.23449839E+00 0.31059225E+04</pdfrwt>
<totfact> 0.77606296E-01</totfact>
</mgrwt>
</event>
<event>
 6    1  0.4630212E-004  0.4304719E+04  0.7818608E-02  0.7945746E-01
          2   -1    0    0  501    0  0.00000000000E+00  0.00000000000E+00  0.38276438934E+04  0.38276438934E+04  0.00000000000E+00 0.  1.
         -2   -1    0    0    0  501 -0.00000000000E+00 -0.00000000000E+00 -0.12103143741E+04  0.12103143741E+04  0.00000000000E+00 0. -1.
         23    2    1    2    0    0  0.49656685721E+03 -0.75666514221E+03 -0.97487989190E+03  0.13334894479E+04  0.93180056715E+02 0.  0.
         13    1    3    3    0    0  0.36105369149E+03 -0.54481992700E+03 -0.64064322670E+03  0.91521159570E+03  0.00000000000E+00 0. -1.
        -13    1    3    3    0    0  0.13551316572E+03 -0.21184521521E+03 -0.33423666520E+03  0.41827785222E+03  0.00000000000E+00 0.  1.
         22    1    1    2    0    0 -0.49656685721E+03  0.75666514221E+03  0.35922094113E+04  0.37044688196E+04  0.00000000000E+00 0.  1.
<mgrwt>
<rscale>  0 0.43047195E+04</rscale>
<asrwt>0</asrwt>
<pdfrwt beam="1">  1        2 0.58886829E+00 0.43047195E+04</pdfrwt>
<pdfrwt beam="2">  1       -2 0.18620221E+00 0.43047195E+04</pdfrwt>
<totfact> 0.59021221E-02</totfact>
</mgrwt>
</event>
<event>
 6    1  0.4630212E-004  0.1058927E+04  0.7818608E-02  0.9246176E-01
         -2   -1    0    0    0  501 -0.00000000000E+00  0.00000000000E+00  0.50821256742E+03  0.50821256742E+03  0.00000000000E+00 0. -1.
          2   -1    0    0  501    0  0.00000000000E+00 -0.00000000000E+00 -0.55160297815E+03  0.55160297815E+03  0.00000000000E+00 0.  1.
         23    2    1    2    0    0  0.19204517321E+03  0.21236140971E+03 -0.46280782081E+03  0.55198714859E+03  0.92303934486E+02 0.  0.
         13    1    3    3    0    0  0.16968554084E+03  0.13574557368E+03 -0.29738966206E+03  0.36832140128E+03  0.00000000000E+00 0.  1.
        -13    1    3    3    0    0  0.22359632372E+02  0.76615836029E+02 -0.16541815876E+03  0.18366574731E+03  0.00000000000E+00 0. -1.
         22    1    1    2    0    0 -0.19204517321E+03 -0.21236140971E+03  0.41941741008E+03  0.50782839697E+03  0.00000000000E+00 0. -1.
<mgrwt>
<rscale>  0 0.10589269E+04</rscale>
<asrwt>0</asrwt>
<pdfrwt beam="1">  1        2 0.84861996E-01 0.10589269E+04</pdfrwt>
<pdfrwt beam="2">  1       -2 0.78186549E-01 0.10589269E+04</pdfrwt>
<totfact> 0.79514876E+01</totfact>
</mgrwt>
</event>
<event>
 6    1  0.4630212E-004  0.3211393E+04  0.7818608E-02  0.8185815E-01
         -2   -1    0    0    0  501 -0.00000000000E+00  0.00000000000E+00  0.11868661882E+04  0.11868661882E+04  0.00000000000E+00 0. -1.
          2   -1    0    0  501    0  0.00000000000E+00 -0.00000000000E+00 -0.21723274522E+04  0.21723274522E+04  0.00000000000E+00 0.  1.
         23    2    1    2    0    0  0.15834284268E+04 -0.24780764588E+03 -0.41668209589E+03  0.16585573024E+04  0.92380431208E+02 0.  0.
         13    1    3    3    0    0  0.75885286720E+03 -0.14575566543E+03 -0.23972763233E+03  0.80905607084E+03  0.00000000000E+00 0. -1.
        -13    1    3    3    0    0  0.82457555961E+03 -0.10205198045E+03 -0.17695446357E+03  0.84950123155E+03  0.00000000000E+00 0.  1.
         22    1    1    2    0    0 -0.15834284268E+04  0.24780764588E+03 -0.56877916813E+03  0.17006363380E+04  0.00000000000E+00 0. -1.
<mgrwt>
<rscale>  0 0.32113935E+04</rscale>
<asrwt>0</asrwt>
<pdfrwt beam="1">  1        2 0.33420422E+00 0.32113935E+04</pdfrwt>
<pdfrwt beam="2">  1       -2 0.18259480E+00 0.32113935E+04</pdfrwt>
<totfact> 0.78355355E-01</totfact>
</mgrwt>
</event>
<event>
 6    1  0.4630212E-004  0.5391356E+04  0.7818608E-02  0.7770818E-01
         -2   -1    0    0    0  501 -0.00000000000E+00  0.00000000000E+00  0.31109289501E+04  0.31109289501E+04  0.00000000000E+00 0. -1.
          2   -1    0    0  501    0  0.00000000000E+00 -0.00000000000E+00 -0.23358548873E+04  0.23358548873E+04  0.00000000000E+00 0.  1.
         23    2    1    2    0    0 -0.16554170927E+04 -0.17243227287E+04  0.16450469451E+04  0.29030567609E+04  0.88681913333E+02 0.  0.
         11    1    3    3    0    0 -0.95859744687E+03 -0.10360301201E+04  0.92851936240E+03  0.16895016073E+04  0.00000000000E+00 0. -1.
        -11    1    3    3    0    0 -0.69681964585E+03 -0.68829260867E+03  0.71652758271E+03  0.12135551536E+04  0.00000000000E+00 0.  1.
         22    1    1    2    0    0  0.16554170927E+04  0.17243227287E+04 -0.86997288225E+03  0.25437270765E+04  0.00000000000E+00 0.  1.
<mgrwt>
<rscale>  0 0.53913555E+04</rscale>
<asrwt>0</asrwt>
<pdfrwt beam="1">  1        2 0.35936229E+00 0.53913555E+04</pdfrwt>
<pdfrwt beam="2">  1       -2 0.47860445E+00 0.53913555E+04</pdfrwt>
<totfact> 0.69275750E-03</totfact>
</mgrwt>
</event>
<event>
 6    1  0.4630212E-004  0.1735018E+04  0.7818608E-02  0.8741640E-01
         -2   -1    0    0    0  501 -0.00000000000E+00  0.00000000000E+00  0.86343418838E+03  0.86343418838E+03  0.00000000000E+00 0. -1.
          2   -1    0    0  501    0  0.00000000000E+00 -0.00000000000E+00 -0.87160349511E+03  0.87160349511E+03  0.00000000000E+00 0.  1.
         23    2    1    2    0    0 -0.23009324549E+03 -0.35139573796E+03 -0.76034180727E+03  0.87353589194E+03  0.92322393560E+02 0.  0.
         13    1    3    3    0    0 -0.11554267032E+03 -0.25562070544E+03 -0.50932915716E+03  0.58147075941E+03  0.00000000000E+00 0. -1.
        -13    1    3    3    0    0 -0.11455057517E+03 -0.95775032514E+02 -0.25101265011E+03  0.29206513253E+03  0.00000000000E+00 0.  1.
         22    1    1    2    0    0  0.23009324549E+03  0.35139573796E+03  0.75217250054E+03  0.86150179155E+03  0.00000000000E+00 0. -1.
<mgrwt>
<rscale>  0 0.17350185E+04</rscale>
<asrwt>0</asrwt>
<pdfrwt beam="1">  1        2 0.13409285E+00 0.17350185E+04</pdfrwt>
<pdfrwt beam="2">  1       -2 0.13283603E+00 0.17350185E+04</pdfrwt>
<totfact> 0.11960450E+01</totfact>
</mgrwt>
</event>
<event>
 6    1  0.4630212E-004  0.1719809E+04  0.7818608E-02  0.8750147E-01
         -2   -1    0    0    0  501 -0.00000000000E+00  0.00000000000E+00  0.54945104937E+03  0.54945104937E+03  0.00000000000E+00 0. -1.
          2   -1    0    0  501    0  0.00000000000E+00 -0.00000000000E+00 -0.13457717865E+04  0.13457717865E+04  0.00000000000E+00 0.  1.
         23    2    1    2    0    0 -0.76635124249E+03 -0.24383641275E+03 -0.71267790887E+02  0.81242451766E+03  0.90576353636E+02 0.  0.
         13    1    3    3    0    0 -0.39125737582E+03 -0.84916738835E+02 -0.60499282813E+02  0.40491153341E+03  0.00000000000E+00 0. -1.
        -13    1    3    3    0    0 -0.37509386666E+03 -0.15891967391E+03 -0.10768508074E+02  0.40751298425E+03  0.00000000000E+00 0.  1.
         22    1    1    2    0    0  0.76635124249E+03  0.24383641275E+03 -0.72505294622E+03  0.10827983182E+04  0.00000000000E+00 0.  1.
<mgrwt>
<rscale>  0 0.17198090E+04</rscale>
<asrwt>0</asrwt>
<pdfrwt beam="1">  1        2 0.20704181E+00 0.17198090E+04</pdfrwt>
<pdfrwt beam="2">  1       -2 0.84530930E-01 0.17198090E+04</pdfrwt>
<totfact> 0.18027260E+01</totfact>
</mgrwt>
</event>
<event>
 6    1  0.4630212E-004  0.2902317E+04  0.7818608E-02  0.8272188E-01
          2   -1    0    0  501    0  0.00000000000E+00  0.00000000000E+00  0.28986035799E+04  0.28986035799E+04  0.00000000000E+00 0.  1.
         -2   -1    0    0    0  501 -0.00000000000E+00 -0.00000000000E+00 -0.72650897808E+03  0.72650897808E+03  0.00000000000E+00 0. -1.
         23    2    1    2    0    0 -0.35105232209E+03  0.85866451963E+03 -0.30435219698E+03  0.98062182489E+03  0.91904371674E+02 0.  0.
         11    1    3    3    0    0 -0.94688743891E+02  0.30358441865E+03 -0.68597349091E+02  0.32532299914E+03  0.00000000000E+00 0.  1.
        -11    1    3    3    0    0 -0.25636357820E+03  0.55508010098E+03 -0.23575484788E+03  0.65529882575E+03  0.00000000000E+00 0. -1.
         22    1    1    2    0    0  0.35105232209E+03 -0.85866451963E+03  0.24764467988E+04  0.26444907331E+04  0.00000000000E+00 0.  1.
<mgrwt>
<rscale>  0 0.29023174E+04</rscale>
<asrwt>0</asrwt>
<pdfrwt beam="1">  1        2 0.44593901E+00 0.29023174E+04</pdfrwt>
<pdfrwt beam="2">  1       -2 0.11177061E+00 0.29023174E+04</pdfrwt>
<totfact> 0.10973621E+00</totfact>
</mgrwt>
</event>
<event>
 6    1  0.4630212E-004  0.3669549E+04  0.7818608E-02  0.8074744E-01
          2   -1    0    0  501    0  0.00000000000E+00  0.00000000000E+00  0.38240896437E+04  0.38240896437E+04  0.00000000000E+00 0.  1.
         -2   -1    0    0    0  501 -0.00000000000E+00 -0.00000000000E+00 -0.88031343134E+03  0.88031343134E+03  0.00000000000E+00 0. -1.
         23    2    1    2    0    0 -0.11215931891E+03  0.15147223288E+04  0.27896381526E+04  0.31777328462E+04  0.94559894616E+02 0.  0.
         13    1    3    3    0    0 -0.18120750322E+02  0.26522592645E+03  0.41668710900E+03  0.49426844979E+03  0.00000000000E+00 0.  1.
        -13    1    3    3    0    0 -0.94038568583E+02  0.12494964023E+04  0.23729510436E+04  0.26834643965E+04  0.00000000000E+00 0. -1.
         22    1    1    2    0    0  0.11215931891E+03 -0.15147223288E+04  0.15413805983E+03  0.15266702288E+04  0.00000000000E+00 0. -1.
<mgrwt>
<rscale>  0 0.36695490E+04</rscale>
<asrwt>0</asrwt>
<pdfrwt beam="1">  1        2 0.58832147E+00 0.36695490E+04</pdfrwt>
<pdfrwt beam="2">  1       -2 0.13543284E+00 0.36695490E+04</pdfrwt>
<totfact> 0.14889947E-01</totfact>
</mgrwt>
</event>
<event>
 6    1  0.4630212E-004  0.3603539E+04  0.7818608E-02  0.8089682E-01
         -2   -1    0    0    0  501 -0.00000000000E+00  0.00000000000E+00  0.25102216135E+04  0.25102216135E+04  0.00000000000E+00 0. -1.
          2   -1    0    0  501    0  0.00000000000E+00 -0.00000000000E+00 -0.12932614996E+04  0.12932614996E+04  0.00000000000E+00 0.  1.
         23    2    1    2    0    0  0.96935553520E+03  0.11086123534E+04 -0.48470998019E+03  0.15530714590E+04  0.91737060257E+02 0.  0.
         11    1    3    3    0    0  0.80773216550E+03  0.92813868026E+03 -0.36862043337E+03  0.12844273763E+04  0.00000000000E+00 0. -1.
        -11    1    3    3    0    0  0.16162336971E+03  0.18047367317E+03 -0.11608954681E+03  0.26864408280E+03  0.00000000000E+00 0.  1.
         22    1    1    2    0    0 -0.96935553520E+03 -0.11086123534E+04  0.17016700941E+04  0.22504116541E+04  0.00000000000E+00 0. -1.
<mgrwt>
<rscale>  0 0.36035388E+04</rscale>
<asrwt>0</asrwt>
<pdfrwt beam="1">  1        2 0.19896331E+00 0.36035388E+04</pdfrwt>
<pdfrwt beam="2">  1       -2 0.38618794E+00 0.36035388E+04</pdfrwt>
<totfact> 0.12401932E-01</totfact>
</mgrwt>
</event>
<event>
 6    1  0.4630212E-004  0.1100280E+04  0.7818608E-02  0.9204919E-01
          2   -1    0    0  501    0  0.00000000000E+00  0.00000000000E+00  0.30228388600E+03  0.30228388600E+03  0.00000000000E+00 0.  1.
         -2   -1    0    0    0  501 -0.00000000000E+00 -0.00000000000E+00 -0.10012242258E+04  0.10012242258E+04  0.00000000000E+00 0. -1.
         23    2    1    2    0    0  0.24207841936E+03  0.14257320737E+03  0.20600719049E+03  0.35595383201E+03  0.73041682678E+02 0.  0.
         13    1    3    3    0    0  0.15653078059E+03  0.11589597666E+03  0.10626404378E+03  0.22186890201E+03  0.00000000000E+00 0. -1.
        -13    1    3    3    0    0  0.85547638778E+02  0.26677230706E+02  0.99743146705E+02  0.13408493000E+03  0.00000000000E+00 0.  1.
         22    1    1    2    0    0 -0.24207841936E+03 -0.14257320737E+03 -0.90494753031E+03  0.94755427981E+03  0.00000000000E+00 0. -1.
<mgrwt>
<rscale>  0 0.11002799E+04</rscale>
<asrwt>0</asrwt>
<pdfrwt beam="1">  1        2 0.46505213E-01 0.11002799E+04</pdfrwt>
<pdfrwt beam="2">  1       -2 0.15403450E+00 0.11002799E+04</pdfrwt>
<totfact> 0.30139828E+01</totfact>
</mgrwt>
</event>
<event>
 6    1  0.4630212E-004  0.4689969E+04  0.7818608E-02  0.7878197E-01
          2   -1    0    0  501    0  0.00000000000E+00  0.00000000000E+00  0.34355552139E+04  0.34355552139E+04  0.00000000000E+00 0.  1.
         -2   -1    0    0    0  501 -0.00000000000E+00 -0.00000000000E+00 -0.16006004492E+04  0.16006004492E+04  0.00000000000E+00 0. -1.
         23    2    1    2    0    0  0.59697539721E+03 -0.67898501085E+03 -0.14046181382E+04  0.16727893638E+04  0.88723569490E+02 0.  0.
         13    1    3    3    0    0  0.64099845638E+02 -0.46176966954E+02 -0.15786250761E+03  0.17652669429E+03  0.00000000000E+00 0. -1.
        -13    1    3    3    0    0  0.53287555158E+03 -0.63280804390E+03 -0.12467556306E+04  0.14962626695E+04  0.00000000000E+00 0.  1.
         22    1    1    2    0    0 -0.59697539721E+03  0.67898501085E+03  0.32395729029E+04  0.33633662993E+04  0.00000000000E+00 0.  1.
<mgrwt>
<rscale>  0 0.46899685E+04</rscale>
<asrwt>0</asrwt>
<pdfrwt beam="1">  1        2 0.52854695E+00 0.46899685E+04</pdfrwt>
<pdfrwt beam="2">  1       -2 0.24624622E+00 0.46899685E+04</pdfrwt>
<totfact> 0.45504328E-02</totfact>
</mgrwt>
</event>
<event>
 6    1  0.4630212E-004  0.2082342E+04  0.7818608E-02  0.8569062E-01
         -2   -1    0    0    0  501 -0.00000000000E+00  0.00000000000E+00  0.82141223074E+03  0.82141223074E+03  0.00000000000E+00 0. -1.
          2   -1    0    0  501    0  0.00000000000E+00 -0.00000000000E+00 -0.13197239989E+04  0.13197239989E+04  0.00000000000E+00 0.  1.
         23    2    1    2    0    0  0.43467717320E+03 -0.58825999806E+03  0.50950634133E+03  0.89586862304E+03  0.89385724118E+02 0.  0.
         13    1    3    3    0    0  0.28109604672E+03 -0.44776482723E+03  0.36975581590E+03  0.64515710597E+03  0.00000000000E+00 0.  1.
        -13    1    3    3    0    0  0.15358112647E+03 -0.14049517083E+03  0.13975052543E+03  0.25071151707E+03  0.00000000000E+00 0. -1.
         22    1    1    2    0    0 -0.43467717320E+03  0.58825999806E+03 -0.10078181094E+04  0.12452676066E+04  0.00000000000E+00 0.  1.
<mgrwt>
<rscale>  0 0.20823424E+04</rscale>
<asrwt>0</asrwt>
<pdfrwt beam="1">  1        2 0.20303446E+00 0.20823424E+04</pdfrwt>
<pdfrwt beam="2">  1       -2 0.12637111E+00 0.20823424E+04</pdfrwt>
<totfact> 0.69325298E+00</totfact>
</mgrwt>
</event>
<event>
 6    1  0.4630212E-004  0.1126143E+04  0.7818608E-02  0.9180079E-01
         -2   -1    0    0    0  501 -0.00000000000E+00  0.00000000000E+00  0.44943167753E+03  0.44943167753E+03  0.00000000000E+00 0. -1.
          2   -1    0    0  501    0  0.00000000000E+00 -0.00000000000E+00 -0.70544554814E+03  0.70544554814E+03  0.00000000000E+00 0.  1.
         23    2    1    2    0    0 -0.34499240914E+02 -0.55562897087E+03 -0.18564924356E+03  0.59374895903E+03  0.90324048977E+02 0.  0.
         11    1    3    3    0    0 -0.61605505619E+02 -0.41108515876E+03 -0.15423703933E+03  0.44336814317E+03  0.00000000000E+00 0. -1.
        -11    1    3    3    0    0  0.27106264705E+02 -0.14454381210E+03 -0.31412204238E+02  0.15038081586E+03  0.00000000000E+00 0.  1.
         22    1    1    2    0    0  0.34499240914E+02  0.55562897087E+03 -0.70364627046E+02  0.56112826665E+03  0.00000000000E+00 0. -1.
<mgrwt>
<rscale>  0 0.11261431E+04</rscale>
<asrwt>0</asrwt>
<pdfrwt beam="1">  1        2 0.10853008E+00 0.11261431E+04</pdfrwt>
<pdfrwt beam="2">  1       -2 0.69143335E-01 0.11261431E+04</pdfrwt>
<totfact> 0.76845180E+01</totfact>
</mgrwt>
</event>
<event>
 6    1  0.4630212E-004  0.3468882E+04  0.7818608E-02  0.8121204E-01
         -2   -1    0    0    0  501 -0.00000000000E+00  0.00000000000E+00  0.15716795172E+04  0.15716795172E+04  0.00000000000E+00 0. -1.
          2   -1    0    0  501    0  0.00000000000E+00 -0.00000000000E+00 -0.19140575037E+04  0.19140575037E+04  0.00000000000E+00 0.  1.
         23    2    1    2    0    0  0.97125972360E+03  0.12112136406E+04 -0.94559872634E+03  0.18201262635E+04  0.91207072624E+02 0.  0.
         13    1    3    3    0    0  0.54936480421E+03  0.69235010277E+03 -0.48548549527E+03  0.10083880796E+04  0.00000000000E+00 0. -1.
        -13    1    3    3    0    0  0.42189491940E+03  0.51886353783E+03 -0.46011323107E+03  0.81173818397E+03  0.00000000000E+00 0.  1.
         22    1    1    2    0    0 -0.97125972360E+03 -0.12112136406E+04  0.60322073988E+03  0.16656107573E+04  0.00000000000E+00 0. -1.
<mgrwt>
<rscale>  0 0.34688816E+04</rscale>
<asrwt>0</asrwt>
<pdfrwt beam="1">  1        2 0.29447039E+00 0.34688816E+04</pdfrwt>
<pdfrwt beam="2">  1       -2 0.24179685E+00 0.34688816E+04</pdfrwt>
<totfact> 0.44364277E-01</totfact>
</mgrwt>
</event>
<event>
 6    1  0.4630212E-004  0.3125426E+04  0.7818608E-02  0.8208794E-01
          2   -1    0    0  501    0  0.00000000000E+00  0.00000000000E+00  0.94277978866E+03  0.94277978866E+03  0.00000000000E+00 0.  1.
         -2   -1    0    0    0  501 -0.00000000000E+00 -0.00000000000E+00 -0.25902894977E+04  0.25902894977E+04  0.00000000000E+00 0. -1.
         23    2    1    2    0    0 -0.69328882994E+03  0.10605386223E+04 -0.18559654287E+04  0.22489955509E+04  0.89340606763E+02 0.  0.
         11    1    3    3    0    0 -0.18765026682E+03  0.25502946029E+03 -0.40430414735E+03  0.51353139322E+03  0.00000000000E+00 0. -1.
        -11    1    3    3    0    0 -0.50563856312E+03  0.80550916205E+03 -0.14516612814E+04  0.17354641576E+04  0.00000000000E+00 0.  1.
         22    1    1    2    0    0  0.69328882994E+03 -0.10605386223E+04  0.20845571964E+03  0.12840737355E+04  0.00000000000E+00 0. -1.
<mgrwt>
<rscale>  0 0.31254264E+04</rscale>
<asrwt>0</asrwt>
<pdfrwt beam="1">  1        2 0.14504305E+00 0.31254264E+04</pdfrwt>
<pdfrwt beam="2">  1       -2 0.39850607E+00 0.31254264E+04</pdfrwt>
<totfact> 0.17640286E-01</totfact>
</mgrwt>
</event>
<event>
 6    1  0.4630212E-004  0.4362685E+04  0.7818608E-02  0.7935128E-01
         -2   -1    0    0    0  501 -0.00000000000E+00  0.00000000000E+00  0.13248165031E+04  0.13248165031E+04  0.00000000000E+00 0. -1.
          2   -1    0    0  501    0  0.00000000000E+00 -0.00000000000E+00 -0.35916336178E+04  0.35916336178E+04  0.00000000000E+00 0.  1.
         23    2    1    2    0    0  0.11678203844E+04  0.97223054368E+03 -0.28956956362E+04  0.32719061491E+04  0.10620711383E+03 0.  0.
         13    1    3    3    0    0  0.36547980394E+03  0.26480643989E+03 -0.94234516106E+03  0.10448503913E+04  0.00000000000E+00 0. -1.
        -13    1    3    3    0    0  0.80234058051E+03  0.70742410379E+03 -0.19533504751E+04  0.22270557578E+04  0.00000000000E+00 0.  1.
         22    1    1    2    0    0 -0.11678203844E+04 -0.97223054368E+03  0.62887852151E+03  0.16445439718E+04  0.00000000000E+00 0. -1.
<mgrwt>
<rscale>  0 0.43626852E+04</rscale>
<asrwt>0</asrwt>
<pdfrwt beam="1">  1        2 0.55255900E+00 0.43626852E+04</pdfrwt>
<pdfrwt beam="2">  1       -2 0.20381793E+00 0.43626852E+04</pdfrwt>
<totfact> 0.67193504E-02</totfact>
</mgrwt>
</event>
<event>
 6    1  0.4630212E-004  0.4104599E+04  0.7818608E-02  0.7983772E-01
          2   -1    0    0  501    0  0.00000000000E+00  0.00000000000E+00  0.21483749697E+04  0.21483749697E+04  0.00000000000E+00 0.  1.
         -2   -1    0    0    0  501 -0.00000000000E+00 -0.00000000000E+00 -0.19605205638E+04  0.19605205638E+04  0.00000000000E+00 0. -1.
         23    2    1    2    0    0  0.94683838749E+03  0.53407853339E+03  0.18353572544E+04  0.21350646269E+04  0.90674680821E+02 0.  0.
         11    1    3    3    0    0  0.46218913397E+03  0.26557636285E+03  0.98840359082E+03  0.11229831960E+04  0.00000000000E+00 0. -1.
        -11    1    3    3    0    0  0.48464925352E+03  0.26850217054E+03  0.84695366359E+03  0.10120814309E+04  0.00000000000E+00 0.  1.
         22    1    1    2    0    0 -0.94683838749E+03 -0.53407853339E+03 -0.16475028486E+04  0.19738309066E+04  0.00000000000E+00 0. -1.
<mgrwt>
<rscale>  0 0.41045990E+04</rscale>
<asrwt>0</asrwt>
<pdfrwt beam="1">  1        2 0.33051922E+00 0.41045990E+04</pdfrwt>
<pdfrwt beam="2">  1       -2 0.30161855E+00 0.41045990E+04</pdfrwt>
<totfact> 0.13416382E-01</totfact>
</mgrwt>
</event>
<event>
 6    1  0.4630212E-004  0.1585307E+04  0.7818608E-02  0.8829626E-01
         -2   -1    0    0    0  501 -0.00000000000E+00  0.00000000000E+00  0.46433940022E+03  0.46433940022E+03  0.00000000000E+00 0. -1.
          2   -1    0    0  501    0  0.00000000000E+00 -0.00000000000E+00 -0.13531035476E+04  0.13531035476E+04  0.00000000000E+00 0.  1.
         23    2    1    2    0    0  0.10473911915E+03  0.74483047222E+03 -0.16879362018E+03  0.77624158618E+03  0.91197579253E+02 0.  0.
         13    1    3    3    0    0  0.23564946922E+02  0.32726534126E+03 -0.33281412227E+02  0.32979624424E+03  0.00000000000E+00 0. -1.
        -13    1    3    3    0    0  0.81174172230E+02  0.41756513096E+03 -0.13551220795E+03  0.44644534194E+03  0.00000000000E+00 0.  1.
         22    1    1    2    0    0 -0.10473911915E+03 -0.74483047222E+03 -0.71997052717E+03  0.10412013616E+04  0.00000000000E+00 0.  1.
<mgrwt>
<rscale>  0 0.15853066E+04</rscale>
<asrwt>0</asrwt>
<pdfrwt beam="1">  1        2 0.20816978E+00 0.15853066E+04</pdfrwt>
<pdfrwt beam="2">  1       -2 0.71436831E-01 0.15853066E+04</pdfrwt>
<totfact> 0.26282609E+01</totfact>
</mgrwt>
</event>
<event>
 6    1  0.4630212E-004  0.2415190E+04  0.7818608E-02  0.8433838E-01
         -2   -1    0    0    0  501 -0.00000000000E+00  0.00000000000E+00  0.17144542255E+04  0.17144542255E+04  0.00000000000E+00 0. -1.
          2   -1    0    0  501    0  0.00000000000E+00 -0.00000000000E+00 -0.85058335666E+03  0.85058335666E+03  0.00000000000E+00 0.  1.
         23    2    1    2    0    0 -0.26297725548E+03  0.89382287550E+02 -0.81361588077E+03  0.86471172359E+03  0.92786492871E+02 0.  0.
         13    1    3    3    0    0 -0.23153463243E+03  0.47377722730E+02 -0.71440137426E+03  0.75247741373E+03  0.00000000000E+00 0. -1.
        -13    1    3    3    0    0 -0.31442623049E+02  0.42004564820E+02 -0.99214506503E+02  0.11223430986E+03  0.00000000000E+00 0.  1.
         22    1    1    2    0    0  0.26297725548E+03 -0.89382287550E+02  0.16774867496E+04  0.17003258586E+04  0.00000000000E+00 0. -1.
<mgrwt>
<rscale>  0 0.24151905E+04</rscale>
<asrwt>0</asrwt>
<pdfrwt beam="1">  1        2 0.13085898E+00 0.24151905E+04</pdfrwt>
<pdfrwt beam="2">  1       -2 0.26376219E+00 0.24151905E+04</pdfrwt>
<totfact> 0.15067812E+00</totfact>
</mgrwt>
</event>
<event>
 6    1  0.4630212E-004  0.2025259E+04  0.7818608E-02  0.8594902E-01
          1   -1    0    0  501    0  0.00000000000E+00  0.00000000000E+00  0.83260285042E+03  0.83260285042E+03  0.00000000000E+00 0.  1.
         -1   -1    0    0    0  501 -0.00000000000E+00 -0.00000000000E+00 -0.12315812010E+04  0.12315812010E+04  0.00000000000E+00 0. -1.
         23    2    1    2    0    0  0.48345053696E+03  0.57230307766E+03  0.49141172903E+03  0.90054762700E+03  0.90803671064E+02 0.  0.
         11    1    3    3    0    0  0.16700437943E+03  0.15184725502E+03  0.18313696932E+03  0.29066682153E+03  0.00000000000E+00 0. -1.
        -11    1    3    3    0    0  0.31644615753E+03  0.42045582264E+03  0.30827475971E+03  0.60988080547E+03  0.00000000000E+00 0.  1.
         22    1    1    2    0    0 -0.48345053696E+03 -0.57230307766E+03 -0.89039007964E+03  0.11636364244E+04  0.00000000000E+00 0. -1.
<mgrwt>
<rscale>  0 0.20252585E+04</rscale>
<asrwt>0</asrwt>
<pdfrwt beam="1">  1        1 0.12809275E+00 0.20252585E+04</pdfrwt>
<pdfrwt beam="2">  1       -1 0.18947403E+00 0.20252585E+04</pdfrwt>
<totfact> 0.34178776E+00</totfact>
</mgrwt>
</event>
<event>
 6    1  0.4630212E-004  0.2878789E+04  0.7818608E-02  0.8279216E-01
          2   -1    0    0  501    0  0.00000000000E+00  0.00000000000E+00  0.43943411143E+04  0.43943411143E+04  0.00000000000E+00 0.  1.
         -2   -1    0    0    0  501 -0.00000000000E+00 -0.00000000000E+00 -0.47148302270E+03  0.47148302270E+03  0.00000000000E+00 0. -1.
         23    2    1    2    0    0 -0.57431237471E+03 -0.13094769845E+04  0.22200267251E+04  0.26422685745E+04  0.92194809785E+02 0.  0.
         13    1    3    3    0    0 -0.11795277146E+03 -0.28353661562E+03  0.41028343899E+03  0.51248255483E+03  0.00000000000E+00 0. -1.
        -13    1    3    3    0    0 -0.45635960325E+03 -0.10259403689E+04  0.18097432861E+04  0.21297860197E+04  0.00000000000E+00 0.  1.
         22    1    1    2    0    0  0.57431237471E+03  0.13094769845E+04  0.17028313665E+04  0.22235555625E+04  0.00000000000E+00 0. -1.
<mgrwt>
<rscale>  0 0.28787895E+04</rscale>
<asrwt>0</asrwt>
<pdfrwt beam="1">  1        2 0.67605245E+00 0.28787895E+04</pdfrwt>
<pdfrwt beam="2">  1       -2 0.72535853E-01 0.28787895E+04</pdfrwt>
<totfact> 0.23104287E-01</totfact>
</mgrwt>
</event>
<event>
 6    1  0.4630212E-004  0.4836748E+04  0.7818608E-02  0.7854196E-01
          2   -1    0    0  501    0  0.00000000000E+00  0.00000000000E+00  0.38090768684E+04  0.38090768684E+04  0.00000000000E+00 0. -1.
         -2   -1    0    0    0  501 -0.00000000000E+00 -0.00000000000E+00 -0.15354201495E+04  0.15354201495E+04  0.00000000000E+00 0.  1.
         23    2    1    2    0    0  0.21561821182E+04  0.27132559149E+03  0.23075495101E+04  0.31710463916E+04  0.89507390854E+02 0.  0.
         13    1    3    3    0    0  0.12590097973E+04  0.19230919974E+03  0.13931451205E+04  0.18875756475E+04  0.00000000000E+00 0. -1.
        -13    1    3    3    0    0  0.89717232088E+03  0.79016391753E+02  0.91440438951E+03  0.12834707441E+04  0.00000000000E+00 0.  1.
         22    1    1    2    0    0 -0.21561821182E+04 -0.27132559149E+03 -0.33892791101E+02  0.21734506263E+04  0.00000000000E+00 0. -1.
<mgrwt>
<rscale>  0 0.48367482E+04</rscale>
<asrwt>0</asrwt>
<pdfrwt beam="1">  1        2 0.58601183E+00 0.48367482E+04</pdfrwt>
<pdfrwt beam="2">  1       -2 0.23621848E+00 0.48367482E+04</pdfrwt>
<totfact> 0.27779066E-02</totfact>
</mgrwt>
</event>
<event>
 6    1  0.4630212E-004  0.1349974E+04  0.7818608E-02  0.8990848E-01
          2   -1    0    0  501    0  0.00000000000E+00  0.00000000000E+00  0.10073705026E+04  0.10073705026E+04  0.00000000000E+00 0.  1.
         -2   -1    0    0    0  501 -0.00000000000E+00 -0.00000000000E+00 -0.45227413429E+03  0.45227413429E+03  0.00000000000E+00 0. -1.
         23    2    1    2    0    0  0.18352203459E+03  0.30711646325E+03  0.89369666513E+03  0.96704843298E+03  0.92130794533E+02 0.  0.
         11    1    3    3    0    0  0.86291509944E+02  0.10728556467E+03  0.24099530700E+03  0.27755207632E+03  0.00000000000E+00 0. -1.
        -11    1    3    3    0    0  0.97230524644E+02  0.19983089858E+03  0.65270135813E+03  0.68949635666E+03  0.00000000000E+00 0.  1.
         22    1    1    2    0    0 -0.18352203459E+03 -0.30711646325E+03 -0.33860029677E+03  0.49259620395E+03  0.00000000000E+00 0. -1.
<mgrwt>
<rscale>  0 0.13499743E+04</rscale>
<asrwt>0</asrwt>
<pdfrwt beam="1">  1        2 0.15498008E+00 0.13499743E+04</pdfrwt>
<pdfrwt beam="2">  1       -2 0.69580636E-01 0.13499743E+04</pdfrwt>
<totfact> 0.45848368E+01</totfact>
</mgrwt>
</event>
<event>
 6    1  0.4630212E-004  0.8640870E+03  0.7818608E-02  0.9471622E-01
          2   -1    0    0  501    0  0.00000000000E+00  0.00000000000E+00  0.14327510255E+04  0.14327510255E+04  0.00000000000E+00 0.  1.
         -2   -1    0    0    0  501 -0.00000000000E+00 -0.00000000000E+00 -0.13028194761E+03  0.13028194761E+03  0.00000000000E+00 0. -1.
         23    2    1    2    0    0  0.12835558325E+03  0.14510957556E+03  0.13470368556E+04  0.13642410430E+04  0.95464067934E+02 0.  0.
         11    1    3    3    0    0  0.60201531747E+02  0.11215821753E+03  0.59857434245E+03  0.61195991178E+03  0.00000000000E+00 0. -1.
        -11    1    3    3    0    0  0.68154051498E+02  0.32951358029E+02  0.74846251319E+03  0.75228113121E+03  0.00000000000E+00 0.  1.
         22    1    1    2    0    0 -0.12835558325E+03 -0.14510957556E+03 -0.44567777735E+02  0.19879193012E+03  0.00000000000E+00 0. -1.
<mgrwt>
<rscale>  0 0.86408702E+03</rscale>
<asrwt>0</asrwt>
<pdfrwt beam="1">  1        2 0.22042322E+00 0.86408702E+03</pdfrwt>
<pdfrwt beam="2">  1       -2 0.20043378E-01 0.86408702E+03</pdfrwt>
<totfact> 0.29623581E+02</totfact>
</mgrwt>
</event>
<event>
 6    1  0.4630212E-004  0.2904907E+04  0.7818608E-02  0.8271419E-01
          2   -1    0    0  501    0  0.00000000000E+00  0.00000000000E+00  0.11530211353E+04  0.11530211353E+04  0.00000000000E+00 0.  1.
         -2   -1    0    0    0  501 -0.00000000000E+00 -0.00000000000E+00 -0.18296468602E+04  0.18296468602E+04  0.00000000000E+00 0. -1.
         23    2    1    2    0    0 -0.87194284363E+03 -0.11141446582E+04 -0.66927476014E+03  0.15678688301E+04  0.93173611241E+02 0.  0.
         13    1    3    3    0    0 -0.53948072402E+03 -0.62752279751E+03 -0.36245819034E+03  0.90343801819E+03  0.00000000000E+00 0. -1.
        -13    1    3    3    0    0 -0.33246211961E+03 -0.48662186066E+03 -0.30681656980E+03  0.66443081186E+03  0.00000000000E+00 0.  1.
         22    1    1    2    0    0  0.87194284363E+03  0.11141446582E+04 -0.73509647641E+01  0.14147991654E+04  0.00000000000E+00 0.  1.
<mgrwt>
<rscale>  0 0.29049072E+04</rscale>
<asrwt>0</asrwt>
<pdfrwt beam="1">  1        2 0.17738787E+00 0.29049072E+04</pdfrwt>
<pdfrwt beam="2">  1       -2 0.28148413E+00 0.29049072E+04</pdfrwt>
<totfact> 0.71932330E-01</totfact>
</mgrwt>
</event>
<event>
 6    1  0.4630212E-004  0.4768427E+04  0.7818608E-02  0.7865257E-01
          2   -1    0    0  501    0  0.00000000000E+00  0.00000000000E+00  0.45578543207E+04  0.45578543207E+04  0.00000000000E+00 0.  1.
         -2   -1    0    0    0  501 -0.00000000000E+00 -0.00000000000E+00 -0.12471819404E+04  0.12471819404E+04  0.00000000000E+00 0. -1.
         23    2    1    2    0    0  0.32837948967E+03 -0.21147801780E+04  0.29328430099E+04  0.36318166855E+04  0.91629828246E+02 0.  0.
         11    1    3    3    0    0  0.12555187641E+03 -0.60303649979E+03  0.88984016468E+03  0.10822346383E+04  0.00000000000E+00 0. -1.
        -11    1    3    3    0    0  0.20282761326E+03 -0.15117436783E+04  0.20430028453E+04  0.25495820472E+04  0.00000000000E+00 0.  1.
         22    1    1    2    0    0 -0.32837948967E+03  0.21147801780E+04  0.37782937032E+03  0.21732195756E+04  0.00000000000E+00 0. -1.
<mgrwt>
<rscale>  0 0.47684268E+04</rscale>
<asrwt>0</asrwt>
<pdfrwt beam="1">  1        2 0.70120835E+00 0.47684268E+04</pdfrwt>
<pdfrwt beam="2">  1       -2 0.19187415E+00 0.47684268E+04</pdfrwt>
<totfact> 0.11921526E-02</totfact>
</mgrwt>
</event>
<event>
 6    1  0.4630212E-004  0.1388335E+04  0.7818608E-02  0.8962306E-01
          2   -1    0    0  501    0  0.00000000000E+00  0.00000000000E+00  0.22686100626E+04  0.22686100626E+04  0.00000000000E+00 0. -1.
         -2   -1    0    0    0  501 -0.00000000000E+00 -0.00000000000E+00 -0.21240696881E+03  0.21240696881E+03  0.00000000000E+00 0.  1.
         23    2    1    2    0    0 -0.37191647201E+03  0.46481780545E+03  0.16601757920E+04  0.17660239698E+04  0.90992016173E+02 0.  0.
         11    1    3    3    0    0 -0.11385606749E+03  0.83268772332E+02  0.35860780752E+03  0.38535237402E+03  0.00000000000E+00 0. -1.
        -11    1    3    3    0    0 -0.25806040452E+03  0.38154903312E+03  0.13015679845E+04  0.13806715958E+04  0.00000000000E+00 0.  1.
         22    1    1    2    0    0  0.37191647201E+03 -0.46481780545E+03  0.39602730176E+03  0.71499306161E+03  0.00000000000E+00 0.  1.
<mgrwt>
<rscale>  0 0.13883351E+04</rscale>
<asrwt>0</asrwt>
<pdfrwt beam="1">  1        2 0.34901692E+00 0.13883351E+04</pdfrwt>
<pdfrwt beam="2">  1       -2 0.32677997E-01 0.13883351E+04</pdfrwt>
<totfact> 0.40252701E+01</totfact>
</mgrwt>
</event>
<event>
 6    1  0.4630212E-004  0.1046190E+04  0.7818608E-02  0.9259286E-01
          2   -1    0    0  501    0  0.00000000000E+00  0.00000000000E+00  0.21032439247E+04  0.21032439247E+04  0.00000000000E+00 0.  1.
         -2   -1    0    0    0  501 -0.00000000000E+00 -0.00000000000E+00 -0.13009838240E+03  0.13009838240E+03  0.00000000000E+00 0. -1.
         23    2    1    2    0    0 -0.94281679054E+02 -0.36660625725E+03  0.17524571566E+04  0.17951727664E+04  0.90829469253E+02 0.  0.
         11    1    3    3    0    0 -0.45189037868E+02 -0.99248221666E+02  0.68621699411E+03  0.69482805186E+03  0.00000000000E+00 0. -1.
        -11    1    3    3    0    0 -0.49092641186E+02 -0.26735803558E+03  0.10662401625E+04  0.11003447145E+04  0.00000000000E+00 0.  1.
         22    1    1    2    0    0  0.94281679054E+02  0.36660625725E+03  0.22068838570E+03  0.43816954075E+03  0.00000000000E+00 0. -1.
<mgrwt>
<rscale>  0 0.10461905E+04</rscale>
<asrwt>0</asrwt>
<pdfrwt beam="1">  1        2 0.32357596E+00 0.10461905E+04</pdfrwt>
<pdfrwt beam="2">  1       -2 0.20015137E-01 0.10461905E+04</pdfrwt>
<totfact> 0.12491144E+02</totfact>
</mgrwt>
</event>
<event>
 6    1  0.4630212E-004  0.1122534E+04  0.7818608E-02  0.9183503E-01
         -2   -1    0    0    0  501 -0.00000000000E+00  0.00000000000E+00  0.19381877709E+03  0.19381877709E+03  0.00000000000E+00 0. -1.
          2   -1    0    0  501    0  0.00000000000E+00 -0.00000000000E+00 -0.16253364821E+04  0.16253364821E+04  0.00000000000E+00 0.  1.
         23    2    1    2    0    0  0.47859042047E+03  0.21883171793E+02 -0.11817271480E+04  0.12788562807E+04  0.97296816691E+02 0.  0.
         13    1    3    3    0    0  0.33127556584E+03  0.59938473152E+02 -0.80414915850E+03  0.87177519476E+03  0.00000000000E+00 0. -1.
        -13    1    3    3    0    0  0.14731485464E+03 -0.38055301359E+02 -0.37757798953E+03  0.40708108595E+03  0.00000000000E+00 0.  1.
         22    1    1    2    0    0 -0.47859042047E+03 -0.21883171793E+02 -0.24979055696E+03  0.54029897846E+03  0.00000000000E+00 0.  1.
<mgrwt>
<rscale>  0 0.11225341E+04</rscale>
<asrwt>0</asrwt>
<pdfrwt beam="1">  1        2 0.25005177E+00 0.11225341E+04</pdfrwt>
<pdfrwt beam="2">  1       -2 0.29818273E-01 0.11225341E+04</pdfrwt>
<totfact> 0.11095779E+02</totfact>
</mgrwt>
</event>
<event>
 6    1  0.4630212E-004  0.3681371E+04  0.7818608E-02  0.8072103E-01
         -2   -1    0    0    0  501 -0.00000000000E+00  0.00000000000E+00  0.21282209472E+04  0.21282209472E+04  0.00000000000E+00 0. -1.
          2   -1    0    0  501    0  0.00000000000E+00 -0.00000000000E+00 -0.15919975962E+04  0.15919975962E+04  0.00000000000E+00 0.  1.
         23    2    1    2    0    0  0.14555520143E+03  0.17929409637E+04  0.65702426884E+03  0.19173273992E+04  0.92950793169E+02 0.  0.
         11    1    3    3    0    0  0.25057834322E+02  0.39985569104E+03  0.18722653239E+03  0.44222872266E+03  0.00000000000E+00 0. -1.
        -11    1    3    3    0    0  0.12049736710E+03  0.13930852727E+04  0.46979773645E+03  0.14750986766E+04  0.00000000000E+00 0.  1.
         22    1    1    2    0    0 -0.14555520143E+03 -0.17929409637E+04 -0.12080091778E+03  0.18028911442E+04  0.00000000000E+00 0.  1.
<mgrwt>
<rscale>  0 0.36813707E+04</rscale>
<asrwt>0</asrwt>
<pdfrwt beam="1">  1        2 0.24492271E+00 0.36813707E+04</pdfrwt>
<pdfrwt beam="2">  1       -2 0.32741861E+00 0.36813707E+04</pdfrwt>
<totfact> 0.19645460E-01</totfact>
</mgrwt>
</event>
<event>
 6    1  0.4630212E-004  0.3191418E+04  0.7818608E-02  0.8191087E-01
         -2   -1    0    0    0  501 -0.00000000000E+00  0.00000000000E+00  0.12356132374E+04  0.12356132374E+04  0.00000000000E+00 0. -1.
          2   -1    0    0  501    0  0.00000000000E+00 -0.00000000000E+00 -0.20607483172E+04  0.20607483172E+04  0.00000000000E+00 0.  1.
         23    2    1    2    0    0 -0.13580064695E+04  0.27887492182E+03  0.40053615517E+03  0.14458959999E+04  0.90737190184E+02 0.  0.
         11    1    3    3    0    0 -0.11062692149E+04  0.25851091389E+03  0.34501519852E+03  0.11873057549E+04  0.00000000000E+00 0. -1.
        -11    1    3    3    0    0 -0.25173725456E+03  0.20364007922E+02  0.55520956660E+02  0.25859024495E+03  0.00000000000E+00 0.  1.
         22    1    1    2    0    0  0.13580064695E+04 -0.27887492182E+03 -0.12256712350E+04  0.18504655548E+04  0.00000000000E+00 0.  1.
<mgrwt>
<rscale>  0 0.31914184E+04</rscale>
<asrwt>0</asrwt>
<pdfrwt beam="1">  1        2 0.31703820E+00 0.31914184E+04</pdfrwt>
<pdfrwt beam="2">  1       -2 0.19009435E+00 0.31914184E+04</pdfrwt>
<totfact> 0.80607785E-01</totfact>
</mgrwt>
</event>
<event>
 6    1  0.4630212E-004  0.2051805E+04  0.7818608E-02  0.8582776E-01
          2   -1    0    0  501    0  0.00000000000E+00  0.00000000000E+00  0.15274626058E+04  0.15274626058E+04  0.00000000000E+00 0.  1.
         -2   -1    0    0    0  501 -0.00000000000E+00 -0.00000000000E+00 -0.68903520832E+03  0.68903520832E+03  0.00000000000E+00 0. -1.
         23    2    1    2    0    0 -0.62090970265E+03  0.58226541544E+03  0.10346137877E+04  0.13429699253E+04  0.92631840132E+02 0.  0.
         13    1    3    3    0    0 -0.41370504489E+03  0.32644328515E+03  0.64306620447E+03  0.83141519466E+03  0.00000000000E+00 0.  1.
        -13    1    3    3    0    0 -0.20720465776E+03  0.25582213029E+03  0.39154758322E+03  0.51155473067E+03  0.00000000000E+00 0. -1.
         22    1    1    2    0    0  0.62090970265E+03 -0.58226541544E+03 -0.19618639017E+03  0.87352788882E+03  0.00000000000E+00 0. -1.
<mgrwt>
<rscale>  0 0.20518046E+04</rscale>
<asrwt>0</asrwt>
<pdfrwt beam="1">  1        2 0.23499425E+00 0.20518046E+04</pdfrwt>
<pdfrwt beam="2">  1       -2 0.10600542E+00 0.20518046E+04</pdfrwt>
<totfact> 0.81423602E+00</totfact>
</mgrwt>
</event>
<event>
 6    1  0.4630212E-004  0.1981904E+04  0.7818608E-02  0.8615128E-01
          2   -1    0    0  501    0  0.00000000000E+00  0.00000000000E+00  0.13577872748E+04  0.13577872748E+04  0.00000000000E+00 0.  1.
         -2   -1    0    0    0  501 -0.00000000000E+00 -0.00000000000E+00 -0.72322517272E+03  0.72322517272E+03  0.00000000000E+00 0. -1.
         23    2    1    2    0    0 -0.96542323159E+02 -0.17029358214E+03  0.13356604467E+04  0.13530981579E+04  0.92549832657E+02 0.  0.
         13    1    3    3    0    0 -0.57616230298E+02 -0.20661766887E+02  0.33130617974E+03  0.33691293139E+03  0.00000000000E+00 0.  1.
        -13    1    3    3    0    0 -0.38926092861E+02 -0.14963181526E+03  0.10043542670E+04  0.10161852265E+04  0.00000000000E+00 0. -1.
         22    1    1    2    0    0  0.96542323159E+02  0.17029358214E+03 -0.70109834464E+03  0.72791428969E+03  0.00000000000E+00 0. -1.
<mgrwt>
<rscale>  0 0.19819041E+04</rscale>
<asrwt>0</asrwt>
<pdfrwt beam="1">  1        2 0.20889035E+00 0.19819041E+04</pdfrwt>
<pdfrwt beam="2">  1       -2 0.11126541E+00 0.19819041E+04</pdfrwt>
<totfact> 0.91000344E+00</totfact>
</mgrwt>
</event>
<event>
 6    1  0.4630212E-004  0.3119786E+04  0.7818608E-02  0.8210329E-01
         -2   -1    0    0    0  501 -0.00000000000E+00  0.00000000000E+00  0.12744195508E+04  0.12744195508E+04  0.00000000000E+00 0. -1.
          2   -1    0    0  501    0  0.00000000000E+00 -0.00000000000E+00 -0.19093137254E+04  0.19093137254E+04  0.00000000000E+00 0.  1.
         23    2    1    2    0    0  0.92626881995E+03 -0.12495103050E+04 -0.21693261029E+03  0.15731613907E+04  0.92342160847E+02 0.  0.
         11    1    3    3    0    0  0.57487789962E+03 -0.84445295191E+03 -0.15781511386E+03  0.10336783821E+04  0.00000000000E+00 0.  1.
        -11    1    3    3    0    0  0.35139092032E+03 -0.40505735308E+03 -0.59117496433E+02  0.53948300858E+03  0.00000000000E+00 0. -1.
         22    1    1    2    0    0 -0.92626881995E+03  0.12495103050E+04 -0.41796156430E+03  0.16105718855E+04  0.00000000000E+00 0. -1.
<mgrwt>
<rscale>  0 0.31197864E+04</rscale>
<asrwt>0</asrwt>
<pdfrwt beam="1">  1        2 0.29374057E+00 0.31197864E+04</pdfrwt>
<pdfrwt beam="2">  1       -2 0.19606455E+00 0.31197864E+04</pdfrwt>
<totfact> 0.89816395E-01</totfact>
</mgrwt>
</event>
<event>
 6    1  0.4630212E-004  0.1455147E+04  0.7818608E-02  0.8914840E-01
         -2   -1    0    0    0  501 -0.00000000000E+00  0.00000000000E+00  0.39957471543E+03  0.39957471543E+03  0.00000000000E+00 0. -1.
          2   -1    0    0  501    0  0.00000000000E+00 -0.00000000000E+00 -0.13248168890E+04  0.13248168890E+04  0.00000000000E+00 0.  1.
         23    2    1    2    0    0 -0.65881067617E+03 -0.23863662699E+03 -0.68256138626E+03  0.98285744382E+03  0.95602102875E+02 0.  0.
         13    1    3    3    0    0 -0.49265522476E+03 -0.21614266051E+03 -0.54717536066E+03  0.76735109010E+03  0.00000000000E+00 0.  1.
        -13    1    3    3    0    0 -0.16615545142E+03 -0.22493966487E+02 -0.13538602561E+03  0.21550635372E+03  0.00000000000E+00 0. -1.
         22    1    1    2    0    0  0.65881067617E+03  0.23863662699E+03 -0.24268078726E+03  0.74153416057E+03  0.00000000000E+00 0. -1.
<mgrwt>
<rscale>  0 0.14551472E+04</rscale>
<asrwt>0</asrwt>
<pdfrwt beam="1">  1        2 0.20381798E+00 0.14551472E+04</pdfrwt>
<pdfrwt beam="2">  1       -2 0.61473034E-01 0.14551472E+04</pdfrwt>
<totfact> 0.38130481E+01</totfact>
</mgrwt>
</event>
<event>
 6    1  0.4630212E-004  0.2245011E+04  0.7818608E-02  0.8499924E-01
         -2   -1    0    0    0  501 -0.00000000000E+00  0.00000000000E+00  0.74636999589E+03  0.74636999589E+03  0.00000000000E+00 0. -1.
          2   -1    0    0  501    0  0.00000000000E+00 -0.00000000000E+00 -0.16881951619E+04  0.16881951619E+04  0.00000000000E+00 0.  1.
         23    2    1    2    0    0  0.62283533525E+03 -0.63226612452E+03 -0.12134231453E+04  0.15064219742E+04  0.96057939200E+02 0.  0.
         11    1    3    3    0    0  0.31068797843E+03 -0.32379907022E+03 -0.69382950698E+03  0.82630033437E+03  0.00000000000E+00 0. -1.
        -11    1    3    3    0    0  0.31214735681E+03 -0.30846705430E+03 -0.51959363832E+03  0.68012163981E+03  0.00000000000E+00 0.  1.
         22    1    1    2    0    0 -0.62283533525E+03  0.63226612452E+03  0.27159797925E+03  0.92814318366E+03  0.00000000000E+00 0. -1.
<mgrwt>
<rscale>  0 0.22450107E+04</rscale>
<asrwt>0</asrwt>
<pdfrwt beam="1">  1        2 0.25972233E+00 0.22450107E+04</pdfrwt>
<pdfrwt beam="2">  1       -2 0.11482615E+00 0.22450107E+04</pdfrwt>
<totfact> 0.53668152E+00</totfact>
</mgrwt>
</event>
<event>
 6    1  0.4869071E-004  0.4896632E+04  0.7818608E-02  0.7844654E-01
         -2   -1    0    0    0  501 -0.00000000000E+00  0.00000000000E+00  0.15329598503E+04  0.15329598503E+04  0.00000000000E+00 0. -1.
          2   -1    0    0  501    0  0.00000000000E+00 -0.00000000000E+00 -0.39102463244E+04  0.39102463244E+04  0.00000000000E+00 0.  1.
         23    2    1    2    0    0  0.92651564867E+03 -0.52075582785E+03 -0.36397872152E+04  0.37928952947E+04  0.91574369516E+02 0.  0.
         13    1    3    3    0    0  0.64863287390E+03 -0.38916176131E+03 -0.24572791958E+04  0.25710683631E+04  0.00000000000E+00 0.  1.
        -13    1    3    3    0    0  0.27788277477E+03 -0.13159406654E+03 -0.11825080194E+04  0.12218269316E+04  0.00000000000E+00 0. -1.
         22    1    1    2    0    0 -0.92651564867E+03  0.52075582785E+03  0.12625007411E+04  0.16503108801E+04  0.00000000000E+00 0. -1.
<mgrwt>
<rscale>  0 0.48966317E+04</rscale>
<asrwt>0</asrwt>
<pdfrwt beam="1">  1        2 0.60157636E+00 0.48966317E+04</pdfrwt>
<pdfrwt beam="2">  1       -2 0.23583998E+00 0.48966317E+04</pdfrwt>
<totfact> 0.23191899E-02</totfact>
</mgrwt>
</event>
<event>
 6    1  0.4630212E-004  0.7174356E+03  0.7818608E-02  0.9687871E-01
         -2   -1    0    0    0  501 -0.00000000000E+00  0.00000000000E+00  0.20406648328E+03  0.20406648328E+03  0.00000000000E+00 0. -1.
          2   -1    0    0  501    0  0.00000000000E+00 -0.00000000000E+00 -0.63057133719E+03  0.63057133719E+03  0.00000000000E+00 0.  1.
         23    2    1    2    0    0  0.18175743260E+03 -0.21970275908E+03 -0.45857449768E+03  0.54769962381E+03  0.91538196155E+02 0.  0.
         11    1    3    3    0    0  0.13335922153E+03 -0.11916200989E+03 -0.21412429989E+03  0.27898652722E+03  0.00000000000E+00 0. -1.
        -11    1    3    3    0    0  0.48398211069E+02 -0.10054074919E+03 -0.24445019779E+03  0.26871309659E+03  0.00000000000E+00 0.  1.
         22    1    1    2    0    0 -0.18175743260E+03  0.21970275908E+03  0.32069643766E+02  0.28693819666E+03  0.00000000000E+00 0. -1.
<mgrwt>
<rscale>  0 0.71743564E+03</rscale>
<asrwt>0</asrwt>
<pdfrwt beam="1">  1        2 0.97010973E-01 0.71743564E+03</pdfrwt>
<pdfrwt beam="2">  1       -2 0.31394844E-01 0.71743564E+03</pdfrwt>
<totfact> 0.44225817E+02</totfact>
</mgrwt>
</event>
<event>
 6    1  0.4630212E-004  0.3720783E+04  0.7818608E-02  0.8063372E-01
          2   -1    0    0  501    0  0.00000000000E+00  0.00000000000E+00  0.21295553573E+04  0.21295553573E+04  0.00000000000E+00 0.  1.
         -2   -1    0    0    0  501 -0.00000000000E+00 -0.00000000000E+00 -0.16252480123E+04  0.16252480123E+04  0.00000000000E+00 0. -1.
         23    2    1    2    0    0  0.12273027604E+04 -0.86837081396E+03 -0.85146914758E+03  0.17303355792E+04  0.93389353008E+02 0.  0.
         13    1    3    3    0    0  0.10645879057E+04 -0.71608681782E+03 -0.70999448058E+03  0.14663628139E+04  0.00000000000E+00 0. -1.
        -13    1    3    3    0    0  0.16271485471E+03 -0.15228399614E+03 -0.14147466699E+03  0.26397276531E+03  0.00000000000E+00 0.  1.
         22    1    1    2    0    0 -0.12273027604E+04  0.86837081396E+03  0.13557764926E+04  0.20244677904E+04  0.00000000000E+00 0.  1.
<mgrwt>
<rscale>  0 0.37207825E+04</rscale>
<asrwt>0</asrwt>
<pdfrwt beam="1">  1        2 0.32762390E+00 0.37207825E+04</pdfrwt>
<pdfrwt beam="2">  1       -2 0.25003816E+00 0.37207825E+04</pdfrwt>
<totfact> 0.29320052E-01</totfact>
</mgrwt>
</event>
<event>
 6    1  0.4630212E-004  0.2451771E+04  0.7818608E-02  0.8420371E-01
         -2   -1    0    0    0  501 -0.00000000000E+00  0.00000000000E+00  0.14570362628E+04  0.14570362628E+04  0.00000000000E+00 0. -1.
          2   -1    0    0  501    0  0.00000000000E+00 -0.00000000000E+00 -0.10314059143E+04  0.10314059143E+04  0.00000000000E+00 0.  1.
         23    2    1    2    0    0 -0.86651407834E+03  0.74035730550E+03 -0.24142352820E+03  0.11678603121E+04  0.81466563453E+02 0.  0.
         13    1    3    3    0    0 -0.52443293889E+03  0.40184679386E+03 -0.11966488026E+03  0.67143907892E+03  0.00000000000E+00 0.  1.
        -13    1    3    3    0    0 -0.34208113945E+03  0.33851051164E+03 -0.12175864794E+03  0.49642123323E+03  0.00000000000E+00 0. -1.
         22    1    1    2    0    0  0.86651407834E+03 -0.74035730550E+03  0.66705387668E+03  0.13205818650E+04  0.00000000000E+00 0. -1.
<mgrwt>
<rscale>  0 0.24517715E+04</rscale>
<asrwt>0</asrwt>
<pdfrwt beam="1">  1        2 0.15867783E+00 0.24517715E+04</pdfrwt>
<pdfrwt beam="2">  1       -2 0.22415942E+00 0.24517715E+04</pdfrwt>
<totfact> 0.20031423E+00</totfact>
</mgrwt>
</event>
<event>
 6    1  0.4630212E-004  0.6316542E+03  0.7818608E-02  0.9841826E-01
          2   -1    0    0  501    0  0.00000000000E+00  0.00000000000E+00  0.11032141529E+04  0.11032141529E+04  0.00000000000E+00 0.  1.
         -2   -1    0    0    0  501 -0.00000000000E+00 -0.00000000000E+00 -0.90414677499E+02  0.90414677499E+02  0.00000000000E+00 0. -1.
         23    2    1    2    0    0 -0.17922466122E+03  0.24462274539E+03  0.63152611516E+03  0.70646238863E+03  0.91115891383E+02 0.  0.
         11    1    3    3    0    0 -0.16559442438E+03  0.16981842871E+03  0.43018519133E+03  0.49124241567E+03  0.00000000000E+00 0.  1.
        -11    1    3    3    0    0 -0.13630236845E+02  0.74804316677E+02  0.20134092383E+03  0.21521997296E+03  0.00000000000E+00 0. -1.
         22    1    1    2    0    0  0.17922466122E+03 -0.24462274539E+03  0.38127336020E+03  0.48716644173E+03  0.00000000000E+00 0.  1.
<mgrwt>
<rscale>  0 0.63165418E+03</rscale>
<asrwt>0</asrwt>
<pdfrwt beam="1">  1        2 0.16972525E+00 0.63165418E+03</pdfrwt>
<pdfrwt beam="2">  1       -2 0.13909951E-01 0.63165418E+03</pdfrwt>
<totfact> 0.87107546E+02</totfact>
</mgrwt>
</event>
<event>
 6    1  0.4630212E-004  0.3005616E+04  0.7818608E-02  0.8242129E-01
          2   -1    0    0  501    0  0.00000000000E+00  0.00000000000E+00  0.20906588623E+04  0.20906588623E+04  0.00000000000E+00 0.  1.
         -2   -1    0    0    0  501 -0.00000000000E+00 -0.00000000000E+00 -0.10802492223E+04  0.10802492223E+04  0.00000000000E+00 0. -1.
         23    2    1    2    0    0 -0.52962821625E+03  0.13820017332E+04  0.77655998806E+03  0.16725354682E+04  0.62407044648E+02 0.  0.
         13    1    3    3    0    0 -0.32932577668E+03  0.89415338547E+03  0.53040384079E+03  0.10905475589E+04  0.00000000000E+00 0. -1.
        -13    1    3    3    0    0 -0.20030243957E+03  0.48784834777E+03  0.24615614727E+03  0.58198790929E+03  0.00000000000E+00 0.  1.
         22    1    1    2    0    0  0.52962821625E+03 -0.13820017332E+04  0.23384965194E+03  0.14983726165E+04  0.00000000000E+00 0.  1.
<mgrwt>
<rscale>  0 0.30056165E+04</rscale>
<asrwt>0</asrwt>
<pdfrwt beam="1">  1        2 0.32163982E+00 0.30056165E+04</pdfrwt>
<pdfrwt beam="2">  1       -2 0.16619219E+00 0.30056165E+04</pdfrwt>
<totfact> 0.11549169E+00</totfact>
</mgrwt>
</event>
<event>
 6    1  0.4630212E-004  0.4650705E+04  0.7818608E-02  0.7884771E-01
         -2   -1    0    0    0  501 -0.00000000000E+00  0.00000000000E+00  0.31743664077E+04  0.31743664077E+04  0.00000000000E+00 0. -1.
          2   -1    0    0  501    0  0.00000000000E+00 -0.00000000000E+00 -0.17034151919E+04  0.17034151919E+04  0.00000000000E+00 0.  1.
         23    2    1    2    0    0 -0.17534140072E+03  0.13061455586E+04  0.27445417999E+04  0.30450803684E+04  0.56955522925E+02 0.  0.
         11    1    3    3    0    0 -0.80422187912E+02  0.69457914189E+03  0.13970811242E+04  0.15622879313E+04  0.00000000000E+00 0. -1.
        -11    1    3    3    0    0 -0.94919212805E+02  0.61156641670E+03  0.13474606757E+04  0.14827924371E+04  0.00000000000E+00 0.  1.
         22    1    1    2    0    0  0.17534140072E+03 -0.13061455586E+04 -0.12735905841E+04  0.18327012312E+04  0.00000000000E+00 0.  1.
<mgrwt>
<rscale>  0 0.46507049E+04</rscale>
<asrwt>0</asrwt>
<pdfrwt beam="1">  1        2 0.26206388E+00 0.46507049E+04</pdfrwt>
<pdfrwt beam="2">  1       -2 0.48836406E+00 0.46507049E+04</pdfrwt>
<totfact> 0.14324863E-02</totfact>
</mgrwt>
</event>
<event>
 6    1  0.4630212E-004  0.2218445E+04  0.7818608E-02  0.8510790E-01
         -2   -1    0    0    0  501 -0.00000000000E+00  0.00000000000E+00  0.31475749812E+03  0.31475749812E+03  0.00000000000E+00 0. -1.
          2   -1    0    0  501    0  0.00000000000E+00 -0.00000000000E+00 -0.39089600399E+04  0.39089600399E+04  0.00000000000E+00 0.  1.
         23    2    1    2    0    0  0.10634008876E+04 -0.25745260482E+02 -0.23859219882E+04  0.26139268180E+04  0.92224778918E+02 0.  0.
         13    1    3    3    0    0  0.93031145118E+02  0.13726085068E+02 -0.26610400712E+03  0.28223136250E+03  0.00000000000E+00 0.  1.
        -13    1    3    3    0    0  0.97036974247E+03 -0.39471345550E+02 -0.21198179811E+04  0.23316954555E+04  0.00000000000E+00 0. -1.
         22    1    1    2    0    0 -0.10634008876E+04  0.25745260482E+02 -0.12082805536E+04  0.16097907200E+04  0.00000000000E+00 0. -1.
<mgrwt>
<rscale>  0 0.22184449E+04</rscale>
<asrwt>0</asrwt>
<pdfrwt beam="1">  1        2 0.60137845E+00 0.22184449E+04</pdfrwt>
<pdfrwt beam="2">  1       -2 0.48424232E-01 0.22184449E+04</pdfrwt>
<totfact> 0.15002358E+00</totfact>
</mgrwt>
</event>
<event>
 6    1  0.4630212E-004  0.1427663E+04  0.7818608E-02  0.8934034E-01
         -2   -1    0    0    0  501 -0.00000000000E+00  0.00000000000E+00  0.14638006664E+03  0.14638006664E+03  0.00000000000E+00 0. -1.
          2   -1    0    0  501    0  0.00000000000E+00 -0.00000000000E+00 -0.34810460512E+04  0.34810460512E+04  0.00000000000E+00 0.  1.
         23    2    1    2    0    0  0.95976516297E+01  0.70647910893E+03 -0.14762956009E+04  0.16392748838E+04  0.92566718504E+02 0.  0.
         11    1    3    3    0    0 -0.37169735718E+02  0.22693332584E+03 -0.44112682714E+03  0.49746678407E+03  0.00000000000E+00 0.  1.
        -11    1    3    3    0    0  0.46767387348E+02  0.47954578308E+03 -0.10351687737E+04  0.11418080997E+04  0.00000000000E+00 0. -1.
         22    1    1    2    0    0 -0.95976516297E+01 -0.70647910893E+03 -0.18583703837E+04  0.19881512340E+04  0.00000000000E+00 0. -1.
<mgrwt>
<rscale>  0 0.14276635E+04</rscale>
<asrwt>0</asrwt>
<pdfrwt beam="1">  1        2 0.53554551E+00 0.14276635E+04</pdfrwt>
<pdfrwt beam="2">  1       -2 0.22520012E-01 0.14276635E+04</pdfrwt>
<totfact> 0.14326774E+01</totfact>
</mgrwt>
</event>
<event>
 6    1  0.4630212E-004  0.1528618E+04  0.7818608E-02  0.8865642E-01
         -2   -1    0    0    0  501 -0.00000000000E+00  0.00000000000E+00  0.10865658666E+04  0.10865658666E+04  0.00000000000E+00 0. -1.
          2   -1    0    0  501    0  0.00000000000E+00 -0.00000000000E+00 -0.53762822614E+03  0.53762822614E+03  0.00000000000E+00 0.  1.
         23    2    1    2    0    0  0.21296255576E+03 -0.72220813336E+03  0.39681126800E+03  0.85602739777E+03  0.91575571379E+02 0.  0.
         13    1    3    3    0    0  0.20827173718E+03 -0.66273304651E+03  0.33914503911E+03  0.77305340371E+03  0.00000000000E+00 0.  1.
        -13    1    3    3    0    0  0.46908185794E+01 -0.59475086855E+02  0.57666228893E+02  0.82973994059E+02  0.00000000000E+00 0. -1.
         22    1    1    2    0    0 -0.21296255576E+03  0.72220813336E+03  0.15212637244E+03  0.76816669496E+03  0.00000000000E+00 0.  1.
<mgrwt>
<rscale>  0 0.15286183E+04</rscale>
<asrwt>0</asrwt>
<pdfrwt beam="1">  1        2 0.82712034E-01 0.15286183E+04</pdfrwt>
<pdfrwt beam="2">  1       -2 0.16716398E+00 0.15286183E+04</pdfrwt>
<totfact> 0.12165352E+01</totfact>
</mgrwt>
</event>
<event>
 6    1  0.4630212E-004  0.1336040E+04  0.7818608E-02  0.9001463E-01
          1   -1    0    0  501    0  0.00000000000E+00  0.00000000000E+00  0.82631061102E+03  0.82631061102E+03  0.00000000000E+00 0.  1.
         -1   -1    0    0    0  501 -0.00000000000E+00 -0.00000000000E+00 -0.54005235116E+03  0.54005235116E+03  0.00000000000E+00 0. -1.
         23    2    1    2    0    0 -0.23005468140E+03 -0.36176574285E+03  0.66359521194E+03  0.79523882108E+03  0.90810616764E+02 0.  0.
         13    1    3    3    0    0 -0.17914955874E+03 -0.23426902894E+03  0.51083662474E+03  0.58985642278E+03  0.00000000000E+00 0.  1.
        -13    1    3    3    0    0 -0.50905122660E+02 -0.12749671391E+03  0.15275858720E+03  0.20538239831E+03  0.00000000000E+00 0. -1.
         22    1    1    2    0    0  0.23005468140E+03  0.36176574285E+03 -0.37733695208E+03  0.57112414109E+03  0.00000000000E+00 0. -1.
<mgrwt>
<rscale>  0 0.13360404E+04</rscale>
<asrwt>0</asrwt>
<pdfrwt beam="1">  1        1 0.12712471E+00 0.13360404E+04</pdfrwt>
<pdfrwt beam="2">  1       -1 0.83084976E-01 0.13360404E+04</pdfrwt>
<totfact> 0.29579795E+01</totfact>
</mgrwt>
</event>
<event>
 6    1  0.4630212E-004  0.1622802E+04  0.7818608E-02  0.8806661E-01
         -2   -1    0    0    0  501 -0.00000000000E+00  0.00000000000E+00  0.30995651760E+03  0.30995651760E+03  0.00000000000E+00 0. -1.
          2   -1    0    0  501    0  0.00000000000E+00 -0.00000000000E+00 -0.21240781873E+04  0.21240781873E+04  0.00000000000E+00 0.  1.
         23    2    1    2    0    0  0.65911453178E+03 -0.14811755365E+01 -0.16130157029E+04  0.17449209482E+04  0.92169939206E+02 0.  0.
         11    1    3    3    0    0  0.23880222775E+03 -0.37314072260E+02 -0.65381005599E+03  0.69705554534E+03  0.00000000000E+00 0. -1.
        -11    1    3    3    0    0  0.42031230403E+03  0.35832896723E+02 -0.95920564689E+03  0.10478654028E+04  0.00000000000E+00 0.  1.
         22    1    1    2    0    0 -0.65911453178E+03  0.14811755365E+01 -0.20110596686E+03  0.68911375678E+03  0.00000000000E+00 0. -1.
<mgrwt>
<rscale>  0 0.16228024E+04</rscale>
<asrwt>0</asrwt>
<pdfrwt beam="1">  1        2 0.32678125E+00 0.16228024E+04</pdfrwt>
<pdfrwt beam="2">  1       -2 0.47685620E-01 0.16228024E+04</pdfrwt>
<totfact> 0.22734246E+01</totfact>
</mgrwt>
</event>
<event>
 6    1  0.4630212E-004  0.2147610E+04  0.7818608E-02  0.8540556E-01
         -2   -1    0    0    0  501 -0.00000000000E+00  0.00000000000E+00  0.72768158952E+03  0.72768158952E+03  0.00000000000E+00 0. -1.
          2   -1    0    0  501    0  0.00000000000E+00 -0.00000000000E+00 -0.15845634549E+04  0.15845634549E+04  0.00000000000E+00 0.  1.
         23    2    1    2    0    0 -0.80674801035E+03  0.27752951886E+03  0.26955747042E+03  0.89918787528E+03  0.89513234469E+02 0.  0.
         13    1    3    3    0    0 -0.55937015362E+03  0.16462696954E+03  0.14958594817E+03  0.60197422183E+03  0.00000000000E+00 0. -1.
        -13    1    3    3    0    0 -0.24737785673E+03  0.11290254932E+03  0.11997152225E+03  0.29721365344E+03  0.00000000000E+00 0.  1.
         22    1    1    2    0    0  0.80674801035E+03 -0.27752951886E+03 -0.11264393358E+04  0.14130571691E+04  0.00000000000E+00 0.  1.
<mgrwt>
<rscale>  0 0.21476104E+04</rscale>
<asrwt>0</asrwt>
<pdfrwt beam="1">  1        2 0.24377899E+00 0.21476104E+04</pdfrwt>
<pdfrwt beam="2">  1       -2 0.11195101E+00 0.21476104E+04</pdfrwt>
<totfact> 0.65754270E+00</totfact>
</mgrwt>
</event>
<event>
 6    1  0.4630212E-004  0.1539683E+04  0.7818608E-02  0.8858485E-01
         -2   -1    0    0    0  501 -0.00000000000E+00  0.00000000000E+00  0.43465886263E+03  0.43465886263E+03  0.00000000000E+00 0. -1.
          2   -1    0    0  501    0  0.00000000000E+00 -0.00000000000E+00 -0.13634965962E+04  0.13634965962E+04  0.00000000000E+00 0.  1.
         23    2    1    2    0    0  0.43049924153E+03  0.55108903623E+03 -0.83441329720E+03  0.10925034929E+04  0.91047287990E+02 0.  0.
         11    1    3    3    0    0  0.31352192962E+03  0.36759127604E+03 -0.51646932773E+03  0.70721984776E+03  0.00000000000E+00 0.  1.
        -11    1    3    3    0    0  0.11697731192E+03  0.18349776019E+03 -0.31794396947E+03  0.38528364515E+03  0.00000000000E+00 0. -1.
         22    1    1    2    0    0 -0.43049924153E+03 -0.55108903623E+03 -0.94424436353E+02  0.70565196591E+03  0.00000000000E+00 0. -1.
<mgrwt>
<rscale>  0 0.15396829E+04</rscale>
<asrwt>0</asrwt>
<pdfrwt beam="1">  1        2 0.20976871E+00 0.15396829E+04</pdfrwt>
<pdfrwt beam="2">  1       -2 0.66870594E-01 0.15396829E+04</pdfrwt>
<totfact> 0.30040567E+01</totfact>
</mgrwt>
</event>
<event>
 6    1  0.4739806E-004  0.2728841E+04  0.7818608E-02  0.8325707E-01
          2   -1    0    0  501    0  0.00000000000E+00  0.00000000000E+00  0.95803669299E+03  0.95803669299E+03  0.00000000000E+00 0.  1.
         -2   -1    0    0    0  501 -0.00000000000E+00 -0.00000000000E+00 -0.19431860351E+04  0.19431860351E+04  0.00000000000E+00 0. -1.
         23    2    1    2    0    0 -0.37318267288E+03 -0.10015459940E+04 -0.13921630163E+04  0.17575357882E+04  0.91948340327E+02 0.  0.
         11    1    3    3    0    0 -0.12070984707E+03 -0.23761759122E+03 -0.38993569537E+03  0.47231645468E+03  0.00000000000E+00 0. -1.
        -11    1    3    3    0    0 -0.25247282580E+03 -0.76392840277E+03 -0.10022273209E+04  0.12852193335E+04  0.00000000000E+00 0.  1.
         22    1    1    2    0    0  0.37318267288E+03  0.10015459940E+04  0.40701367426E+03  0.11436869399E+04  0.00000000000E+00 0.  1.
<mgrwt>
<rscale>  0 0.27288412E+04</rscale>
<asrwt>0</asrwt>
<pdfrwt beam="1">  1        2 0.14739026E+00 0.27288412E+04</pdfrwt>
<pdfrwt beam="2">  1       -2 0.29895170E+00 0.27288412E+04</pdfrwt>
<totfact> 0.75723419E-01</totfact>
</mgrwt>
</event>
<event>
 6    1  0.4630212E-004  0.1127591E+04  0.7818608E-02  0.9178709E-01
         -2   -1    0    0    0  501 -0.00000000000E+00  0.00000000000E+00  0.19035058444E+03  0.19035058444E+03  0.00000000000E+00 0. -1.
          2   -1    0    0  501    0  0.00000000000E+00 -0.00000000000E+00 -0.16698944874E+04  0.16698944874E+04  0.00000000000E+00 0.  1.
         23    2    1    2    0    0  0.50788847190E+03  0.39575236966E+02 -0.36063274611E+03  0.63082281883E+03  0.91457924351E+02 0.  0.
         13    1    3    3    0    0  0.39342637913E+03  0.21574583243E+02 -0.23011012033E+03  0.45628987049E+03  0.00000000000E+00 0.  1.
        -13    1    3    3    0    0  0.11446209277E+03  0.18000653723E+02 -0.13052262578E+03  0.17453294834E+03  0.00000000000E+00 0. -1.
         22    1    1    2    0    0 -0.50788847190E+03 -0.39575236966E+02 -0.11189111569E+04  0.12294222530E+04  0.00000000000E+00 0.  1.
<mgrwt>
<rscale>  0 0.11275910E+04</rscale>
<asrwt>0</asrwt>
<pdfrwt beam="1">  1        2 0.25690684E+00 0.11275910E+04</pdfrwt>
<pdfrwt beam="2">  1       -2 0.29284705E-01 0.11275910E+04</pdfrwt>
<totfact> 0.10835328E+02</totfact>
</mgrwt>
</event>
<event>
 6    1  0.4630212E-004  0.1993654E+04  0.7818608E-02  0.8609593E-01
         -2   -1    0    0    0  501 -0.00000000000E+00  0.00000000000E+00  0.12422681608E+04  0.12422681608E+04  0.00000000000E+00 0. -1.
          2   -1    0    0  501    0  0.00000000000E+00 -0.00000000000E+00 -0.79987913702E+03  0.79987913702E+03  0.00000000000E+00 0.  1.
         23    2    1    2    0    0  0.33903662467E+03 -0.83093949221E+03 -0.21767302354E+03  0.92810592567E+03  0.92697311207E+02 0.  0.
         13    1    3    3    0    0  0.32189120595E+03 -0.74778955834E+03 -0.17352703860E+03  0.83241504381E+03  0.00000000000E+00 0. -1.
        -13    1    3    3    0    0  0.17145418719E+02 -0.83149933866E+02 -0.44145984935E+02  0.95690881858E+02  0.00000000000E+00 0.  1.
         22    1    1    2    0    0 -0.33903662467E+03  0.83093949221E+03  0.66006204735E+03  0.11140413722E+04  0.00000000000E+00 0. -1.
<mgrwt>
<rscale>  0 0.19936543E+04</rscale>
<asrwt>0</asrwt>
<pdfrwt beam="1">  1        2 0.12305833E+00 0.19936543E+04</pdfrwt>
<pdfrwt beam="2">  1       -2 0.19111818E+00 0.19936543E+04</pdfrwt>
<totfact> 0.48764273E+00</totfact>
</mgrwt>
</event>
<event>
 6    1  0.4630212E-004  0.3261369E+04  0.7818608E-02  0.8172795E-01
         -2   -1    0    0    0  501 -0.00000000000E+00  0.00000000000E+00  0.11683028949E+04  0.11683028949E+04  0.00000000000E+00 0. -1.
          2   -1    0    0  501    0  0.00000000000E+00 -0.00000000000E+00 -0.22760637275E+04  0.22760637275E+04  0.00000000000E+00 0.  1.
         23    2    1    2    0    0 -0.58883990077E+03 -0.43633977465E+03  0.98262283394E+03  0.12292303510E+04  0.91295094952E+02 0.  0.
         13    1    3    3    0    0 -0.44341423567E+03 -0.34859444110E+03  0.69351172652E+03  0.89391989774E+03  0.00000000000E+00 0.  1.
        -13    1    3    3    0    0 -0.14542566509E+03 -0.87745333547E+02  0.28911110743E+03  0.33531045326E+03  0.00000000000E+00 0. -1.
         22    1    1    2    0    0  0.58883990077E+03  0.43633977465E+03 -0.20903836665E+04  0.22151362714E+04  0.00000000000E+00 0.  1.
<mgrwt>
<rscale>  0 0.32613689E+04</rscale>
<asrwt>0</asrwt>
<pdfrwt beam="1">  1        2 0.35016365E+00 0.32613689E+04</pdfrwt>
<pdfrwt beam="2">  1       -2 0.17973891E+00 0.32613689E+04</pdfrwt>
<totfact> 0.71356870E-01</totfact>
</mgrwt>
</event>
<event>
 6    1  0.4630212E-004  0.1712058E+04  0.7818608E-02  0.8754517E-01
          2   -1    0    0  501    0  0.00000000000E+00  0.00000000000E+00  0.15497237939E+04  0.15497237939E+04  0.00000000000E+00 0.  1.
         -2   -1    0    0    0  501 -0.00000000000E+00 -0.00000000000E+00 -0.47284893885E+03  0.47284893885E+03  0.00000000000E+00 0. -1.
         23    2    1    2    0    0 -0.43261884326E+03  0.16972350797E+03 -0.30237431903E+03  0.56713691593E+03  0.11936883973E+03 0.  0.
         13    1    3    3    0    0 -0.14994078431E+03  0.51539316263E+02 -0.17267826918E+03  0.23442765316E+03  0.00000000000E+00 0. -1.
        -13    1    3    3    0    0 -0.28267805895E+03  0.11818419171E+03 -0.12969604984E+03  0.33270926276E+03  0.00000000000E+00 0.  1.
         22    1    1    2    0    0  0.43261884326E+03 -0.16972350797E+03  0.13792491741E+04  0.14554358168E+04  0.00000000000E+00 0.  1.
<mgrwt>
<rscale>  0 0.17120575E+04</rscale>
<asrwt>0</asrwt>
<pdfrwt beam="1">  1        2 0.23841904E+00 0.17120575E+04</pdfrwt>
<pdfrwt beam="2">  1       -2 0.72745992E-01 0.17120575E+04</pdfrwt>
<totfact> 0.19325099E+01</totfact>
</mgrwt>
</event>
<event>
 6    1  0.4630212E-004  0.1393641E+04  0.7818608E-02  0.8958434E-01
         -2   -1    0    0    0  501 -0.00000000000E+00  0.00000000000E+00  0.17717430340E+03  0.17717430340E+03  0.00000000000E+00 0. -1.
          2   -1    0    0  501    0  0.00000000000E+00 -0.00000000000E+00 -0.27405710898E+04  0.27405710898E+04  0.00000000000E+00 0.  1.
         23    2    1    2    0    0  0.34312121518E+03 -0.33096771363E+02 -0.25478624520E+04  0.25726818047E+04  0.90890204048E+02 0.  0.
         11    1    3    3    0    0  0.15464066799E+03  0.15409131810E+02 -0.13787473055E+04  0.13874780395E+04  0.00000000000E+00 0. -1.
        -11    1    3    3    0    0  0.18848054719E+03 -0.48505903173E+02 -0.11691151465E+04  0.11852037652E+04  0.00000000000E+00 0.  1.
         22    1    1    2    0    0 -0.34312121518E+03  0.33096771363E+02 -0.15534334387E+02  0.34506358852E+03  0.00000000000E+00 0. -1.
<mgrwt>
<rscale>  0 0.13936409E+04</rscale>
<asrwt>0</asrwt>
<pdfrwt beam="1">  1        2 0.42162633E+00 0.13936409E+04</pdfrwt>
<pdfrwt beam="2">  1       -2 0.27257585E-01 0.13936409E+04</pdfrwt>
<totfact> 0.30136644E+01</totfact>
</mgrwt>
</event>
<event>
 6    1  0.4630212E-004  0.1382389E+04  0.7818608E-02  0.8966666E-01
          2   -1    0    0  501    0  0.00000000000E+00  0.00000000000E+00  0.66992675852E+03  0.66992675852E+03  0.00000000000E+00 0.  1.
         -2   -1    0    0    0  501 -0.00000000000E+00 -0.00000000000E+00 -0.71313759720E+03  0.71313759720E+03  0.00000000000E+00 0. -1.
         23    2    1    2    0    0  0.45478710756E+03  0.49872671034E+03  0.11213094314E+03  0.69046727662E+03  0.92801222313E+02 0.  0.
         11    1    3    3    0    0  0.26032436940E+03  0.22307153665E+03  0.76396118977E+02  0.35123504205E+03  0.00000000000E+00 0. -1.
        -11    1    3    3    0    0  0.19446273816E+03  0.27565517368E+03  0.35734824159E+02  0.33923223456E+03  0.00000000000E+00 0.  1.
         22    1    1    2    0    0 -0.45478710756E+03 -0.49872671034E+03 -0.15534178181E+03  0.69259707910E+03  0.00000000000E+00 0. -1.
<mgrwt>
<rscale>  0 0.13823892E+04</rscale>
<asrwt>0</asrwt>
<pdfrwt beam="1">  1        2 0.10306566E+00 0.13823892E+04</pdfrwt>
<pdfrwt beam="2">  1       -2 0.10971348E+00 0.13823892E+04</pdfrwt>
<totfact> 0.27904028E+01</totfact>
</mgrwt>
</event>
<event>
 6    1  0.4630212E-004  0.2167064E+04  0.7818608E-02  0.8532263E-01
         -2   -1    0    0    0  501 -0.00000000000E+00  0.00000000000E+00  0.11837497771E+04  0.11837497771E+04  0.00000000000E+00 0. -1.
          2   -1    0    0  501    0  0.00000000000E+00 -0.00000000000E+00 -0.99179924009E+03  0.99179924009E+03  0.00000000000E+00 0.  1.
         23    2    1    2    0    0 -0.42767606461E+03  0.96731965890E+03  0.32303929992E+03  0.11098105866E+04  0.93332792269E+02 0.  0.
         11    1    3    3    0    0 -0.19196973843E+03  0.41424897059E+03  0.18718210867E+03  0.49344881387E+03  0.00000000000E+00 0. -1.
        -11    1    3    3    0    0 -0.23570632619E+03  0.55307068831E+03  0.13585719125E+03  0.61636177274E+03  0.00000000000E+00 0.  1.
         22    1    1    2    0    0  0.42767606461E+03 -0.96731965890E+03 -0.13108876288E+03  0.10657384306E+04  0.00000000000E+00 0. -1.
<mgrwt>
<rscale>  0 0.21670645E+04</rscale>
<asrwt>0</asrwt>
<pdfrwt beam="1">  1        2 0.15258450E+00 0.21670645E+04</pdfrwt>
<pdfrwt beam="2">  1       -2 0.18211535E+00 0.21670645E+04</pdfrwt>
<totfact> 0.40965155E+00</totfact>
</mgrwt>
</event>
<event>
 6    1  0.4630212E-004  0.4776618E+03  0.7818608E-02  0.1019780E+00
          2   -1    0    0  501    0  0.00000000000E+00  0.00000000000E+00  0.57433335711E+02  0.57433335711E+02  0.00000000000E+00 0.  1.
         -2   -1    0    0    0  501 -0.00000000000E+00 -0.00000000000E+00 -0.99315476008E+03  0.99315476008E+03  0.00000000000E+00 0. -1.
         23    2    1    2    0    0 -0.12233615222E+02 -0.22203675296E+03 -0.61414693926E+03  0.65961478407E+03  0.92006626660E+02 0.  0.
         13    1    3    3    0    0  0.37012520451E+02 -0.11534181043E+03 -0.26913413081E+03  0.29513867972E+03  0.00000000000E+00 0.  1.
        -13    1    3    3    0    0 -0.49246135673E+02 -0.10669494253E+03 -0.34501280845E+03  0.36447610434E+03  0.00000000000E+00 0. -1.
         22    1    1    2    0    0  0.12233615222E+02  0.22203675296E+03 -0.32157448511E+03  0.39097331173E+03  0.00000000000E+00 0. -1.
<mgrwt>
<rscale>  0 0.47766177E+03</rscale>
<asrwt>0</asrwt>
<pdfrwt beam="1">  1        2 0.88358982E-02 0.47766177E+03</pdfrwt>
<pdfrwt beam="2">  1       -2 0.15279303E+00 0.47766177E+03</pdfrwt>
<totfact> 0.22618522E+02</totfact>
</mgrwt>
</event>
<event>
 6    1  0.4630212E-004  0.1980818E+04  0.7818608E-02  0.8615642E-01
          2   -1    0    0  501    0  0.00000000000E+00  0.00000000000E+00  0.28675931792E+04  0.28675931792E+04  0.00000000000E+00 0.  1.
         -2   -1    0    0    0  501 -0.00000000000E+00 -0.00000000000E+00 -0.34206739225E+03  0.34206739225E+03  0.00000000000E+00 0. -1.
         23    2    1    2    0    0 -0.47187879571E+03  0.86824682005E+03  0.12703870477E+04  0.16121952689E+04  0.93638643026E+02 0.  0.
         13    1    3    3    0    0 -0.26883723332E+03  0.42539996564E+03  0.69925829420E+03  0.86151073748E+03  0.00000000000E+00 0. -1.
        -13    1    3    3    0    0 -0.20304156239E+03  0.44284685440E+03  0.57112875355E+03  0.75068453137E+03  0.00000000000E+00 0.  1.
         22    1    1    2    0    0  0.47187879571E+03 -0.86824682005E+03  0.12551387393E+04  0.15974653026E+04  0.00000000000E+00 0. -1.
<mgrwt>
<rscale>  0 0.19808181E+04</rscale>
<asrwt>0</asrwt>
<pdfrwt beam="1">  1        2 0.44116817E+00 0.19808181E+04</pdfrwt>
<pdfrwt beam="2">  1       -2 0.52625755E-01 0.19808181E+04</pdfrwt>
<totfact> 0.66799381E+00</totfact>
</mgrwt>
</event>
<event>
 6    1  0.4630212E-004  0.7545357E+03  0.7818608E-02  0.9628261E-01
          2   -1    0    0  501    0  0.00000000000E+00  0.00000000000E+00  0.46176738149E+03  0.46176738149E+03  0.00000000000E+00 0.  1.
         -2   -1    0    0    0  501 -0.00000000000E+00 -0.00000000000E+00 -0.30823104999E+03  0.30823104999E+03  0.00000000000E+00 0. -1.
         23    2    1    2    0    0  0.20877652608E+03 -0.23914293921E+03  0.27497645108E+03  0.43010920561E+03  0.92762583414E+02 0.  0.
         11    1    3    3    0    0  0.63660144904E+02 -0.13764093347E+03  0.15044978603E+03  0.21361830150E+03  0.00000000000E+00 0. -1.
        -11    1    3    3    0    0  0.14511638118E+03 -0.10150200574E+03  0.12452666505E+03  0.21649090411E+03  0.00000000000E+00 0.  1.
         22    1    1    2    0    0 -0.20877652608E+03  0.23914293921E+03 -0.12144011959E+03  0.33988922587E+03  0.00000000000E+00 0. -1.
<mgrwt>
<rscale>  0 0.75453574E+03</rscale>
<asrwt>0</asrwt>
<pdfrwt beam="1">  1        2 0.71041136E-01 0.75453574E+03</pdfrwt>
<pdfrwt beam="2">  1       -2 0.47420162E-01 0.75453574E+03</pdfrwt>
<totfact> 0.28684670E+02</totfact>
</mgrwt>
</event>
<event>
 6    1  0.4630212E-004  0.1280703E+04  0.7818608E-02  0.9045009E-01
         -2   -1    0    0    0  501 -0.00000000000E+00  0.00000000000E+00  0.38944826035E+03  0.38944826035E+03  0.00000000000E+00 0. -1.
          2   -1    0    0  501    0  0.00000000000E+00 -0.00000000000E+00 -0.10528996707E+04  0.10528996707E+04  0.00000000000E+00 0.  1.
         23    2    1    2    0    0 -0.49662772726E+03  0.29841701207E+03 -0.36311593491E+02  0.58853521009E+03  0.96764400047E+02 0.  0.
         13    1    3    3    0    0 -0.41319556468E+03  0.28209486148E+03 -0.13396692289E+02  0.50048731943E+03  0.00000000000E+00 0. -1.
        -13    1    3    3    0    0 -0.83432162582E+02  0.16322150592E+02 -0.22914901202E+02  0.88047890663E+02  0.00000000000E+00 0.  1.
         22    1    1    2    0    0  0.49662772726E+03 -0.29841701207E+03 -0.62713981682E+03  0.85381272093E+03  0.00000000000E+00 0.  1.
<mgrwt>
<rscale>  0 0.12807028E+04</rscale>
<asrwt>0</asrwt>
<pdfrwt beam="1">  1        2 0.16198456E+00 0.12807028E+04</pdfrwt>
<pdfrwt beam="2">  1       -2 0.59915117E-01 0.12807028E+04</pdfrwt>
<totfact> 0.59435583E+01</totfact>
</mgrwt>
</event>
<event>
 6    1  0.4630212E-004  0.1353380E+04  0.7818608E-02  0.8988273E-01
         -2   -1    0    0    0  501 -0.00000000000E+00  0.00000000000E+00  0.32590346720E+03  0.32590346720E+03  0.00000000000E+00 0. -1.
          2   -1    0    0  501    0  0.00000000000E+00 -0.00000000000E+00 -0.14050462705E+04  0.14050462705E+04  0.00000000000E+00 0.  1.
         23    2    1    2    0    0 -0.14740737242E+02 -0.51715061219E+03 -0.10937569618E+04  0.12133827192E+04  0.91275882911E+02 0.  0.
         11    1    3    3    0    0  0.29280764486E+02 -0.29948417321E+03 -0.68543140611E+03  0.74857487645E+03  0.00000000000E+00 0.  1.
        -11    1    3    3    0    0 -0.44021501728E+02 -0.21766643898E+03 -0.40832555567E+03  0.46480784275E+03  0.00000000000E+00 0. -1.
         22    1    1    2    0    0  0.14740737242E+02  0.51715061219E+03  0.14614158470E+02  0.51756701851E+03  0.00000000000E+00 0. -1.
<mgrwt>
<rscale>  0 0.13533801E+04</rscale>
<asrwt>0</asrwt>
<pdfrwt beam="1">  1        2 0.21616096E+00 0.13533801E+04</pdfrwt>
<pdfrwt beam="2">  1       -2 0.50138995E-01 0.13533801E+04</pdfrwt>
<totfact> 0.52807320E+01</totfact>
</mgrwt>
</event>
<event>
 6    1  0.4630212E-004  0.1633911E+04  0.7818608E-02  0.8799982E-01
          2   -1    0    0  501    0  0.00000000000E+00  0.00000000000E+00  0.29338779569E+04  0.29338779569E+04  0.00000000000E+00 0.  1.
         -2   -1    0    0    0  501 -0.00000000000E+00 -0.00000000000E+00 -0.22748605223E+03  0.22748605223E+03  0.00000000000E+00 0. -1.
         23    2    1    2    0    0 -0.30725638607E+03 -0.42127888603E+03  0.14715002618E+03  0.54954445580E+03  0.91997783115E+02 0.  0.
         13    1    3    3    0    0 -0.99839652005E+02 -0.21419188708E+03  0.61547611346E+02  0.24420120611E+03  0.00000000000E+00 0. -1.
        -13    1    3    3    0    0 -0.20741673406E+03 -0.20708699895E+03  0.85602414836E+02  0.30534324969E+03  0.00000000000E+00 0.  1.
         22    1    1    2    0    0  0.30725638607E+03  0.42127888603E+03  0.25592418785E+04  0.26118195534E+04  0.00000000000E+00 0.  1.
<mgrwt>
<rscale>  0 0.16339110E+04</rscale>
<asrwt>0</asrwt>
<pdfrwt beam="1">  1        2 0.45136581E+00 0.16339110E+04</pdfrwt>
<pdfrwt beam="2">  1       -2 0.34997856E-01 0.16339110E+04</pdfrwt>
<totfact> 0.14099795E+01</totfact>
</mgrwt>
</event>
<event>
 6    1  0.4630212E-004  0.1405518E+04  0.7818608E-02  0.8949834E-01
         -2   -1    0    0    0  501 -0.00000000000E+00  0.00000000000E+00  0.30991140475E+03  0.30991140475E+03  0.00000000000E+00 0. -1.
          2   -1    0    0  501    0  0.00000000000E+00 -0.00000000000E+00 -0.15935861971E+04  0.15935861971E+04  0.00000000000E+00 0.  1.
         23    2    1    2    0    0 -0.33907398454E+03  0.80163694170E+02 -0.14664311583E+04  0.15100547545E+04  0.91911016251E+02 0.  0.
         11    1    3    3    0    0 -0.21758817353E+03  0.67679774637E+01 -0.93341201328E+03  0.95846147827E+03  0.00000000000E+00 0. -1.
        -11    1    3    3    0    0 -0.12148581101E+03  0.73395716706E+02 -0.53301914498E+03  0.55159327627E+03  0.00000000000E+00 0.  1.
         22    1    1    2    0    0  0.33907398454E+03 -0.80163694170E+02  0.18275636589E+03  0.39344284735E+03  0.00000000000E+00 0. -1.
<mgrwt>
<rscale>  0 0.14055185E+04</rscale>
<asrwt>0</asrwt>
<pdfrwt beam="1">  1        2 0.24516711E+00 0.14055185E+04</pdfrwt>
<pdfrwt beam="2">  1       -2 0.47678676E-01 0.14055185E+04</pdfrwt>
<totfact> 0.45593145E+01</totfact>
</mgrwt>
</event>
<event>
 6    1  0.4630212E-004  0.1329204E+04  0.7818608E-02  0.9006722E-01
         -2   -1    0    0    0  501 -0.00000000000E+00  0.00000000000E+00  0.25668469700E+03  0.25668469700E+03  0.00000000000E+00 0. -1.
          2   -1    0    0  501    0  0.00000000000E+00 -0.00000000000E+00 -0.17207713994E+04  0.17207713994E+04  0.00000000000E+00 0.  1.
         23    2    1    2    0    0  0.29967686910E+03  0.57592976660E+03 -0.92290784761E+03  0.11322485037E+04  0.93415506824E+02 0.  0.
         11    1    3    3    0    0  0.28058039388E+03  0.49022770074E+03 -0.75664143625E+03  0.94422180607E+03  0.00000000000E+00 0.  1.
        -11    1    3    3    0    0  0.19096475220E+02  0.85702065864E+02 -0.16626641136E+03  0.18802669759E+03  0.00000000000E+00 0. -1.
         22    1    1    2    0    0 -0.29967686910E+03 -0.57592976660E+03 -0.54117885477E+03  0.84520759272E+03  0.00000000000E+00 0. -1.
<mgrwt>
<rscale>  0 0.13292038E+04</rscale>
<asrwt>0</asrwt>
<pdfrwt beam="1">  1        2 0.26473405E+00 0.13292038E+04</pdfrwt>
<pdfrwt beam="2">  1       -2 0.39489955E-01 0.13292038E+04</pdfrwt>
<totfact> 0.56645916E+01</totfact>
</mgrwt>
</event>
<event>
 6    1  0.4630212E-004  0.3615894E+04  0.7818608E-02  0.8086861E-01
          2   -1    0    0  501    0  0.00000000000E+00  0.00000000000E+00  0.19805644677E+04  0.19805644677E+04  0.00000000000E+00 0.  1.
         -2   -1    0    0    0  501 -0.00000000000E+00 -0.00000000000E+00 -0.16503738639E+04  0.16503738639E+04  0.00000000000E+00 0. -1.
         23    2    1    2    0    0  0.14768126492E+04 -0.33751341914E+03  0.11540079605E+04  0.19065352622E+04  0.90837349290E+02 0.  0.
         13    1    3    3    0    0  0.41980989201E+03 -0.13636838014E+03  0.32049198940E+03  0.54548308480E+03  0.00000000000E+00 0. -1.
        -13    1    3    3    0    0  0.10570027572E+04 -0.20114503900E+03  0.83351597112E+03  0.13610521774E+04  0.00000000000E+00 0.  1.
         22    1    1    2    0    0 -0.14768126492E+04  0.33751341914E+03 -0.82381735669E+03  0.17244030695E+04  0.00000000000E+00 0. -1.
<mgrwt>
<rscale>  0 0.36158937E+04</rscale>
<asrwt>0</asrwt>
<pdfrwt beam="1">  1        2 0.30470222E+00 0.36158937E+04</pdfrwt>
<pdfrwt beam="2">  1       -2 0.25390367E+00 0.36158937E+04</pdfrwt>
<totfact> 0.33904800E-01</totfact>
</mgrwt>
</event>
<event>
 6    1  0.4630212E-004  0.2359538E+04  0.7818608E-02  0.8454809E-01
         -2   -1    0    0    0  501 -0.00000000000E+00  0.00000000000E+00  0.94281271077E+03  0.94281271077E+03  0.00000000000E+00 0. -1.
          2   -1    0    0  501    0  0.00000000000E+00 -0.00000000000E+00 -0.14762788530E+04  0.14762788530E+04  0.00000000000E+00 0.  1.
         23    2    1    2    0    0 -0.49575961290E+03 -0.25761021829E+03  0.79609863591E+03  0.97691157583E+03  0.91883461736E+02 0.  0.
         11    1    3    3    0    0 -0.36712687019E+03 -0.15072223733E+03  0.52052874890E+03  0.65456054729E+03  0.00000000000E+00 0.  1.
        -11    1    3    3    0    0 -0.12863274270E+03 -0.10688798096E+03  0.27556988701E+03  0.32235102853E+03  0.00000000000E+00 0. -1.
         22    1    1    2    0    0  0.49575961290E+03  0.25761021829E+03 -0.13295647782E+04  0.14421799880E+04  0.00000000000E+00 0.  1.
<mgrwt>
<rscale>  0 0.23595376E+04</rscale>
<asrwt>0</asrwt>
<pdfrwt beam="1">  1        2 0.22711982E+00 0.23595376E+04</pdfrwt>
<pdfrwt beam="2">  1       -2 0.14504811E+00 0.23595376E+04</pdfrwt>
<totfact> 0.38678739E+00</totfact>
</mgrwt>
</event>
<event>
 6    1  0.4630212E-004  0.1722054E+04  0.7818608E-02  0.8748885E-01
          2   -1    0    0  501    0  0.00000000000E+00  0.00000000000E+00  0.68196843916E+03  0.68196843916E+03  0.00000000000E+00 0.  1.
         -2   -1    0    0    0  501 -0.00000000000E+00 -0.00000000000E+00 -0.10870991366E+04  0.10870991366E+04  0.00000000000E+00 0. -1.
         23    2    1    2    0    0  0.63841615092E+03 -0.57434444204E+03 -0.20154035700E+03  0.88651687091E+03  0.88582882384E+02 0.  0.
         13    1    3    3    0    0  0.41457517443E+03 -0.41948601415E+03 -0.11486169449E+03  0.60086129862E+03  0.00000000000E+00 0. -1.
        -13    1    3    3    0    0  0.22384097649E+03 -0.15485842789E+03 -0.86678662509E+02  0.28565557229E+03  0.00000000000E+00 0.  1.
         22    1    1    2    0    0 -0.63841615092E+03  0.57434444204E+03 -0.20359034038E+03  0.88255070481E+03  0.00000000000E+00 0. -1.
<mgrwt>
<rscale>  0 0.17220538E+04</rscale>
<asrwt>0</asrwt>
<pdfrwt beam="1">  1        2 0.10491822E+00 0.17220538E+04</pdfrwt>
<pdfrwt beam="2">  1       -2 0.16724602E+00 0.17220538E+04</pdfrwt>
<totfact> 0.89648748E+00</totfact>
</mgrwt>
</event>
<event>
 6    1  0.4630212E-004  0.5851196E+03  0.7818608E-02  0.9936768E-01
         -2   -1    0    0    0  501 -0.00000000000E+00  0.00000000000E+00  0.45148716614E+02  0.45148716614E+02  0.00000000000E+00 0. -1.
          2   -1    0    0  501    0  0.00000000000E+00 -0.00000000000E+00 -0.18957626250E+04  0.18957626250E+04  0.00000000000E+00 0.  1.
         23    2    1    2    0    0 -0.22389128546E+03 -0.15728987969E+03 -0.67761143126E+03  0.73641882387E+03  0.91038554558E+02 0.  0.
         11    1    3    3    0    0 -0.15856237705E+03 -0.96713982316E+02 -0.55208969235E+03  0.58249347652E+03  0.00000000000E+00 0. -1.
        -11    1    3    3    0    0 -0.65328908410E+02 -0.60575897378E+02 -0.12552173891E+03  0.15392534735E+03  0.00000000000E+00 0.  1.
         22    1    1    2    0    0  0.22389128546E+03  0.15728987969E+03 -0.11730024771E+04  0.12044925177E+04  0.00000000000E+00 0. -1.
<mgrwt>
<rscale>  0 0.58511964E+03</rscale>
<asrwt>0</asrwt>
<pdfrwt beam="1">  1        2 0.29165585E+00 0.58511964E+03</pdfrwt>
<pdfrwt beam="2">  1       -2 0.69459550E-02 0.58511964E+03</pdfrwt>
<totfact> 0.96954035E+02</totfact>
</mgrwt>
</event>
<event>
 6    1  0.4630212E-004  0.1655898E+04  0.7818608E-02  0.8786925E-01
          2   -1    0    0  501    0  0.00000000000E+00  0.00000000000E+00  0.51328897547E+03  0.51328897547E+03  0.00000000000E+00 0.  1.
         -2   -1    0    0    0  501 -0.00000000000E+00 -0.00000000000E+00 -0.13355049287E+04  0.13355049287E+04  0.00000000000E+00 0. -1.
         23    2    1    2    0    0  0.65724598154E+03 -0.11900854299E+03 -0.95394231820E+03  0.11679949994E+04  0.89839070579E+02 0.  0.
         13    1    3    3    0    0  0.44005320139E+03 -0.38586017107E+02 -0.60210004692E+03  0.74676647439E+03  0.00000000000E+00 0.  1.
        -13    1    3    3    0    0  0.21719278015E+03 -0.80422525887E+02 -0.35184227128E+03  0.42122852500E+03  0.00000000000E+00 0. -1.
         22    1    1    2    0    0 -0.65724598154E+03  0.11900854299E+03  0.13172636494E+03  0.68079890480E+03  0.00000000000E+00 0.  1.
<mgrwt>
<rscale>  0 0.16558985E+04</rscale>
<asrwt>0</asrwt>
<pdfrwt beam="1">  1        2 0.78967536E-01 0.16558985E+04</pdfrwt>
<pdfrwt beam="2">  1       -2 0.20546229E+00 0.16558985E+04</pdfrwt>
<totfact> 0.69796251E+00</totfact>
</mgrwt>
</event>
<event>
 6    1  0.5264478E-004  0.3950095E+04  0.7818608E-02  0.8014690E-01
         -2   -1    0    0    0  501 -0.00000000000E+00  0.00000000000E+00  0.13883107662E+04  0.13883107662E+04  0.00000000000E+00 0.  1.
          2   -1    0    0  501    0  0.00000000000E+00 -0.00000000000E+00 -0.28097549992E+04  0.28097549992E+04  0.00000000000E+00 0. -1.
         23    2    1    2    0    0  0.22212101579E+03 -0.19593252691E+04 -0.61595456558E+03  0.20680172072E+04  0.94878271330E+02 0.  0.
         13    1    3    3    0    0  0.46633166488E+02 -0.24786154132E+03 -0.52077582049E+02  0.25753071746E+03  0.00000000000E+00 0.  1.
        -13    1    3    3    0    0  0.17548784930E+03 -0.17114637278E+04 -0.56387698353E+03  0.18104864897E+04  0.00000000000E+00 0. -1.
         22    1    1    2    0    0 -0.22212101579E+03  0.19593252691E+04 -0.80548966749E+03  0.21300485582E+04  0.00000000000E+00 0. -1.
<mgrwt>
<rscale>  0 0.39500952E+04</rscale>
<asrwt>0</asrwt>
<pdfrwt beam="1">  1        2 0.43226999E+00 0.39500952E+04</pdfrwt>
<pdfrwt beam="2">  1       -2 0.21358627E+00 0.39500952E+04</pdfrwt>
<totfact> 0.19614116E-01</totfact>
</mgrwt>
</event>
<event>
 6    1  0.4630212E-004  0.4721311E+04  0.7818608E-02  0.7872997E-01
          2   -1    0    0  501    0  0.00000000000E+00  0.00000000000E+00  0.28688454455E+04  0.28688454455E+04  0.00000000000E+00 0.  1.
         -2   -1    0    0    0  501 -0.00000000000E+00 -0.00000000000E+00 -0.19424867411E+04  0.19424867411E+04  0.00000000000E+00 0. -1.
         23    2    1    2    0    0  0.13244940944E+04 -0.15966613646E+04 -0.68278954338E+03  0.21858855194E+04  0.91004526133E+02 0.  0.
         13    1    3    3    0    0  0.37695786495E+03 -0.44260127127E+03 -0.14932599520E+03  0.60024275933E+03  0.00000000000E+00 0. -1.
        -13    1    3    3    0    0  0.94753622948E+03 -0.11540600933E+04 -0.53346354818E+03  0.15856427600E+04  0.00000000000E+00 0.  1.
         22    1    1    2    0    0 -0.13244940944E+04  0.15966613646E+04  0.16091482478E+04  0.26254466673E+04  0.00000000000E+00 0.  1.
<mgrwt>
<rscale>  0 0.47213109E+04</rscale>
<asrwt>0</asrwt>
<pdfrwt beam="1">  1        2 0.44136084E+00 0.47213109E+04</pdfrwt>
<pdfrwt beam="2">  1       -2 0.29884411E+00 0.47213109E+04</pdfrwt>
<totfact> 0.50469951E-02</totfact>
</mgrwt>
</event>
<event>
 6    1  0.4630212E-004  0.2670330E+04  0.7818608E-02  0.8344696E-01
          2   -1    0    0  501    0  0.00000000000E+00  0.00000000000E+00  0.19310208776E+04  0.19310208776E+04  0.00000000000E+00 0.  1.
         -2   -1    0    0    0  501 -0.00000000000E+00 -0.00000000000E+00 -0.92317283941E+03  0.92317283941E+03  0.00000000000E+00 0. -1.
         23    2    1    2    0    0 -0.20631353634E+03  0.43160420207E+03 -0.82376534989E+03  0.96113928938E+03  0.12787462369E+03 0.  0.
         13    1    3    3    0    0 -0.14787857721E+03  0.22144701547E+03 -0.35188738318E+03  0.44128401817E+03  0.00000000000E+00 0.  1.
        -13    1    3    3    0    0 -0.58434959137E+02  0.21015718660E+03 -0.47187796672E+03  0.51985527121E+03  0.00000000000E+00 0. -1.
         22    1    1    2    0    0  0.20631353634E+03 -0.43160420207E+03  0.18316133881E+04  0.18930544276E+04  0.00000000000E+00 0.  1.
<mgrwt>
<rscale>  0 0.26703303E+04</rscale>
<asrwt>0</asrwt>
<pdfrwt beam="1">  1        2 0.29708013E+00 0.26703303E+04</pdfrwt>
<pdfrwt beam="2">  1       -2 0.14202659E+00 0.26703303E+04</pdfrwt>
<totfact> 0.22206126E+00</totfact>
</mgrwt>
</event>
<event>
 6    1  0.4630212E-004  0.4591106E+04  0.7818608E-02  0.7894878E-01
         -2   -1    0    0    0  501 -0.00000000000E+00  0.00000000000E+00  0.20177188585E+04  0.20177188585E+04  0.00000000000E+00 0.  1.
          2   -1    0    0  501    0  0.00000000000E+00 -0.00000000000E+00 -0.26116441971E+04  0.26116441971E+04  0.00000000000E+00 0. -1.
         23    2    1    2    0    0 -0.39054395319E+03  0.22411359919E+04  0.56123638838E+01  0.22767771231E+04  0.92018780195E+02 0.  0.
         11    1    3    3    0    0 -0.23773508612E+03  0.12037637184E+04 -0.33646213094E+02  0.12274759177E+04  0.00000000000E+00 0. -1.
        -11    1    3    3    0    0 -0.15280886707E+03  0.10373722735E+04  0.39258576978E+02  0.10493012054E+04  0.00000000000E+00 0.  1.
         22    1    1    2    0    0  0.39054395319E+03 -0.22411359919E+04 -0.59953770252E+03  0.23525859326E+04  0.00000000000E+00 0. -1.
<mgrwt>
<rscale>  0 0.45911061E+04</rscale>
<asrwt>0</asrwt>
<pdfrwt beam="1">  1        2 0.40179141E+00 0.45911061E+04</pdfrwt>
<pdfrwt beam="2">  1       -2 0.31041829E+00 0.45911061E+04</pdfrwt>
<totfact> 0.61806948E-02</totfact>
</mgrwt>
</event>
<event>
 6    1  0.4630212E-004  0.4797024E+04  0.7818608E-02  0.7860604E-01
         -2   -1    0    0    0  501 -0.00000000000E+00  0.00000000000E+00  0.47737048093E+04  0.47737048093E+04  0.00000000000E+00 0. -1.
          2   -1    0    0  501    0  0.00000000000E+00 -0.00000000000E+00 -0.12051142390E+04  0.12051142390E+04  0.00000000000E+00 0.  1.
         23    2    1    2    0    0  0.11357657121E+04  0.17926905144E+04  0.31755180902E+04  0.38205306043E+04  0.93999596339E+02 0.  0.
         13    1    3    3    0    0  0.86470654095E+03  0.13521197751E+04  0.24715360370E+04  0.29469366587E+04  0.00000000000E+00 0.  1.
        -13    1    3    3    0    0  0.27105917111E+03  0.44057073929E+03  0.70398205317E+03  0.87359394558E+03  0.00000000000E+00 0. -1.
         22    1    1    2    0    0 -0.11357657121E+04 -0.17926905144E+04  0.39307248015E+03  0.21582884440E+04  0.00000000000E+00 0.  1.
<mgrwt>
<rscale>  0 0.47970239E+04</rscale>
<asrwt>0</asrwt>
<pdfrwt beam="1">  1        2 0.18540219E+00 0.47970239E+04</pdfrwt>
<pdfrwt beam="2">  1       -2 0.73441611E+00 0.47970239E+04</pdfrwt>
<totfact> 0.23447214E-03</totfact>
</mgrwt>
</event>
<event>
 6    1  0.4630212E-004  0.2736662E+04  0.7818608E-02  0.8323207E-01
          2   -1    0    0  501    0  0.00000000000E+00  0.00000000000E+00  0.13039880462E+04  0.13039880462E+04  0.00000000000E+00 0.  1.
         -2   -1    0    0    0  501 -0.00000000000E+00 -0.00000000000E+00 -0.14358487088E+04  0.14358487088E+04  0.00000000000E+00 0. -1.
         23    2    1    2    0    0  0.54292652552E+03  0.12310974087E+04  0.17596918879E+03  0.13595725560E+04  0.84275369994E+02 0.  0.
         11    1    3    3    0    0  0.25565248475E+03  0.50705121379E+03  0.10401263369E+03  0.57730213436E+03  0.00000000000E+00 0.  1.
        -11    1    3    3    0    0  0.28727404077E+03  0.72404619488E+03  0.71956555100E+02  0.78227042168E+03  0.00000000000E+00 0. -1.
         22    1    1    2    0    0 -0.54292652552E+03 -0.12310974087E+04 -0.30782985140E+03  0.13802641990E+04  0.00000000000E+00 0.  1.
<mgrwt>
<rscale>  0 0.27366619E+04</rscale>
<asrwt>0</asrwt>
<pdfrwt beam="1">  1        2 0.20061355E+00 0.27366619E+04</pdfrwt>
<pdfrwt beam="2">  1       -2 0.22089980E+00 0.27366619E+04</pdfrwt>
<totfact> 0.14029754E+00</totfact>
</mgrwt>
</event>
<event>
 6    1  0.4630212E-004  0.3883332E+04  0.7818608E-02  0.8028505E-01
          2   -1    0    0  501    0  0.00000000000E+00  0.00000000000E+00  0.31131850281E+04  0.31131850281E+04  0.00000000000E+00 0.  1.
         -2   -1    0    0    0  501 -0.00000000000E+00 -0.00000000000E+00 -0.12109996576E+04  0.12109996576E+04  0.00000000000E+00 0. -1.
         23    2    1    2    0    0  0.14155206903E+04 -0.71688440191E+03 -0.29252448776E+03  0.16159798499E+04  0.90544071562E+02 0.  0.
         13    1    3    3    0    0  0.89304235087E+03 -0.48546264259E+03 -0.15483384510E+03  0.10281887654E+04  0.00000000000E+00 0. -1.
        -13    1    3    3    0    0  0.52247833944E+03 -0.23142175932E+03 -0.13769064266E+03  0.58779108444E+03  0.00000000000E+00 0.  1.
         22    1    1    2    0    0 -0.14155206903E+04  0.71688440191E+03  0.21947098583E+04  0.27082048358E+04  0.00000000000E+00 0.  1.
<mgrwt>
<rscale>  0 0.38833316E+04</rscale>
<asrwt>0</asrwt>
<pdfrwt beam="1">  1        2 0.47895154E+00 0.38833316E+04</pdfrwt>
<pdfrwt beam="2">  1       -2 0.18630764E+00 0.38833316E+04</pdfrwt>
<totfact> 0.19277488E-01</totfact>
</mgrwt>
</event>
<event>
 6    1  0.4630212E-004  0.2223693E+04  0.7818608E-02  0.8508631E-01
         -2   -1    0    0    0  501 -0.00000000000E+00  0.00000000000E+00  0.13526525471E+04  0.13526525471E+04  0.00000000000E+00 0. -1.
          2   -1    0    0  501    0  0.00000000000E+00 -0.00000000000E+00 -0.91391001403E+03  0.91391001403E+03  0.00000000000E+00 0.  1.
         23    2    1    2    0    0 -0.56490380838E+03 -0.35653238933E+03  0.11237770673E+04  0.13097428443E+04  0.79496941978E+02 0.  0.
         13    1    3    3    0    0 -0.38063311502E+03 -0.27256058097E+03  0.83015452987E+03  0.95306210816E+03  0.00000000000E+00 0. -1.
        -13    1    3    3    0    0 -0.18427069336E+03 -0.83971808353E+02  0.29362253747E+03  0.35668073615E+03  0.00000000000E+00 0.  1.
         22    1    1    2    0    0  0.56490380838E+03  0.35653238933E+03 -0.68503453427E+03  0.95681971682E+03  0.00000000000E+00 0.  1.
<mgrwt>
<rscale>  0 0.22236931E+04</rscale>
<asrwt>0</asrwt>
<pdfrwt beam="1">  1        2 0.14060154E+00 0.22236931E+04</pdfrwt>
<pdfrwt beam="2">  1       -2 0.20810039E+00 0.22236931E+04</pdfrwt>
<totfact> 0.30822332E+00</totfact>
</mgrwt>
</event>
<event>
 6    1  0.4630212E-004  0.3303432E+04  0.7818608E-02  0.8162023E-01
         -2   -1    0    0    0  501 -0.00000000000E+00  0.00000000000E+00  0.86422217475E+03  0.86422217475E+03  0.00000000000E+00 0. -1.
          2   -1    0    0  501    0  0.00000000000E+00 -0.00000000000E+00 -0.31567865698E+04  0.31567865698E+04  0.00000000000E+00 0.  1.
         23    2    1    2    0    0  0.76046273005E+03 -0.12176564581E+04 -0.21383732589E+04  0.25771369635E+04  0.89464631728E+02 0.  0.
         11    1    3    3    0    0  0.37579475775E+03 -0.57588891886E+03 -0.11004738647E+04  0.12976565315E+04  0.00000000000E+00 0.  1.
        -11    1    3    3    0    0  0.38466797230E+03 -0.64176753927E+03 -0.10378993942E+04  0.12794804320E+04  0.00000000000E+00 0. -1.
         22    1    1    2    0    0 -0.76046273005E+03  0.12176564581E+04 -0.15419113621E+03  0.14438717811E+04  0.00000000000E+00 0. -1.
<mgrwt>
<rscale>  0 0.33034315E+04</rscale>
<asrwt>0</asrwt>
<pdfrwt beam="1">  1        2 0.48565948E+00 0.33034315E+04</pdfrwt>
<pdfrwt beam="2">  1       -2 0.13295726E+00 0.33034315E+04</pdfrwt>
<totfact> 0.47335503E-01</totfact>
</mgrwt>
</event>
<event>
 6    1  0.4630212E-004  0.1011074E+04  0.7818608E-02  0.9296482E-01
          2   -1    0    0  501    0  0.00000000000E+00  0.00000000000E+00  0.65382504518E+03  0.65382504518E+03  0.00000000000E+00 0.  1.
         -2   -1    0    0    0  501 -0.00000000000E+00 -0.00000000000E+00 -0.39088097124E+03  0.39088097124E+03  0.00000000000E+00 0. -1.
         23    2    1    2    0    0 -0.65304723084E+02 -0.47758900678E+03  0.27543939274E+03  0.56251093220E+03  0.90530235396E+02 0.  0.
         11    1    3    3    0    0 -0.54682064234E+02 -0.40741330149E+03  0.19418911429E+03  0.45462637240E+03  0.00000000000E+00 0.  1.
        -11    1    3    3    0    0 -0.10622658850E+02 -0.70175705290E+02  0.81250278451E+02  0.10788455980E+03  0.00000000000E+00 0. -1.
         22    1    1    2    0    0  0.65304723084E+02  0.47758900678E+03 -0.12495318802E+02  0.48219508422E+03  0.00000000000E+00 0. -1.
<mgrwt>
<rscale>  0 0.10110742E+04</rscale>
<asrwt>0</asrwt>
<pdfrwt beam="1">  1        2 0.10058847E+00 0.10110742E+04</pdfrwt>
<pdfrwt beam="2">  1       -2 0.60135534E-01 0.10110742E+04</pdfrwt>
<totfact> 0.11486720E+02</totfact>
</mgrwt>
</event>
<event>
 6    1  0.4630212E-004  0.9357534E+03  0.7818608E-02  0.9381959E-01
          2   -1    0    0  501    0  0.00000000000E+00  0.00000000000E+00  0.22381844946E+03  0.22381844946E+03  0.00000000000E+00 0.  1.
         -2   -1    0    0    0  501 -0.00000000000E+00 -0.00000000000E+00 -0.97806318298E+03  0.97806318298E+03  0.00000000000E+00 0. -1.
         23    2    1    2    0    0 -0.32372498878E+03 -0.33085040896E+03 -0.35157447080E+03  0.58836455693E+03  0.91150325632E+02 0.  0.
         13    1    3    3    0    0 -0.19945045768E+03 -0.19677197152E+03 -0.15611922752E+03  0.32073806610E+03  0.00000000000E+00 0.  1.
        -13    1    3    3    0    0 -0.12427453109E+03 -0.13407843744E+03 -0.19545524329E+03  0.26762649083E+03  0.00000000000E+00 0. -1.
         22    1    1    2    0    0  0.32372498878E+03  0.33085040896E+03 -0.40267026271E+03  0.61351707551E+03  0.00000000000E+00 0.  1.
<mgrwt>
<rscale>  0 0.93575335E+03</rscale>
<asrwt>0</asrwt>
<pdfrwt beam="1">  1        2 0.34433607E-01 0.93575335E+03</pdfrwt>
<pdfrwt beam="2">  1       -2 0.15047126E+00 0.93575335E+03</pdfrwt>
<totfact> 0.45319663E+01</totfact>
</mgrwt>
</event>
<event>
 6    1  0.4630212E-004  0.9898206E+03  0.7818608E-02  0.9319780E-01
         -2   -1    0    0    0  501 -0.00000000000E+00  0.00000000000E+00  0.17175781623E+03  0.17175781623E+03  0.00000000000E+00 0. -1.
          2   -1    0    0  501    0  0.00000000000E+00 -0.00000000000E+00 -0.14260557240E+04  0.14260557240E+04  0.00000000000E+00 0.  1.
         23    2    1    2    0    0 -0.43344045331E+03  0.22900790727E+03 -0.65403508992E+03  0.82280986368E+03  0.94545887090E+02 0.  0.
         11    1    3    3    0    0 -0.13444479696E+03  0.26314519225E+02 -0.15681023475E+03  0.20822417505E+03  0.00000000000E+00 0.  1.
        -11    1    3    3    0    0 -0.29899565634E+03  0.20269338804E+03 -0.49722485517E+03  0.61458568863E+03  0.00000000000E+00 0. -1.
         22    1    1    2    0    0  0.43344045331E+03 -0.22900790727E+03 -0.60026281782E+03  0.77500367651E+03  0.00000000000E+00 0.  1.
<mgrwt>
<rscale>  0 0.98982062E+03</rscale>
<asrwt>0</asrwt>
<pdfrwt beam="1">  1        2 0.21939319E+00 0.98982062E+03</pdfrwt>
<pdfrwt beam="2">  1       -2 0.26424280E-01 0.98982062E+03</pdfrwt>
<totfact> 0.18091545E+02</totfact>
</mgrwt>
</event>
<event>
 6    1  0.4630212E-004  0.1263606E+04  0.7818608E-02  0.9058934E-01
          2   -1    0    0  501    0  0.00000000000E+00  0.00000000000E+00  0.18217780900E+04  0.18217780900E+04  0.00000000000E+00 0.  1.
         -2   -1    0    0    0  501 -0.00000000000E+00 -0.00000000000E+00 -0.21911288348E+03  0.21911288348E+03  0.00000000000E+00 0. -1.
         23    2    1    2    0    0 -0.86855519641E+02  0.15721918510E+03  0.17781540282E+04  0.17897772941E+04  0.95964893705E+02 0.  0.
         13    1    3    3    0    0  0.79510944154E+01  0.82579272765E+02  0.71193464339E+03  0.71675204405E+03  0.00000000000E+00 0. -1.
        -13    1    3    3    0    0 -0.94806614056E+02  0.74639912338E+02  0.10662193848E+04  0.10730252500E+04  0.00000000000E+00 0.  1.
         22    1    1    2    0    0  0.86855519641E+02 -0.15721918510E+03 -0.17548882169E+03  0.25111367943E+03  0.00000000000E+00 0. -1.
<mgrwt>
<rscale>  0 0.12636060E+04</rscale>
<asrwt>0</asrwt>
<pdfrwt beam="1">  1        2 0.28027354E+00 0.12636060E+04</pdfrwt>
<pdfrwt beam="2">  1       -2 0.33709676E-01 0.12636060E+04</pdfrwt>
<totfact> 0.67881256E+01</totfact>
</mgrwt>
</event>
<event>
 6    1  0.9358969E-004  0.3642745E+04  0.7818608E-02  0.8080770E-01
         -2   -1    0    0    0  501 -0.00000000000E+00  0.00000000000E+00  0.15026395837E+04  0.15026395837E+04  0.00000000000E+00 0. -1.
          2   -1    0    0  501    0  0.00000000000E+00 -0.00000000000E+00 -0.22077135091E+04  0.22077135091E+04  0.00000000000E+00 0.  1.
         23    2    1    2    0    0 -0.12632866120E+04 -0.27826196565E+02 -0.16872887324E+04  0.21099115011E+04  0.90088372376E+02 0.  0.
         11    1    3    3    0    0 -0.32829566256E+03 -0.44029203243E+02 -0.46588402124E+03  0.57163321636E+03  0.00000000000E+00 0.  1.
        -11    1    3    3    0    0 -0.93499094948E+03  0.16203006678E+02 -0.12214047111E+04  0.15382782848E+04  0.00000000000E+00 0. -1.
         22    1    1    2    0    0  0.12632866120E+04  0.27826196565E+02  0.98221480700E+03  0.16004415917E+04  0.00000000000E+00 0. -1.
<mgrwt>
<rscale>  0 0.36427450E+04</rscale>
<asrwt>0</asrwt>
<pdfrwt beam="1">  1        2 0.33964823E+00 0.36427450E+04</pdfrwt>
<pdfrwt beam="2">  1       -2 0.23117532E+00 0.36427450E+04</pdfrwt>
<totfact> 0.34906795E-01</totfact>
</mgrwt>
</event>
<event>
 6    1  0.4630212E-004  0.2517324E+04  0.7818608E-02  0.8396840E-01
          2   -1    0    0  501    0  0.00000000000E+00  0.00000000000E+00  0.15819993076E+04  0.15819993076E+04  0.00000000000E+00 0.  1.
         -2   -1    0    0    0  501 -0.00000000000E+00 -0.00000000000E+00 -0.10014102593E+04  0.10014102593E+04  0.00000000000E+00 0. -1.
         23    2    1    2    0    0 -0.10053510579E+04 -0.66816502967E+03 -0.69314611688E+02  0.12124427461E+04  0.89652889718E+02 0.  0.
         13    1    3    3    0    0 -0.29572285979E+03 -0.21942424819E+03 -0.57871386662E+02  0.37275743841E+03  0.00000000000E+00 0. -1.
        -13    1    3    3    0    0 -0.70962819815E+03 -0.44874078148E+03 -0.11443225027E+02  0.83968530771E+03  0.00000000000E+00 0.  1.
         22    1    1    2    0    0  0.10053510579E+04  0.66816502967E+03  0.64990365997E+03  0.13709668208E+04  0.00000000000E+00 0. -1.
<mgrwt>
<rscale>  0 0.25173242E+04</rscale>
<asrwt>0</asrwt>
<pdfrwt beam="1">  1        2 0.24338451E+00 0.25173242E+04</pdfrwt>
<pdfrwt beam="2">  1       -2 0.15406312E+00 0.25173242E+04</pdfrwt>
<totfact> 0.28368178E+00</totfact>
</mgrwt>
</event>
<event>
 6    1  0.4630212E-004  0.3204730E+04  0.7818608E-02  0.8187569E-01
         -2   -1    0    0    0  501 -0.00000000000E+00  0.00000000000E+00  0.14014624743E+04  0.14014624743E+04  0.00000000000E+00 0. -1.
          2   -1    0    0  501    0  0.00000000000E+00 -0.00000000000E+00 -0.18320670514E+04  0.18320670514E+04  0.00000000000E+00 0.  1.
         23    2    1    2    0    0 -0.89466401878E+03  0.10482650557E+03 -0.15510292656E+04  0.17959051710E+04  0.90395228937E+02 0.  0.
         11    1    3    3    0    0 -0.43738414002E+03  0.62085905187E+02 -0.84765399884E+03  0.95586445028E+03  0.00000000000E+00 0.  1.
        -11    1    3    3    0    0 -0.45727987876E+03  0.42740600384E+02 -0.70337526680E+03  0.84004072067E+03  0.00000000000E+00 0. -1.
         22    1    1    2    0    0  0.89466401878E+03 -0.10482650557E+03  0.11204246885E+04  0.14376243548E+04  0.00000000000E+00 0. -1.
<mgrwt>
<rscale>  0 0.32047298E+04</rscale>
<asrwt>0</asrwt>
<pdfrwt beam="1">  1        2 0.28185647E+00 0.32047298E+04</pdfrwt>
<pdfrwt beam="2">  1       -2 0.21560961E+00 0.32047298E+04</pdfrwt>
<totfact> 0.73486456E-01</totfact>
</mgrwt>
</event>
<event>
 6    1  0.4630212E-004  0.5910807E+03  0.7818608E-02  0.9924085E-01
          2   -1    0    0  501    0  0.00000000000E+00  0.00000000000E+00  0.52430816923E+03  0.52430816923E+03  0.00000000000E+00 0. -1.
         -2   -1    0    0    0  501 -0.00000000000E+00 -0.00000000000E+00 -0.16658924860E+03  0.16658924860E+03  0.00000000000E+00 0.  1.
         23    2    1    2    0    0 -0.93669472139E+02 -0.18967762595E+03 -0.47046022632E+02  0.23418500165E+03  0.88756492488E+02 0.  0.
         11    1    3    3    0    0 -0.61533602001E+02 -0.16349870836E+03 -0.44512811423E+01  0.17475132536E+03  0.00000000000E+00 0. -1.
        -11    1    3    3    0    0 -0.32135870138E+02 -0.26178917587E+02 -0.42594741490E+02  0.59433676297E+02  0.00000000000E+00 0.  1.
         22    1    1    2    0    0  0.93669472139E+02  0.18967762595E+03  0.40476494326E+03  0.45671241617E+03  0.00000000000E+00 0. -1.
<mgrwt>
<rscale>  0 0.59108072E+03</rscale>
<asrwt>0</asrwt>
<pdfrwt beam="1">  1        2 0.80662794E-01 0.59108072E+03</pdfrwt>
<pdfrwt beam="2">  1       -2 0.25629115E-01 0.59108072E+03</pdfrwt>
<totfact> 0.80184955E+02</totfact>
</mgrwt>
</event>
<event>
 6    1  0.4630212E-004  0.1060986E+04  0.7818608E-02  0.9244075E-01
          1   -1    0    0  501    0  0.00000000000E+00  0.00000000000E+00  0.42654909500E+03  0.42654909500E+03  0.00000000000E+00 0. -1.
         -1   -1    0    0    0  501 -0.00000000000E+00 -0.00000000000E+00 -0.65976600719E+03  0.65976600719E+03  0.00000000000E+00 0.  1.
         23    2    1    2    0    0  0.15171951877E+03 -0.36201065700E+03  0.24225655511E+03  0.46975565959E+03  0.88947248754E+02 0.  0.
         11    1    3    3    0    0  0.64758113057E+02 -0.16415174336E+03  0.58011654794E+02  0.18575456965E+03  0.00000000000E+00 0.  1.
        -11    1    3    3    0    0  0.86961405716E+02 -0.19785891364E+03  0.18424490032E+03  0.28400108994E+03  0.00000000000E+00 0. -1.
         22    1    1    2    0    0 -0.15171951877E+03  0.36201065700E+03 -0.47547346730E+03  0.61655944261E+03  0.00000000000E+00 0.  1.
<mgrwt>
<rscale>  0 0.10609856E+04</rscale>
<asrwt>0</asrwt>
<pdfrwt beam="1">  1        1 0.65622938E-01 0.10609856E+04</pdfrwt>
<pdfrwt beam="2">  1       -1 0.10150246E+00 0.10609856E+04</pdfrwt>
<totfact> 0.50670954E+01</totfact>
</mgrwt>
</event>
<event>
 6    1  0.4630212E-004  0.1642405E+03  0.7818608E-02  0.1183991E+00
          1   -1    0    0  501    0  0.00000000000E+00  0.00000000000E+00  0.49913394134E+03  0.49913394134E+03  0.00000000000E+00 0. -1.
         -1   -1    0    0    0  501 -0.00000000000E+00 -0.00000000000E+00 -0.13510880890E+02  0.13510880890E+02  0.00000000000E+00 0.  1.
         23    2    1    2    0    0 -0.50543105120E+02 -0.20075642849E+02  0.26847341497E+03  0.28878860623E+03  0.91450793492E+02 0.  0.
         13    1    3    3    0    0 -0.30378291159E+02 -0.32797233898E+02  0.25948575960E+03  0.26330848554E+03  0.00000000000E+00 0. -1.
        -13    1    3    3    0    0 -0.20164813961E+02  0.12721591049E+02  0.89876553696E+01  0.25480120682E+02  0.00000000000E+00 0.  1.
         22    1    1    2    0    0  0.50543105120E+02  0.20075642849E+02  0.21714964548E+03  0.22385621601E+03  0.00000000000E+00 0. -1.
<mgrwt>
<rscale>  0 0.16424055E+03</rscale>
<asrwt>0</asrwt>
<pdfrwt beam="1">  1        1 0.76789823E-01 0.16424055E+03</pdfrwt>
<pdfrwt beam="2">  1       -1 0.20785974E-02 0.16424055E+03</pdfrwt>
<totfact> 0.27944072E+04</totfact>
</mgrwt>
</event>
<event>
 6    1  0.4630212E-004  0.8375047E+03  0.7818608E-02  0.9507263E-01
          2   -1    0    0  501    0  0.00000000000E+00  0.00000000000E+00  0.10347692118E+04  0.10347692118E+04  0.00000000000E+00 0.  1.
         -2   -1    0    0    0  501 -0.00000000000E+00 -0.00000000000E+00 -0.16946150678E+03  0.16946150678E+03  0.00000000000E+00 0. -1.
         23    2    1    2    0    0  0.30839739121E+03  0.93150493043E+02  0.63459587141E+02  0.34008584102E+03  0.88573668801E+02 0.  0.
         11    1    3    3    0    0  0.49990277010E+02  0.32929475219E+02 -0.18038446420E+02  0.62520106230E+02  0.00000000000E+00 0. -1.
        -11    1    3    3    0    0  0.25840711420E+03  0.60221017823E+02  0.81498033561E+02  0.27756573479E+03  0.00000000000E+00 0.  1.
         22    1    1    2    0    0 -0.30839739121E+03 -0.93150493043E+02  0.80184811789E+03  0.86414487757E+03  0.00000000000E+00 0.  1.
<mgrwt>
<rscale>  0 0.83750475E+03</rscale>
<asrwt>0</asrwt>
<pdfrwt beam="1">  1        2 0.15919526E+00 0.83750475E+03</pdfrwt>
<pdfrwt beam="2">  1       -2 0.26071001E-01 0.83750475E+03</pdfrwt>
<totfact> 0.31901740E+02</totfact>
</mgrwt>
</event>
<event>
 6    1  0.4630212E-004  0.1528309E+04  0.7818608E-02  0.8865843E-01
         -2   -1    0    0    0  501 -0.00000000000E+00  0.00000000000E+00  0.47636310899E+03  0.47636310899E+03  0.00000000000E+00 0. -1.
          2   -1    0    0  501    0  0.00000000000E+00 -0.00000000000E+00 -0.12258123774E+04  0.12258123774E+04  0.00000000000E+00 0.  1.
         23    2    1    2    0    0  0.29974054904E+03  0.34129148415E+03  0.30448133862E+03  0.55452832880E+03  0.92024496626E+02 0.  0.
         13    1    3    3    0    0  0.90214094259E+02  0.16158948415E+03  0.95123165849E+02  0.20808210128E+03  0.00000000000E+00 0.  1.
        -13    1    3    3    0    0  0.20952645478E+03  0.17970200000E+03  0.20935817277E+03  0.34644622752E+03  0.00000000000E+00 0. -1.
         22    1    1    2    0    0 -0.29974054904E+03 -0.34129148415E+03 -0.10539306070E+04  0.11476471575E+04  0.00000000000E+00 0.  1.
<mgrwt>
<rscale>  0 0.15283086E+04</rscale>
<asrwt>0</asrwt>
<pdfrwt beam="1">  1        2 0.18858652E+00 0.15283086E+04</pdfrwt>
<pdfrwt beam="2">  1       -2 0.73286632E-01 0.15283086E+04</pdfrwt>
<totfact> 0.29624815E+01</totfact>
</mgrwt>
</event>
<event>
 6    1  0.4630212E-004  0.4483629E+04  0.7818608E-02  0.7913509E-01
         -2   -1    0    0    0  501 -0.00000000000E+00  0.00000000000E+00  0.18539223619E+04  0.18539223619E+04  0.00000000000E+00 0. -1.
          2   -1    0    0  501    0  0.00000000000E+00 -0.00000000000E+00 -0.27108650037E+04  0.27108650037E+04  0.00000000000E+00 0.  1.
         23    2    1    2    0    0 -0.17744066114E+04 -0.90082961870E+03  0.62043227810E+03  0.20863504632E+04  0.88933791078E+02 0.  0.
         11    1    3    3    0    0 -0.29116907143E+03 -0.11380491060E+03  0.85713645797E+02  0.32415708370E+03  0.00000000000E+00 0.  1.
        -11    1    3    3    0    0 -0.14832375400E+04 -0.78702470810E+03  0.53471863231E+03  0.17621933795E+04  0.00000000000E+00 0. -1.
         22    1    1    2    0    0  0.17744066114E+04  0.90082961870E+03 -0.14773749199E+04  0.24784369023E+04  0.00000000000E+00 0.  1.
<mgrwt>
<rscale>  0 0.44836294E+04</rscale>
<asrwt>0</asrwt>
<pdfrwt beam="1">  1        2 0.41705615E+00 0.44836294E+04</pdfrwt>
<pdfrwt beam="2">  1       -2 0.28521883E+00 0.44836294E+04</pdfrwt>
<totfact> 0.77670021E-02</totfact>
</mgrwt>
</event>
<event>
 6    1  0.4630212E-004  0.1456124E+04  0.7818608E-02  0.8914166E-01
          4   -1    0    0  501    0  0.00000000000E+00  0.00000000000E+00  0.31324954101E+04  0.31324954101E+04  0.00000000000E+00 0.  1.
         -4   -1    0    0    0  501 -0.00000000000E+00 -0.00000000000E+00 -0.16921779853E+03  0.16921779853E+03  0.00000000000E+00 0. -1.
         23    2    1    2    0    0 -0.52221217770E+03  0.14385021169E+03  0.39447338817E+03  0.67642206666E+03  0.92407339268E+02 0.  0.
         13    1    3    3    0    0 -0.37003758070E+03  0.14459611604E+03  0.28224476592E+03  0.48733761993E+03  0.00000000000E+00 0.  1.
        -13    1    3    3    0    0 -0.15217459700E+03 -0.74590435270E+00  0.11222862225E+03  0.18908444674E+03  0.00000000000E+00 0. -1.
         22    1    1    2    0    0  0.52221217770E+03 -0.14385021169E+03  0.25688042234E+04  0.26252911420E+04  0.00000000000E+00 0.  1.
<mgrwt>
<rscale>  0 0.14561236E+04</rscale>
<asrwt>0</asrwt>
<pdfrwt beam="1">  1        4 0.48192233E+00 0.14561236E+04</pdfrwt>
<pdfrwt beam="2">  1       -4 0.26033510E-01 0.14561236E+04</pdfrwt>
<totfact> 0.47257333E-02</totfact>
</mgrwt>
</event>
<event>
 6    1  0.4630212E-004  0.5145646E+04  0.7818608E-02  0.7806424E-01
         -2   -1    0    0    0  501 -0.00000000000E+00  0.00000000000E+00  0.26288034976E+04  0.26288034976E+04  0.00000000000E+00 0.  1.
          2   -1    0    0  501    0  0.00000000000E+00 -0.00000000000E+00 -0.25180349421E+04  0.25180349421E+04  0.00000000000E+00 0. -1.
         23    2    1    2    0    0  0.25579411349E+04  0.26194245833E+03  0.11498474163E+03  0.25755168967E+04  0.91591993296E+02 0.  0.
         13    1    3    3    0    0  0.40932536837E+03  0.86051841732E+01  0.13477586281E+02  0.40963758582E+03  0.00000000000E+00 0. -1.
        -13    1    3    3    0    0  0.21486157666E+04  0.25333727415E+03  0.10150715535E+03  0.21658793109E+04  0.00000000000E+00 0.  1.
         22    1    1    2    0    0 -0.25579411349E+04 -0.26194245833E+03 -0.42161861985E+01  0.25713215430E+04  0.00000000000E+00 0. -1.
<mgrwt>
<rscale>  0 0.51456463E+04</rscale>
<asrwt>0</asrwt>
<pdfrwt beam="1">  1        2 0.38738999E+00 0.51456463E+04</pdfrwt>
<pdfrwt beam="2">  1       -2 0.40443131E+00 0.51456463E+04</pdfrwt>
<totfact> 0.16994502E-02</totfact>
</mgrwt>
</event>
<event>
 6    1  0.4630212E-004  0.6609944E+03  0.7818608E-02  0.9786365E-01
         -4   -1    0    0    0  501 -0.00000000000E+00  0.00000000000E+00  0.13483497721E+04  0.13483497721E+04  0.00000000000E+00 0. -1.
          4   -1    0    0  501    0  0.00000000000E+00 -0.00000000000E+00 -0.81008949939E+02  0.81008949939E+02  0.00000000000E+00 0.  1.
         23    2    1    2    0    0 -0.25659372786E+02  0.11743041593E+03  0.12968862891E+04  0.13055797229E+04  0.90421568693E+02 0.  0.
         11    1    3    3    0    0  0.16597790851E+02  0.54589117479E+02  0.27310072849E+03  0.27899725144E+03  0.00000000000E+00 0.  1.
        -11    1    3    3    0    0 -0.42257163637E+02  0.62841298447E+02  0.10237855606E+04  0.10265824715E+04  0.00000000000E+00 0. -1.
         22    1    1    2    0    0  0.25659372786E+02 -0.11743041593E+03 -0.29545466959E+02  0.12377899908E+03  0.00000000000E+00 0.  1.
<mgrwt>
<rscale>  0 0.66099440E+03</rscale>
<asrwt>0</asrwt>
<pdfrwt beam="1">  1        4 0.12462916E-01 0.66099440E+03</pdfrwt>
<pdfrwt beam="2">  1       -4 0.20743841E+00 0.66099440E+03</pdfrwt>
<totfact> 0.12786307E+01</totfact>
</mgrwt>
</event>
<event>
 6    1  0.4630212E-004  0.2084174E+04  0.7818608E-02  0.8568247E-01
          2   -1    0    0  501    0  0.00000000000E+00  0.00000000000E+00  0.38094006151E+04  0.38094006151E+04  0.00000000000E+00 0.  1.
         -2   -1    0    0    0  501 -0.00000000000E+00 -0.00000000000E+00 -0.28506979361E+03  0.28506979361E+03  0.00000000000E+00 0. -1.
         23    2    1    2    0    0  0.75433726971E+03  0.69910756182E+03  0.20695107488E+04  0.23128201783E+04  0.92121324729E+02 0.  0.
         13    1    3    3    0    0  0.44093289123E+03  0.46177889718E+03  0.12311863289E+04  0.13868962979E+04  0.00000000000E+00 0. -1.
        -13    1    3    3    0    0  0.31340437847E+03  0.23732866465E+03  0.83832441985E+03  0.92592388047E+03  0.00000000000E+00 0.  1.
         22    1    1    2    0    0 -0.75433726971E+03 -0.69910756182E+03  0.14548200727E+04  0.17816502304E+04  0.00000000000E+00 0. -1.
<mgrwt>
<rscale>  0 0.20841737E+04</rscale>
<asrwt>0</asrwt>
<pdfrwt beam="1">  1        2 0.58606160E+00 0.20841737E+04</pdfrwt>
<pdfrwt beam="2">  1       -2 0.43856894E-01 0.20841737E+04</pdfrwt>
<totfact> 0.22136502E+00</totfact>
</mgrwt>
</event>
<event>
 6    1  0.4630212E-004  0.1801004E+04  0.7818608E-02  0.8705766E-01
          2   -1    0    0  501    0  0.00000000000E+00  0.00000000000E+00  0.10640940716E+04  0.10640940716E+04  0.00000000000E+00 0.  1.
         -2   -1    0    0    0  501 -0.00000000000E+00 -0.00000000000E+00 -0.76206020258E+03  0.76206020258E+03  0.00000000000E+00 0. -1.
         23    2    1    2    0    0 -0.60199001393E+03 -0.20261430465E+03 -0.49257327326E+03  0.80888093635E+03  0.90638878706E+02 0.  0.
         13    1    3    3    0    0 -0.35049218448E+03 -0.97970164037E+02 -0.22987841675E+03  0.43044977745E+03  0.00000000000E+00 0. -1.
        -13    1    3    3    0    0 -0.25149782945E+03 -0.10464414061E+03 -0.26269485651E+03  0.37843115889E+03  0.00000000000E+00 0.  1.
         22    1    1    2    0    0  0.60199001393E+03  0.20261430465E+03  0.79460714231E+03  0.10172733379E+04  0.00000000000E+00 0.  1.
<mgrwt>
<rscale>  0 0.18010039E+04</rscale>
<asrwt>0</asrwt>
<pdfrwt beam="1">  1        2 0.16370678E+00 0.18010039E+04</pdfrwt>
<pdfrwt beam="2">  1       -2 0.11724003E+00 0.18010039E+04</pdfrwt>
<totfact> 0.12179137E+01</totfact>
</mgrwt>
</event>
<event>
 6    1  0.4630212E-004  0.2494601E+04  0.7818608E-02  0.8404911E-01
         -2   -1    0    0    0  501 -0.00000000000E+00  0.00000000000E+00  0.61468606315E+03  0.61468606315E+03  0.00000000000E+00 0. -1.
          2   -1    0    0  501    0  0.00000000000E+00 -0.00000000000E+00 -0.25309813030E+04  0.25309813030E+04  0.00000000000E+00 0.  1.
         23    2    1    2    0    0  0.57008611380E+03  0.58213874465E+03 -0.21475892883E+04  0.22986841125E+04  0.89023607821E+02 0.  0.
         13    1    3    3    0    0  0.36301974692E+03  0.42526325694E+03 -0.15105520189E+04  0.16107139957E+04  0.00000000000E+00 0. -1.
        -13    1    3    3    0    0  0.20706636688E+03  0.15687548770E+03 -0.63703726943E+03  0.68797011678E+03  0.00000000000E+00 0.  1.
         22    1    1    2    0    0 -0.57008611380E+03 -0.58213874465E+03  0.23129404842E+03  0.84698325367E+03  0.00000000000E+00 0. -1.
<mgrwt>
<rscale>  0 0.24946013E+04</rscale>
<asrwt>0</asrwt>
<pdfrwt beam="1">  1        2 0.38938174E+00 0.24946013E+04</pdfrwt>
<pdfrwt beam="2">  1       -2 0.94567086E-01 0.24946013E+04</pdfrwt>
<totfact> 0.28066930E+00</totfact>
</mgrwt>
</event>
<event>
 6    1  0.4630212E-004  0.2715088E+04  0.7818608E-02  0.8330126E-01
         -2   -1    0    0    0  501 -0.00000000000E+00  0.00000000000E+00  0.14101802726E+04  0.14101802726E+04  0.00000000000E+00 0. -1.
          2   -1    0    0  501    0  0.00000000000E+00 -0.00000000000E+00 -0.13068727193E+04  0.13068727193E+04  0.00000000000E+00 0.  1.
         23    2    1    2    0    0 -0.65645756081E+03  0.11176200236E+04 -0.34705969164E+03  0.13448862012E+04  0.90870338061E+02 0.  0.
         13    1    3    3    0    0 -0.27015958865E+03  0.53938307104E+03 -0.18282660559E+03  0.63035376447E+03  0.00000000000E+00 0. -1.
        -13    1    3    3    0    0 -0.38629797216E+03  0.57823695252E+03 -0.16423308605E+03  0.71453243671E+03  0.00000000000E+00 0.  1.
         22    1    1    2    0    0  0.65645756081E+03 -0.11176200236E+04  0.45036724496E+03  0.13721667907E+04  0.00000000000E+00 0.  1.
<mgrwt>
<rscale>  0 0.27150883E+04</rscale>
<asrwt>0</asrwt>
<pdfrwt beam="1">  1        2 0.20105734E+00 0.27150883E+04</pdfrwt>
<pdfrwt beam="2">  1       -2 0.21695081E+00 0.27150883E+04</pdfrwt>
<totfact> 0.14832511E+00</totfact>
</mgrwt>
</event>
<event>
 6    1  0.4630212E-004  0.3662520E+04  0.7818608E-02  0.8076319E-01
          2   -1    0    0  501    0  0.00000000000E+00  0.00000000000E+00  0.30813893219E+04  0.30813893219E+04  0.00000000000E+00 0.  1.
         -2   -1    0    0    0  501 -0.00000000000E+00 -0.00000000000E+00 -0.10883118055E+04  0.10883118055E+04  0.00000000000E+00 0. -1.
         23    2    1    2    0    0  0.11429238666E+04  0.33718303350E+03 -0.58366023800E+03  0.13307673808E+04  0.10156370152E+03 0.  0.
         13    1    3    3    0    0  0.11805610247E+03  0.46236330930E+02 -0.96336365674E+02  0.15923484851E+03  0.00000000000E+00 0.  1.
        -13    1    3    3    0    0  0.10248677641E+04  0.29094670257E+03 -0.48732387233E+03  0.11715325323E+04  0.00000000000E+00 0. -1.
         22    1    1    2    0    0 -0.11429238666E+04 -0.33718303350E+03  0.25767377543E+04  0.28389337466E+04  0.00000000000E+00 0.  1.
<mgrwt>
<rscale>  0 0.36625196E+04</rscale>
<asrwt>0</asrwt>
<pdfrwt beam="1">  1        2 0.47405989E+00 0.36625196E+04</pdfrwt>
<pdfrwt beam="2">  1       -2 0.16743259E+00 0.36625196E+04</pdfrwt>
<totfact> 0.27860884E-01</totfact>
</mgrwt>
</event>
<event>
 6    1  0.4630212E-004  0.1255804E+04  0.7818608E-02  0.9065366E-01
         -2   -1    0    0    0  501 -0.00000000000E+00  0.00000000000E+00  0.37516665199E+03  0.37516665199E+03  0.00000000000E+00 0. -1.
          2   -1    0    0  501    0  0.00000000000E+00 -0.00000000000E+00 -0.10508956767E+04  0.10508956767E+04  0.00000000000E+00 0.  1.
         23    2    1    2    0    0 -0.27529526015E+03 -0.34043505216E+03 -0.84544274781E+03  0.95650269151E+03  0.91871943693E+02 0.  0.
         13    1    3    3    0    0 -0.14596563223E+03 -0.24897178722E+03 -0.52773272631E+03  0.60149376310E+03  0.00000000000E+00 0. -1.
        -13    1    3    3    0    0 -0.12932962793E+03 -0.91463264943E+02 -0.31771002150E+03  0.35500892841E+03  0.00000000000E+00 0.  1.
         22    1    1    2    0    0  0.27529526015E+03  0.34043505216E+03  0.16971372315E+03  0.46955963714E+03  0.00000000000E+00 0. -1.
<mgrwt>
<rscale>  0 0.12558041E+04</rscale>
<asrwt>0</asrwt>
<pdfrwt beam="1">  1        2 0.16167626E+00 0.12558041E+04</pdfrwt>
<pdfrwt beam="2">  1       -2 0.57717946E-01 0.12558041E+04</pdfrwt>
<totfact> 0.64599767E+01</totfact>
</mgrwt>
</event>
<event>
 6    1  0.4630212E-004  0.2292140E+04  0.7818608E-02  0.8481027E-01
          2   -1    0    0  501    0  0.00000000000E+00  0.00000000000E+00  0.28921666207E+04  0.28921666207E+04  0.00000000000E+00 0.  1.
         -2   -1    0    0    0  501 -0.00000000000E+00 -0.00000000000E+00 -0.45414962417E+03  0.45414962417E+03  0.00000000000E+00 0. -1.
         23    2    1    2    0    0 -0.58743833842E+03 -0.97332443300E+03  0.10312821987E+04  0.15376296925E+04  0.91202217939E+02 0.  0.
         13    1    3    3    0    0 -0.44533363511E+03 -0.79563133363E+03  0.85286125254E+03  0.12484885189E+04  0.00000000000E+00 0.  1.
        -13    1    3    3    0    0 -0.14210470331E+03 -0.17769309936E+03  0.17842094616E+03  0.28914117364E+03  0.00000000000E+00 0. -1.
         22    1    1    2    0    0  0.58743833842E+03  0.97332443300E+03  0.14067347978E+04  0.18086865524E+04  0.00000000000E+00 0.  1.
<mgrwt>
<rscale>  0 0.22921399E+04</rscale>
<asrwt>0</asrwt>
<pdfrwt beam="1">  1        2 0.44494870E+00 0.22921399E+04</pdfrwt>
<pdfrwt beam="2">  1       -2 0.69869174E-01 0.22921399E+04</pdfrwt>
<totfact> 0.34419355E+00</totfact>
</mgrwt>
</event>
<event>
 6    1  0.4630212E-004  0.2411576E+04  0.7818608E-02  0.8435182E-01
          2   -1    0    0  501    0  0.00000000000E+00  0.00000000000E+00  0.20095836568E+04  0.20095836568E+04  0.00000000000E+00 0.  1.
         -2   -1    0    0    0  501 -0.00000000000E+00 -0.00000000000E+00 -0.72349556712E+03  0.72349556712E+03  0.00000000000E+00 0. -1.
         23    2    1    2    0    0  0.59925344244E+03 -0.26070504952E+03  0.17901951881E+04  0.19077333705E+04  0.87040165094E+02 0.  0.
         13    1    3    3    0    0  0.12110129755E+03 -0.47121916513E+02  0.46500907206E+03  0.48282443640E+03  0.00000000000E+00 0. -1.
        -13    1    3    3    0    0  0.47815214490E+03 -0.21358313300E+03  0.13251861160E+04  0.14249089341E+04  0.00000000000E+00 0.  1.
         22    1    1    2    0    0 -0.59925344244E+03  0.26070504952E+03 -0.50410709840E+03  0.82534585343E+03  0.00000000000E+00 0. -1.
<mgrwt>
<rscale>  0 0.24115761E+04</rscale>
<asrwt>0</asrwt>
<pdfrwt beam="1">  1        2 0.30916671E+00 0.24115761E+04</pdfrwt>
<pdfrwt beam="2">  1       -2 0.11130701E+00 0.24115761E+04</pdfrwt>
<totfact> 0.37852517E+00</totfact>
</mgrwt>
</event>
<event>
 6    1  0.4630212E-004  0.7799991E+03  0.7818608E-02  0.9589428E-01
         -2   -1    0    0    0  501 -0.00000000000E+00  0.00000000000E+00  0.22025731824E+03  0.22025731824E+03  0.00000000000E+00 0. -1.
          2   -1    0    0  501    0  0.00000000000E+00 -0.00000000000E+00 -0.69055429092E+03  0.69055429092E+03  0.00000000000E+00 0.  1.
         23    2    1    2    0    0  0.17277235532E+03 -0.33385469756E+03 -0.14282859760E+03  0.41226895048E+03  0.90864918367E+02 0.  0.
         13    1    3    3    0    0  0.16657120855E+03 -0.25600779531E+03 -0.91582449981E+02  0.31886251571E+03  0.00000000000E+00 0. -1.
        -13    1    3    3    0    0  0.62011467694E+01 -0.77846902253E+02 -0.51246147615E+02  0.93406434773E+02  0.00000000000E+00 0.  1.
         22    1    1    2    0    0 -0.17277235532E+03  0.33385469756E+03 -0.32746837508E+03  0.49854265868E+03  0.00000000000E+00 0. -1.
<mgrwt>
<rscale>  0 0.77999907E+03</rscale>
<asrwt>0</asrwt>
<pdfrwt beam="1">  1        2 0.10623912E+00 0.77999907E+03</pdfrwt>
<pdfrwt beam="2">  1       -2 0.33885741E-01 0.77999907E+03</pdfrwt>
<totfact> 0.34154836E+02</totfact>
</mgrwt>
</event>
<event>
 6    1  0.4630212E-004  0.3138689E+04  0.7818608E-02  0.8205200E-01
         -2   -1    0    0    0  501 -0.00000000000E+00  0.00000000000E+00  0.11856191732E+04  0.11856191732E+04  0.00000000000E+00 0.  1.
          2   -1    0    0  501    0  0.00000000000E+00 -0.00000000000E+00 -0.20772621129E+04  0.20772621129E+04  0.00000000000E+00 0. -1.
         23    2    1    2    0    0 -0.70272312282E+03 -0.13976995278E+04 -0.55525508437E+03  0.16627123742E+04  0.94448256362E+02 0.  0.
         13    1    3    3    0    0 -0.66093777090E+03 -0.12600619460E+04 -0.49154695604E+03  0.15053947173E+04  0.00000000000E+00 0. -1.
        -13    1    3    3    0    0 -0.41785351917E+02 -0.13763758185E+03 -0.63708128333E+02  0.15731765695E+03  0.00000000000E+00 0.  1.
         22    1    1    2    0    0  0.70272312282E+03  0.13976995278E+04 -0.33638785530E+03  0.16001689119E+04  0.00000000000E+00 0.  1.
<mgrwt>
<rscale>  0 0.31386888E+04</rscale>
<asrwt>0</asrwt>
<pdfrwt beam="1">  1        2 0.31957879E+00 0.31386888E+04</pdfrwt>
<pdfrwt beam="2">  1       -2 0.18240295E+00 0.31386888E+04</pdfrwt>
<totfact> 0.89381155E-01</totfact>
</mgrwt>
</event>
<event>
 6    1  0.4630212E-004  0.9528851E+03  0.7818608E-02  0.9361785E-01
          2   -1    0    0  501    0  0.00000000000E+00  0.00000000000E+00  0.21465464800E+04  0.21465464800E+04  0.00000000000E+00 0.  1.
         -2   -1    0    0    0  501 -0.00000000000E+00 -0.00000000000E+00 -0.10575009002E+03  0.10575009002E+03  0.00000000000E+00 0. -1.
         23    2    1    2    0    0  0.27126644430E+03 -0.37163797342E+03  0.80753052787E+03  0.93599684969E+03  0.11083448057E+03 0.  0.
         11    1    3    3    0    0  0.74675952399E+02 -0.45015192846E+02  0.20787701045E+03  0.22542341699E+03  0.00000000000E+00 0.  1.
        -11    1    3    3    0    0  0.19659049190E+03 -0.32662278057E+03  0.59965351743E+03  0.71057343270E+03  0.00000000000E+00 0. -1.
         22    1    1    2    0    0 -0.27126644430E+03  0.37163797342E+03  0.12332658621E+04  0.13162997203E+04  0.00000000000E+00 0.  1.
<mgrwt>
<rscale>  0 0.95288506E+03</rscale>
<asrwt>0</asrwt>
<pdfrwt beam="1">  1        2 0.33023789E+00 0.95288506E+03</pdfrwt>
<pdfrwt beam="2">  1       -2 0.16269246E-01 0.95288506E+03</pdfrwt>
<totfact> 0.17056636E+02</totfact>
</mgrwt>
</event>
<event>
 6    1  0.4630212E-004  0.5817261E+04  0.7818608E-02  0.7713481E-01
          2   -1    0    0  501    0  0.00000000000E+00  0.00000000000E+00  0.37957892299E+04  0.37957892299E+04  0.00000000000E+00 0.  1.
         -2   -1    0    0    0  501 -0.00000000000E+00 -0.00000000000E+00 -0.22288204366E+04  0.22288204366E+04  0.00000000000E+00 0. -1.
         23    2    1    2    0    0 -0.19215924717E+04 -0.18570052492E+03  0.30359013698E+04  0.35987561617E+04  0.85711564722E+02 0.  0.
         13    1    3    3    0    0 -0.59898556716E+03 -0.18637503101E+02  0.92902037570E+03  0.11055360350E+04  0.00000000000E+00 0.  1.
        -13    1    3    3    0    0 -0.13226069045E+04 -0.16706302182E+03  0.21068809941E+04  0.24932201267E+04  0.00000000000E+00 0. -1.
         22    1    1    2    0    0  0.19215924717E+04  0.18570052492E+03 -0.14689325765E+04  0.24258535047E+04  0.00000000000E+00 0. -1.
<mgrwt>
<rscale>  0 0.58172614E+04</rscale>
<asrwt>0</asrwt>
<pdfrwt beam="1">  1        2 0.58396758E+00 0.58172614E+04</pdfrwt>
<pdfrwt beam="2">  1       -2 0.34289545E+00 0.58172614E+04</pdfrwt>
<totfact> 0.58028982E-03</totfact>
</mgrwt>
</event>
<event>
 6    1  0.4630212E-004  0.1212721E+04  0.7818608E-02  0.9101794E-01
          2   -1    0    0  501    0  0.00000000000E+00  0.00000000000E+00  0.28781424099E+04  0.28781424099E+04  0.00000000000E+00 0.  1.
         -2   -1    0    0    0  501 -0.00000000000E+00 -0.00000000000E+00 -0.12774664416E+03  0.12774664416E+03  0.00000000000E+00 0. -1.
         23    2    1    2    0    0  0.10709775684E+03 -0.40883123338E+03  0.31618148499E+03  0.53525916038E+03  0.88987248569E+02 0.  0.
         11    1    3    3    0    0  0.66579463310E+02 -0.10821065686E+03  0.73431365550E+02  0.14674650469E+03  0.00000000000E+00 0.  1.
        -11    1    3    3    0    0  0.40518293527E+02 -0.30062057653E+03  0.24275011944E+03  0.38851265569E+03  0.00000000000E+00 0. -1.
         22    1    1    2    0    0 -0.10709775684E+03  0.40883123338E+03  0.24342142807E+04  0.24706298936E+04  0.00000000000E+00 0.  1.
<mgrwt>
<rscale>  0 0.12127210E+04</rscale>
<asrwt>0</asrwt>
<pdfrwt beam="1">  1        2 0.44279109E+00 0.12127210E+04</pdfrwt>
<pdfrwt beam="2">  1       -2 0.19653332E-01 0.12127210E+04</pdfrwt>
<totfact> 0.45570737E+01</totfact>
</mgrwt>
</event>
<event>
 6    1  0.4630212E-004  0.3492323E+04  0.7818608E-02  0.8115612E-01
         -1   -1    0    0    0  501 -0.00000000000E+00  0.00000000000E+00  0.88159756152E+03  0.88159756152E+03  0.00000000000E+00 0. -1.
          1   -1    0    0  501    0  0.00000000000E+00 -0.00000000000E+00 -0.34585841485E+04  0.34585841485E+04  0.00000000000E+00 0.  1.
         23    2    1    2    0    0  0.11875817862E+04  0.88885880990E+03 -0.24312117993E+04  0.28496546987E+04  0.96543284179E+02 0.  0.
         13    1    3    3    0    0  0.10073564792E+04  0.72212472022E+03 -0.20759010549E+04  0.24177668162E+04  0.00000000000E+00 0.  1.
        -13    1    3    3    0    0  0.18022530696E+03  0.16673408967E+03 -0.35531074446E+03  0.43188788251E+03  0.00000000000E+00 0. -1.
         22    1    1    2    0    0 -0.11875817862E+04 -0.88885880990E+03 -0.14577478766E+03  0.14905270113E+04  0.00000000000E+00 0. -1.
<mgrwt>
<rscale>  0 0.34923226E+04</rscale>
<asrwt>0</asrwt>
<pdfrwt beam="1">  1        1 0.53208987E+00 0.34923226E+04</pdfrwt>
<pdfrwt beam="2">  1       -1 0.13563039E+00 0.34923226E+04</pdfrwt>
<totfact> 0.99937925E-02</totfact>
</mgrwt>
</event>
<event>
 6    1  0.4630212E-004  0.2020159E+04  0.7818608E-02  0.8597253E-01
          2   -1    0    0  501    0  0.00000000000E+00  0.00000000000E+00  0.34361072254E+04  0.34361072254E+04  0.00000000000E+00 0.  1.
         -2   -1    0    0    0  501 -0.00000000000E+00 -0.00000000000E+00 -0.29692326761E+03  0.29692326761E+03  0.00000000000E+00 0. -1.
         23    2    1    2    0    0  0.84705762758E+03 -0.52040309422E+03  0.18872629561E+04  0.21343960134E+04  0.74557841351E+02 0.  0.
         13    1    3    3    0    0  0.22149952742E+03 -0.12938163089E+03  0.42058146671E+03  0.49263619152E+03  0.00000000000E+00 0. -1.
        -13    1    3    3    0    0  0.62555810015E+03 -0.39102146333E+03  0.14666814894E+04  0.16417598219E+04  0.00000000000E+00 0.  1.
         22    1    1    2    0    0 -0.84705762758E+03  0.52040309422E+03  0.12519210017E+04  0.15986344796E+04  0.00000000000E+00 0. -1.
<mgrwt>
<rscale>  0 0.20201586E+04</rscale>
<asrwt>0</asrwt>
<pdfrwt beam="1">  1        2 0.52863185E+00 0.20201586E+04</pdfrwt>
<pdfrwt beam="2">  1       -2 0.45680505E-01 0.20201586E+04</pdfrwt>
<totfact> 0.38144335E+00</totfact>
</mgrwt>
</event>
<event>
 6    1  0.4630212E-004  0.1612647E+04  0.7818608E-02  0.8812816E-01
         -2   -1    0    0    0  501 -0.00000000000E+00  0.00000000000E+00  0.34353943403E+03  0.34353943403E+03  0.00000000000E+00 0. -1.
          2   -1    0    0  501    0  0.00000000000E+00 -0.00000000000E+00 -0.18925278480E+04  0.18925278480E+04  0.00000000000E+00 0.  1.
         23    2    1    2    0    0 -0.68310626021E+03  0.34013734360E+03 -0.11266485708E+04  0.13638869576E+04  0.92320397136E+02 0.  0.
         11    1    3    3    0    0 -0.33247632901E+03  0.21519911695E+03 -0.60274248644E+03  0.72121402805E+03  0.00000000000E+00 0. -1.
        -11    1    3    3    0    0 -0.35062993119E+03  0.12493822665E+03 -0.52390608436E+03  0.64267292954E+03  0.00000000000E+00 0.  1.
         22    1    1    2    0    0  0.68310626021E+03 -0.34013734360E+03 -0.42233984318E+03  0.87218032446E+03  0.00000000000E+00 0. -1.
<mgrwt>
<rscale>  0 0.16126474E+04</rscale>
<asrwt>0</asrwt>
<pdfrwt beam="1">  1        2 0.29115813E+00 0.16126474E+04</pdfrwt>
<pdfrwt beam="2">  1       -2 0.52852221E-01 0.16126474E+04</pdfrwt>
<totfact> 0.24800350E+01</totfact>
</mgrwt>
</event>
<event>
 6    1  0.4630212E-004  0.2674976E+04  0.7818608E-02  0.8343170E-01
         -2   -1    0    0    0  501 -0.00000000000E+00  0.00000000000E+00  0.14994145934E+04  0.14994145934E+04  0.00000000000E+00 0. -1.
          2   -1    0    0  501    0  0.00000000000E+00 -0.00000000000E+00 -0.11930483612E+04  0.11930483612E+04  0.00000000000E+00 0.  1.
         23    2    1    2    0    0  0.12913892622E+04 -0.10790951245E+03 -0.17202887032E+03  0.13110895208E+04  0.10015542935E+03 0.  0.
         13    1    3    3    0    0  0.27919081836E+03  0.12831885848E+02 -0.17091283600E+02  0.28000764690E+03  0.00000000000E+00 0. -1.
        -13    1    3    3    0    0  0.10121984438E+04 -0.12074139829E+03 -0.15493758672E+03  0.10310818739E+04  0.00000000000E+00 0.  1.
         22    1    1    2    0    0 -0.12913892622E+04  0.10790951245E+03  0.47839510249E+03  0.13813734337E+04  0.00000000000E+00 0. -1.
<mgrwt>
<rscale>  0 0.26749760E+04</rscale>
<asrwt>0</asrwt>
<pdfrwt beam="1">  1        2 0.18354590E+00 0.26749760E+04</pdfrwt>
<pdfrwt beam="2">  1       -2 0.23067917E+00 0.26749760E+04</pdfrwt>
<totfact> 0.14233015E+00</totfact>
</mgrwt>
</event>
<event>
 6    1  0.4630212E-004  0.1560374E+04  0.7818608E-02  0.8845268E-01
          2   -1    0    0  501    0  0.00000000000E+00  0.00000000000E+00  0.63428780403E+03  0.63428780403E+03  0.00000000000E+00 0.  1.
         -2   -1    0    0    0  501 -0.00000000000E+00 -0.00000000000E+00 -0.95964639181E+03  0.95964639181E+03  0.00000000000E+00 0. -1.
         23    2    1    2    0    0  0.47614991086E+03 -0.52121080614E+03 -0.49608047478E+03  0.86762475438E+03  0.91090256891E+02 0.  0.
         13    1    3    3    0    0  0.44166695670E+03 -0.44150540505E+03 -0.44560207780E+03  0.76717529618E+03  0.00000000000E+00 0. -1.
        -13    1    3    3    0    0  0.34482954165E+02 -0.79705401089E+02 -0.50478396973E+02  0.10044945820E+03  0.00000000000E+00 0.  1.
         22    1    1    2    0    0 -0.47614991086E+03  0.52121080614E+03  0.17072188700E+03  0.72630944146E+03  0.00000000000E+00 0.  1.
<mgrwt>
<rscale>  0 0.15603743E+04</rscale>
<asrwt>0</asrwt>
<pdfrwt beam="1">  1        2 0.97582739E-01 0.15603743E+04</pdfrwt>
<pdfrwt beam="2">  1       -2 0.14763791E+00 0.15603743E+04</pdfrwt>
<totfact> 0.13919066E+01</totfact>
</mgrwt>
</event>
<event>
 6    1  0.4833914E-004  0.2533794E+04  0.7818608E-02  0.8391044E-01
         -2   -1    0    0    0  501 -0.00000000000E+00  0.00000000000E+00  0.10115148641E+04  0.10115148641E+04  0.00000000000E+00 0. -1.
          2   -1    0    0  501    0  0.00000000000E+00 -0.00000000000E+00 -0.15867568043E+04  0.15867568043E+04  0.00000000000E+00 0.  1.
         23    2    1    2    0    0  0.25637687808E+03 -0.57140322623E+03 -0.14153061234E+04  0.15504460233E+04  0.92524037838E+02 0.  0.
         13    1    3    3    0    0  0.96127464007E+02 -0.21880803259E+03 -0.43360028849E+03  0.49510267080E+03  0.00000000000E+00 0. -1.
        -13    1    3    3    0    0  0.16024941408E+03 -0.35259519364E+03 -0.98170583490E+03  0.10553433525E+04  0.00000000000E+00 0.  1.
         22    1    1    2    0    0 -0.25637687808E+03  0.57140322623E+03  0.84006418322E+03  0.10478256451E+04  0.00000000000E+00 0. -1.
<mgrwt>
<rscale>  0 0.25337941E+04</rscale>
<asrwt>0</asrwt>
<pdfrwt beam="1">  1        2 0.24411643E+00 0.25337941E+04</pdfrwt>
<pdfrwt beam="2">  1       -2 0.15561767E+00 0.25337941E+04</pdfrwt>
<totfact> 0.27407339E+00</totfact>
</mgrwt>
</event>
<event>
 6    1  0.4630212E-004  0.1121495E+04  0.7818608E-02  0.9184491E-01
          2   -1    0    0  501    0  0.00000000000E+00  0.00000000000E+00  0.14601277871E+03  0.14601277871E+03  0.00000000000E+00 0.  1.
         -2   -1    0    0    0  501 -0.00000000000E+00 -0.00000000000E+00 -0.21534955090E+04  0.21534955090E+04  0.00000000000E+00 0. -1.
         23    2    1    2    0    0 -0.34688501940E+03  0.31433167583E+03 -0.39156168943E+03  0.61714850770E+03  0.91750230574E+02 0.  0.
         11    1    3    3    0    0 -0.17461246676E+03  0.15436231698E+03 -0.13572821454E+03  0.26970240391E+03  0.00000000000E+00 0.  1.
        -11    1    3    3    0    0 -0.17227255264E+03  0.15996935885E+03 -0.25583347490E+03  0.34744610379E+03  0.00000000000E+00 0. -1.
         22    1    1    2    0    0  0.34688501940E+03 -0.31433167583E+03 -0.16159210408E+04  0.16823597800E+04  0.00000000000E+00 0. -1.
<mgrwt>
<rscale>  0 0.11214952E+04</rscale>
<asrwt>0</asrwt>
<pdfrwt beam="1">  1        2 0.22463504E-01 0.11214952E+04</pdfrwt>
<pdfrwt beam="2">  1       -2 0.33130701E+00 0.11214952E+04</pdfrwt>
<totfact> 0.50931551E+00</totfact>
</mgrwt>
</event>
<event>
 6    1  0.4630212E-004  0.1162229E+04  0.7818608E-02  0.9146576E-01
          1   -1    0    0  501    0  0.00000000000E+00  0.00000000000E+00  0.68059387636E+03  0.68059387636E+03  0.00000000000E+00 0.  1.
         -1   -1    0    0    0  501 -0.00000000000E+00 -0.00000000000E+00 -0.49617521097E+03  0.49617521097E+03  0.00000000000E+00 0. -1.
         23    2    1    2    0    0 -0.22677975418E+03 -0.57049673305E+02 -0.44211420862E+03  0.50801863735E+03  0.89074352681E+02 0.  0.
         11    1    3    3    0    0 -0.15640843220E+03 -0.47599679298E+01 -0.22684356369E+03  0.27557985657E+03  0.00000000000E+00 0. -1.
        -11    1    3    3    0    0 -0.70371321978E+02 -0.52289705375E+02 -0.21527064493E+03  0.23243878078E+03  0.00000000000E+00 0.  1.
         22    1    1    2    0    0  0.22677975418E+03  0.57049673305E+02  0.62653287401E+03  0.66875044998E+03  0.00000000000E+00 0.  1.
<mgrwt>
<rscale>  0 0.11622286E+04</rscale>
<asrwt>0</asrwt>
<pdfrwt beam="1">  1        1 0.10470675E+00 0.11622286E+04</pdfrwt>
<pdfrwt beam="2">  1       -1 0.76334648E-01 0.11622286E+04</pdfrwt>
<totfact> 0.48629670E+01</totfact>
</mgrwt>
</event>
<event>
 6    1  0.5135454E-004  0.3227936E+04  0.7818608E-02  0.8181478E-01
          2   -1    0    0  501    0  0.00000000000E+00  0.00000000000E+00  0.21720738952E+04  0.21720738952E+04  0.00000000000E+00 0.  1.
         -2   -1    0    0    0  501 -0.00000000000E+00 -0.00000000000E+00 -0.11992654761E+04  0.11992654761E+04  0.00000000000E+00 0. -1.
         23    2    1    2    0    0  0.14323956506E+04  0.46004424659E+03  0.10932691673E+04  0.18620651084E+04  0.93010681531E+02 0.  0.
         11    1    3    3    0    0  0.10977573926E+04  0.38816377599E+03  0.86835848109E+03  0.14525112260E+04  0.00000000000E+00 0. -1.
        -11    1    3    3    0    0  0.33463825795E+03  0.71880470604E+02  0.22491068623E+03  0.40955388232E+03  0.00000000000E+00 0.  1.
         22    1    1    2    0    0 -0.14323956506E+04 -0.46004424659E+03 -0.12046074822E+03  0.15092742629E+04  0.00000000000E+00 0. -1.
<mgrwt>
<rscale>  0 0.32279363E+04</rscale>
<asrwt>0</asrwt>
<pdfrwt beam="1">  1        2 0.33416522E+00 0.32279363E+04</pdfrwt>
<pdfrwt beam="2">  1       -2 0.18450238E+00 0.32279363E+04</pdfrwt>
<totfact> 0.75957409E-01</totfact>
</mgrwt>
</event>
<event>
 6    1  0.4630212E-004  0.1562449E+04  0.7818608E-02  0.8843955E-01
          2   -1    0    0  501    0  0.00000000000E+00  0.00000000000E+00  0.46474614496E+03  0.46474614496E+03  0.00000000000E+00 0.  1.
         -2   -1    0    0    0  501 -0.00000000000E+00 -0.00000000000E+00 -0.13132153529E+04  0.13132153529E+04  0.00000000000E+00 0. -1.
         23    2    1    2    0    0  0.37830152422E+03  0.28538023573E+03 -0.11286230533E+04  0.12274707176E+04  0.91326030844E+02 0.  0.
         13    1    3    3    0    0  0.10046024332E+03  0.56679579398E+02 -0.19056051985E+03  0.22275131186E+03  0.00000000000E+00 0. -1.
        -13    1    3    3    0    0  0.27784128090E+03  0.22870065633E+03 -0.93806253342E+03  0.10047194057E+04  0.00000000000E+00 0.  1.
         22    1    1    2    0    0 -0.37830152422E+03 -0.28538023573E+03  0.28015384532E+03  0.55049078032E+03  0.00000000000E+00 0.  1.
<mgrwt>
<rscale>  0 0.15624491E+04</rscale>
<asrwt>0</asrwt>
<pdfrwt beam="1">  1        2 0.71499408E-01 0.15624491E+04</pdfrwt>
<pdfrwt beam="2">  1       -2 0.20203313E+00 0.15624491E+04</pdfrwt>
<totfact> 0.83047151E+00</totfact>
</mgrwt>
</event>
<event>
 6    1  0.4630212E-004  0.3223958E+04  0.7818608E-02  0.8182518E-01
          2   -1    0    0  501    0  0.00000000000E+00  0.00000000000E+00  0.16883878552E+04  0.16883878552E+04  0.00000000000E+00 0.  1.
         -2   -1    0    0    0  501 -0.00000000000E+00 -0.00000000000E+00 -0.15390278556E+04  0.15390278556E+04  0.00000000000E+00 0. -1.
         23    2    1    2    0    0  0.33845058769E+03 -0.15744364785E+04  0.52581912322E+02  0.16141069916E+04  0.95799258010E+02 0.  0.
         11    1    3    3    0    0  0.29675452599E+03 -0.12857354060E+04  0.74112092021E+02  0.13216169586E+04  0.00000000000E+00 0.  1.
        -11    1    3    3    0    0  0.41696061699E+02 -0.28870107243E+03 -0.21530179699E+02  0.29249003302E+03  0.00000000000E+00 0. -1.
         22    1    1    2    0    0 -0.33845058769E+03  0.15744364785E+04  0.96778087280E+02  0.16133087191E+04  0.00000000000E+00 0. -1.
<mgrwt>
<rscale>  0 0.32239578E+04</rscale>
<asrwt>0</asrwt>
<pdfrwt beam="1">  1        2 0.25975198E+00 0.32239578E+04</pdfrwt>
<pdfrwt beam="2">  1       -2 0.23677352E+00 0.32239578E+04</pdfrwt>
<totfact> 0.64894725E-01</totfact>
</mgrwt>
</event>
<event>
 6    1  0.4630212E-004  0.1941285E+04  0.7818608E-02  0.8634575E-01
          2   -1    0    0  501    0  0.00000000000E+00  0.00000000000E+00  0.47850932865E+03  0.47850932865E+03  0.00000000000E+00 0.  1.
         -2   -1    0    0    0  501 -0.00000000000E+00 -0.00000000000E+00 -0.19689198799E+04  0.19689198799E+04  0.00000000000E+00 0. -1.
         23    2    1    2    0    0 -0.64659612206E+03  0.20624486360E+03 -0.16179047871E+04  0.17568654758E+04  0.91306687774E+02 0.  0.
         13    1    3    3    0    0 -0.24035180755E+03  0.12346990735E+03 -0.63524145888E+03  0.69032276545E+03  0.00000000000E+00 0.  1.
        -13    1    3    3    0    0 -0.40624431451E+03  0.82774956256E+02 -0.98266332817E+03  0.10665427103E+04  0.00000000000E+00 0. -1.
         22    1    1    2    0    0  0.64659612206E+03 -0.20624486360E+03  0.12749423580E+03  0.69056373275E+03  0.00000000000E+00 0.  1.
<mgrwt>
<rscale>  0 0.19412847E+04</rscale>
<asrwt>0</asrwt>
<pdfrwt beam="1">  1        2 0.73616819E-01 0.19412847E+04</pdfrwt>
<pdfrwt beam="2">  1       -2 0.30291075E+00 0.19412847E+04</pdfrwt>
<totfact> 0.18476275E+00</totfact>
</mgrwt>
</event>
<event>
 6    1  0.4630212E-004  0.1128870E+04  0.7818608E-02  0.9177501E-01
          2   -1    0    0  501    0  0.00000000000E+00  0.00000000000E+00  0.40559591887E+03  0.40559591887E+03  0.00000000000E+00 0.  1.
         -2   -1    0    0    0  501 -0.00000000000E+00 -0.00000000000E+00 -0.78547847156E+03  0.78547847156E+03  0.00000000000E+00 0. -1.
         23    2    1    2    0    0  0.17660216062E+03 -0.52857401182E+03 -0.25677733215E+03  0.62034353930E+03  0.91174005779E+02 0.  0.
         11    1    3    3    0    0  0.97586299721E+02 -0.37297168325E+03 -0.21286212843E+03  0.44038761122E+03  0.00000000000E+00 0.  1.
        -11    1    3    3    0    0  0.79015860904E+02 -0.15560232857E+03 -0.43915203729E+02  0.17995592808E+03  0.00000000000E+00 0. -1.
         22    1    1    2    0    0 -0.17660216062E+03  0.52857401182E+03 -0.12310522054E+03  0.57073085113E+03  0.00000000000E+00 0. -1.
<mgrwt>
<rscale>  0 0.11288700E+04</rscale>
<asrwt>0</asrwt>
<pdfrwt beam="1">  1        2 0.62399373E-01 0.11288700E+04</pdfrwt>
<pdfrwt beam="2">  1       -2 0.12084284E+00 0.11288700E+04</pdfrwt>
<totfact> 0.40470361E+01</totfact>
</mgrwt>
</event>
<event>
 6    1  0.4630212E-004  0.1099055E+04  0.7818608E-02  0.9206113E-01
         -2   -1    0    0    0  501 -0.00000000000E+00  0.00000000000E+00  0.31097361511E+03  0.31097361511E+03  0.00000000000E+00 0. -1.
          2   -1    0    0  501    0  0.00000000000E+00 -0.00000000000E+00 -0.97108087837E+03  0.97108087837E+03  0.00000000000E+00 0.  1.
         23    2    1    2    0    0  0.12361673892E+03  0.26904774592E+03 -0.86711707649E+03  0.92077779828E+03  0.90950215682E+02 0.  0.
         13    1    3    3    0    0  0.60827840532E+02  0.54200190321E+02 -0.30608319871E+03  0.31674060577E+03  0.00000000000E+00 0.  1.
        -13    1    3    3    0    0  0.62788898385E+02  0.21484755560E+03 -0.56103387779E+03  0.60403719251E+03  0.00000000000E+00 0. -1.
         22    1    1    2    0    0 -0.12361673892E+03 -0.26904774592E+03  0.20700981324E+03  0.36127669521E+03  0.00000000000E+00 0. -1.
<mgrwt>
<rscale>  0 0.10990551E+04</rscale>
<asrwt>0</asrwt>
<pdfrwt beam="1">  1        2 0.14939705E+00 0.10990551E+04</pdfrwt>
<pdfrwt beam="2">  1       -2 0.47842096E-01 0.10990551E+04</pdfrwt>
<totfact> 0.10806728E+02</totfact>
</mgrwt>
</event>
<event>
 6    1  0.4630212E-004  0.1867138E+04  0.7818608E-02  0.8671389E-01
          2   -1    0    0  501    0  0.00000000000E+00  0.00000000000E+00  0.87552615818E+03  0.87552615818E+03  0.00000000000E+00 0. -1.
         -2   -1    0    0    0  501 -0.00000000000E+00 -0.00000000000E+00 -0.99546006576E+03  0.99546006576E+03  0.00000000000E+00 0.  1.
         23    2    1    2    0    0 -0.28879317030E+03 -0.64498207508E+01  0.82696554014E+03  0.88100558802E+03  0.94104974107E+02 0.  0.
         11    1    3    3    0    0 -0.58649262496E+02 -0.31906264716E+01  0.30412039885E+03  0.30974042856E+03  0.00000000000E+00 0. -1.
        -11    1    3    3    0    0 -0.23014390780E+03 -0.32591942791E+01  0.52284514129E+03  0.57126515947E+03  0.00000000000E+00 0.  1.
         22    1    1    2    0    0  0.28879317030E+03  0.64498207508E+01 -0.94689944772E+03  0.98998063592E+03  0.00000000000E+00 0.  1.
<mgrwt>
<rscale>  0 0.18671383E+04</rscale>
<asrwt>0</asrwt>
<pdfrwt beam="1">  1        2 0.13469633E+00 0.18671383E+04</pdfrwt>
<pdfrwt beam="2">  1       -2 0.15314770E+00 0.18671383E+04</pdfrwt>
<totfact> 0.81096100E+00</totfact>
</mgrwt>
</event>
<event>
 6    1  0.4630212E-004  0.8209311E+03  0.7818608E-02  0.9530205E-01
         -2   -1    0    0    0  501 -0.00000000000E+00  0.00000000000E+00  0.27597018149E+03  0.27597018149E+03  0.00000000000E+00 0. -1.
          2   -1    0    0  501    0  0.00000000000E+00 -0.00000000000E+00 -0.61050786144E+03  0.61050786144E+03  0.00000000000E+00 0.  1.
         23    2    1    2    0    0  0.90604560233E+02  0.38375751915E+03 -0.27063407734E+03  0.48702505412E+03  0.92041184709E+02 0.  0.
         11    1    3    3    0    0  0.51627224581E+02  0.23939239081E+03 -0.11287157270E+03  0.26965548209E+03  0.00000000000E+00 0.  1.
        -11    1    3    3    0    0  0.38977335652E+02  0.14436512834E+03 -0.15776250464E+03  0.21736957204E+03  0.00000000000E+00 0. -1.
         22    1    1    2    0    0 -0.90604560233E+02 -0.38375751915E+03 -0.63903602608E+02  0.39945298881E+03  0.00000000000E+00 0. -1.
<mgrwt>
<rscale>  0 0.82093109E+03</rscale>
<asrwt>0</asrwt>
<pdfrwt beam="1">  1        2 0.93924286E-01 0.82093109E+03</pdfrwt>
<pdfrwt beam="2">  1       -2 0.42456951E-01 0.82093109E+03</pdfrwt>
<totfact> 0.25679713E+02</totfact>
</mgrwt>
</event>
<event>
 6    1  0.4630212E-004  0.1702635E+04  0.7818608E-02  0.8759863E-01
         -1   -1    0    0    0  501 -0.00000000000E+00  0.00000000000E+00  0.38057127562E+03  0.38057127562E+03  0.00000000000E+00 0. -1.
          1   -1    0    0  501    0  0.00000000000E+00 -0.00000000000E+00 -0.19043511242E+04  0.19043511242E+04  0.00000000000E+00 0.  1.
         23    2    1    2    0    0  0.29393257567E+03  0.66338107016E+03 -0.17288259867E+03  0.75149676317E+03  0.91587056041E+02 0.  0.
         11    1    3    3    0    0  0.74737430797E+02  0.27867180048E+03 -0.72418479820E+02  0.29746948107E+03  0.00000000000E+00 0.  1.
        -11    1    3    3    0    0  0.21919514487E+03  0.38470926968E+03 -0.10046411885E+03  0.45402728210E+03  0.00000000000E+00 0. -1.
         22    1    1    2    0    0 -0.29393257567E+03 -0.66338107016E+03 -0.13508972499E+04  0.15334256366E+04  0.00000000000E+00 0.  1.
<mgrwt>
<rscale>  0 0.17026348E+04</rscale>
<asrwt>0</asrwt>
<pdfrwt beam="1">  1        1 0.29297710E+00 0.17026348E+04</pdfrwt>
<pdfrwt beam="2">  1       -1 0.58549427E-01 0.17026348E+04</pdfrwt>
<totfact> 0.97339380E+00</totfact>
</mgrwt>
</event>
<event>
 6    1  0.4630212E-004  0.2082829E+04  0.7818608E-02  0.8568845E-01
         -2   -1    0    0    0  501 -0.00000000000E+00  0.00000000000E+00  0.10297670512E+04  0.10297670512E+04  0.00000000000E+00 0. -1.
          2   -1    0    0  501    0  0.00000000000E+00 -0.00000000000E+00 -0.10531940318E+04  0.10531940318E+04  0.00000000000E+00 0.  1.
         23    2    1    2    0    0 -0.13425126396E+03 -0.28275072427E+03 -0.10029605213E+04  0.10546336393E+04  0.91383433723E+02 0.  0.
         13    1    3    3    0    0 -0.13423640480E+03 -0.19032726087E+03 -0.74917414112E+03  0.78454175945E+03  0.00000000000E+00 0.  1.
        -13    1    3    3    0    0 -0.14859156905E-01 -0.92423463393E+02 -0.25378638020E+03  0.27009187989E+03  0.00000000000E+00 0. -1.
         22    1    1    2    0    0  0.13425126396E+03  0.28275072427E+03  0.97953354075E+03  0.10283274437E+04  0.00000000000E+00 0. -1.
<mgrwt>
<rscale>  0 0.20828293E+04</rscale>
<asrwt>0</asrwt>
<pdfrwt beam="1">  1        2 0.16202985E+00 0.20828293E+04</pdfrwt>
<pdfrwt beam="2">  1       -2 0.15842570E+00 0.20828293E+04</pdfrwt>
<totfact> 0.55635278E+00</totfact>
</mgrwt>
</event>
<event>
 6    1  0.6065361E-004  0.4604058E+04  0.7818608E-02  0.7892668E-01
          2   -1    0    0  501    0  0.00000000000E+00  0.00000000000E+00  0.30708516981E+04  0.30708516981E+04  0.00000000000E+00 0.  1.
         -2   -1    0    0    0  501 -0.00000000000E+00 -0.00000000000E+00 -0.17256895693E+04  0.17256895693E+04  0.00000000000E+00 0. -1.
         23    2    1    2    0    0 -0.20786449868E+03 -0.10095847664E+04 -0.14709432047E+04  0.17977217832E+04  0.75237278088E+02 0.  0.
         11    1    3    3    0    0 -0.44318557593E+02 -0.32935825776E+03 -0.52073309314E+03  0.61774100624E+03  0.00000000000E+00 0. -1.
        -11    1    3    3    0    0 -0.16354594109E+03 -0.68022650860E+03 -0.95021011154E+03  0.11799807769E+04  0.00000000000E+00 0.  1.
         22    1    1    2    0    0  0.20786449868E+03  0.10095847664E+04  0.28161053335E+04  0.29988194843E+04  0.00000000000E+00 0.  1.
<mgrwt>
<rscale>  0 0.46040577E+04</rscale>
<asrwt>0</asrwt>
<pdfrwt beam="1">  1        2 0.47243872E+00 0.46040577E+04</pdfrwt>
<pdfrwt beam="2">  1       -2 0.26549070E+00 0.46040577E+04</pdfrwt>
<totfact> 0.60905466E-02</totfact>
</mgrwt>
</event>
<event>
 6    1  0.4630212E-004  0.2002852E+04  0.7818608E-02  0.8605288E-01
         -1   -1    0    0    0  501 -0.00000000000E+00  0.00000000000E+00  0.57593798146E+03  0.57593798146E+03  0.00000000000E+00 0. -1.
          1   -1    0    0  501    0  0.00000000000E+00 -0.00000000000E+00 -0.17412539593E+04  0.17412539593E+04  0.00000000000E+00 0.  1.
         23    2    1    2    0    0  0.66878024792E+03 -0.35278475478E+03 -0.13398264864E+04  0.15411906386E+04  0.91703149750E+02 0.  0.
         11    1    3    3    0    0  0.29537438182E+03 -0.11239903388E+03 -0.50929012062E+03  0.59937967534E+03  0.00000000000E+00 0. -1.
        -11    1    3    3    0    0  0.37340586610E+03 -0.24038572090E+03 -0.83053636582E+03  0.94181096330E+03  0.00000000000E+00 0.  1.
         22    1    1    2    0    0 -0.66878024792E+03  0.35278475478E+03  0.17451050863E+03  0.77600130208E+03  0.00000000000E+00 0. -1.
<mgrwt>
<rscale>  0 0.20028523E+04</rscale>
<asrwt>0</asrwt>
<pdfrwt beam="1">  1        1 0.26788522E+00 0.20028523E+04</pdfrwt>
<pdfrwt beam="2">  1       -1 0.88605845E-01 0.20028523E+04</pdfrwt>
<totfact> 0.51789345E+00</totfact>
</mgrwt>
</event>
<event>
 6    1  0.4630212E-004  0.1996125E+04  0.7818608E-02  0.8608434E-01
          2   -1    0    0  501    0  0.00000000000E+00  0.00000000000E+00  0.20825249992E+04  0.20825249992E+04  0.00000000000E+00 0.  1.
         -2   -1    0    0    0  501 -0.00000000000E+00 -0.00000000000E+00 -0.47832761495E+03  0.47832761495E+03  0.00000000000E+00 0. -1.
         23    2    1    2    0    0 -0.28711026895E+03 -0.95366008575E+03  0.81728639849E+03  0.12915501423E+04  0.90801140616E+02 0.  0.
         13    1    3    3    0    0 -0.15182144101E+03 -0.63643339990E+03  0.50876759299E+03  0.82881945328E+03  0.00000000000E+00 0. -1.
        -13    1    3    3    0    0 -0.13528882794E+03 -0.31722668585E+03  0.30851880550E+03  0.46273068898E+03  0.00000000000E+00 0.  1.
         22    1    1    2    0    0  0.28711026895E+03  0.95366008575E+03  0.78691098580E+03  0.12693024719E+04  0.00000000000E+00 0. -1.
<mgrwt>
<rscale>  0 0.19961255E+04</rscale>
<asrwt>0</asrwt>
<pdfrwt beam="1">  1        2 0.32038846E+00 0.19961255E+04</pdfrwt>
<pdfrwt beam="2">  1       -2 0.73588865E-01 0.19961255E+04</pdfrwt>
<totfact> 0.93007740E+00</totfact>
</mgrwt>
</event>
<event>
 6    1  0.4630212E-004  0.2483455E+04  0.7818608E-02  0.8408904E-01
          2   -1    0    0  501    0  0.00000000000E+00  0.00000000000E+00  0.15461572308E+04  0.15461572308E+04  0.00000000000E+00 0.  1.
         -2   -1    0    0    0  501 -0.00000000000E+00 -0.00000000000E+00 -0.99723822724E+03  0.99723822724E+03  0.00000000000E+00 0. -1.
         23    2    1    2    0    0  0.41792511148E+03 -0.91171122971E+02 -0.91728041485E+03  0.10160728637E+04  0.89594266032E+02 0.  0.
         11    1    3    3    0    0  0.11006667437E+03  0.13047050829E+02 -0.26697712486E+03  0.28907037818E+03  0.00000000000E+00 0. -1.
        -11    1    3    3    0    0  0.30785843710E+03 -0.10421817380E+03 -0.65030329000E+03  0.72700248557E+03  0.00000000000E+00 0.  1.
         22    1    1    2    0    0 -0.41792511148E+03  0.91171122971E+02  0.14661994184E+04  0.15273225943E+04  0.00000000000E+00 0.  1.
<mgrwt>
<rscale>  0 0.24834549E+04</rscale>
<asrwt>0</asrwt>
<pdfrwt beam="1">  1        2 0.23787034E+00 0.24834549E+04</pdfrwt>
<pdfrwt beam="2">  1       -2 0.15342127E+00 0.24834549E+04</pdfrwt>
<totfact> 0.30131482E+00</totfact>
</mgrwt>
</event>
<event>
 6    1  0.4630212E-004  0.3047098E+04  0.7818608E-02  0.8230408E-01
          2   -1    0    0  501    0  0.00000000000E+00  0.00000000000E+00  0.26768465061E+04  0.26768465061E+04  0.00000000000E+00 0.  1.
         -2   -1    0    0    0  501 -0.00000000000E+00 -0.00000000000E+00 -0.86714055286E+03  0.86714055286E+03  0.00000000000E+00 0. -1.
         23    2    1    2    0    0 -0.53029474055E+03  0.12987291244E+04  0.21846659548E+03  0.14226779009E+04  0.91514512037E+02 0.  0.
         13    1    3    3    0    0 -0.12694617579E+03  0.35142469154E+03  0.20452175183E+02  0.37420974979E+03  0.00000000000E+00 0.  1.
        -13    1    3    3    0    0 -0.40334856476E+03  0.94730443286E+03  0.19801442030E+03  0.10484681511E+04  0.00000000000E+00 0. -1.
         22    1    1    2    0    0  0.53029474055E+03 -0.12987291244E+04  0.15912393577E+04  0.21213091581E+04  0.00000000000E+00 0.  1.
<mgrwt>
<rscale>  0 0.30470984E+04</rscale>
<asrwt>0</asrwt>
<pdfrwt beam="1">  1        2 0.41182254E+00 0.30470984E+04</pdfrwt>
<pdfrwt beam="2">  1       -2 0.13340624E+00 0.30470984E+04</pdfrwt>
<totfact> 0.95019449E-01</totfact>
</mgrwt>
</event>
<event>
 6    1  0.4630212E-004  0.3733949E+04  0.7818608E-02  0.8060480E-01
          2   -1    0    0  501    0  0.00000000000E+00  0.00000000000E+00  0.32308290846E+04  0.32308290846E+04  0.00000000000E+00 0.  1.
         -2   -1    0    0    0  501 -0.00000000000E+00 -0.00000000000E+00 -0.10788544544E+04  0.10788544544E+04  0.00000000000E+00 0. -1.
         23    2    1    2    0    0 -0.99011677608E+03 -0.82127934108E+03  0.26365979801E+04  0.29350232982E+04  0.88779873797E+02 0.  0.
         13    1    3    3    0    0 -0.40906626307E+03 -0.34197163303E+03  0.11933067791E+04  0.13070045426E+04  0.00000000000E+00 0.  1.
        -13    1    3    3    0    0 -0.58105051301E+03 -0.47930770804E+03  0.14432912010E+04  0.16280187556E+04  0.00000000000E+00 0. -1.
         22    1    1    2    0    0  0.99011677608E+03  0.82127934108E+03 -0.48462334994E+03  0.13746602408E+04  0.00000000000E+00 0. -1.
<mgrwt>
<rscale>  0 0.37339493E+04</rscale>
<asrwt>0</asrwt>
<pdfrwt beam="1">  1        2 0.49705062E+00 0.37339493E+04</pdfrwt>
<pdfrwt beam="2">  1       -2 0.16597761E+00 0.37339493E+04</pdfrwt>
<totfact> 0.22703976E-01</totfact>
</mgrwt>
</event>
<event>
 6    1  0.4630212E-004  0.1369980E+04  0.7818608E-02  0.8975840E-01
          2   -1    0    0  501    0  0.00000000000E+00  0.00000000000E+00  0.11632227195E+04  0.11632227195E+04  0.00000000000E+00 0.  1.
         -2   -1    0    0    0  501 -0.00000000000E+00 -0.00000000000E+00 -0.40337158275E+03  0.40337158275E+03  0.00000000000E+00 0. -1.
         23    2    1    2    0    0 -0.18236554322E+03 -0.26531723055E+03  0.10690084526E+04  0.11202439129E+04  0.92287207086E+02 0.  0.
         13    1    3    3    0    0 -0.83600124751E+02 -0.94603901933E+02  0.28325272235E+03  0.31011446892E+03  0.00000000000E+00 0. -1.
        -13    1    3    3    0    0 -0.98765418470E+02 -0.17071332861E+03  0.78575573023E+03  0.81012944400E+03  0.00000000000E+00 0.  1.
         22    1    1    2    0    0  0.18236554322E+03  0.26531723055E+03 -0.30915731578E+03  0.44635038936E+03  0.00000000000E+00 0. -1.
<mgrwt>
<rscale>  0 0.13699795E+04</rscale>
<asrwt>0</asrwt>
<pdfrwt beam="1">  1        2 0.17895734E+00 0.13699795E+04</pdfrwt>
<pdfrwt beam="2">  1       -2 0.62057167E-01 0.13699795E+04</pdfrwt>
<totfact> 0.46872120E+01</totfact>
</mgrwt>
</event>
<event>
 6    1  0.4630212E-004  0.7940649E+03  0.7818608E-02  0.9568648E-01
         -2   -1    0    0    0  501 -0.00000000000E+00  0.00000000000E+00  0.22217337366E+03  0.22217337366E+03  0.00000000000E+00 0. -1.
          2   -1    0    0  501    0  0.00000000000E+00 -0.00000000000E+00 -0.70951247418E+03  0.70951247418E+03  0.00000000000E+00 0.  1.
         23    2    1    2    0    0 -0.15237562041E+03  0.12766932699E+03 -0.64318324910E+03  0.67908896464E+03  0.89215151262E+02 0.  0.
         13    1    3    3    0    0 -0.13131474599E+03  0.97957030047E+02 -0.38581569590E+03  0.41915736121E+03  0.00000000000E+00 0. -1.
        -13    1    3    3    0    0 -0.21060874425E+02  0.29712296947E+02 -0.25736755320E+03  0.25993160343E+03  0.00000000000E+00 0.  1.
         22    1    1    2    0    0  0.15237562041E+03 -0.12766932699E+03  0.15584414858E+03  0.25259688319E+03  0.00000000000E+00 0. -1.
<mgrwt>
<rscale>  0 0.79406493E+03</rscale>
<asrwt>0</asrwt>
<pdfrwt beam="1">  1        2 0.10915576E+00 0.79406493E+03</pdfrwt>
<pdfrwt beam="2">  1       -2 0.34180519E-01 0.79406493E+03</pdfrwt>
<totfact> 0.32450632E+02</totfact>
</mgrwt>
</event>
<event>
 6    1  0.4630212E-004  0.2087577E+03  0.7818608E-02  0.1142554E+00
         -2   -1    0    0    0  501 -0.00000000000E+00  0.00000000000E+00  0.12925339248E+02  0.12925339248E+02  0.00000000000E+00 0. -1.
          2   -1    0    0  501    0  0.00000000000E+00 -0.00000000000E+00 -0.84291391549E+03  0.84291391549E+03  0.00000000000E+00 0.  1.
         23    2    1    2    0    0 -0.17957039994E+02 -0.55156787557E+02 -0.74655575123E+03  0.75422349421E+03  0.90237813684E+02 0.  0.
         13    1    3    3    0    0  0.12853446863E+02  0.15229089985E+02 -0.56659722344E+02  0.60062137942E+02  0.00000000000E+00 0.  1.
        -13    1    3    3    0    0 -0.30810486857E+02 -0.70385877542E+02 -0.68989602889E+03  0.69416135627E+03  0.00000000000E+00 0. -1.
         22    1    1    2    0    0  0.17957039994E+02  0.55156787557E+02 -0.83432825012E+02  0.10161576053E+03  0.00000000000E+00 0. -1.
<mgrwt>
<rscale>  0 0.20875774E+03</rscale>
<asrwt>0</asrwt>
<pdfrwt beam="1">  1        2 0.12967910E+00 0.20875774E+03</pdfrwt>
<pdfrwt beam="2">  1       -2 0.19885132E-02 0.20875774E+03</pdfrwt>
<totfact> 0.25291400E+04</totfact>
</mgrwt>
</event>
<event>
 6    1  0.4630212E-004  0.1951324E+04  0.7818608E-02  0.8629723E-01
          2   -1    0    0  501    0  0.00000000000E+00  0.00000000000E+00  0.44799109013E+03  0.44799109013E+03  0.00000000000E+00 0.  1.
         -2   -1    0    0    0  501 -0.00000000000E+00 -0.00000000000E+00 -0.21248555092E+04  0.21248555092E+04  0.00000000000E+00 0. -1.
         23    2    1    2    0    0  0.68033527000E+02  0.96492784940E+03 -0.69859587001E+03  0.11970836585E+04  0.96222556983E+02 0.  0.
         11    1    3    3    0    0  0.59053249351E+02  0.85834830210E+03 -0.65608759030E+03  0.10819889187E+04  0.00000000000E+00 0. -1.
        -11    1    3    3    0    0  0.89802776495E+01  0.10657954730E+03 -0.42508279707E+02  0.11509473981E+03  0.00000000000E+00 0.  1.
         22    1    1    2    0    0 -0.68033527000E+02 -0.96492784940E+03 -0.97826854909E+03  0.13757629409E+04  0.00000000000E+00 0. -1.
<mgrwt>
<rscale>  0 0.19513240E+04</rscale>
<asrwt>0</asrwt>
<pdfrwt beam="1">  1        2 0.68921707E-01 0.19513240E+04</pdfrwt>
<pdfrwt beam="2">  1       -2 0.32690084E+00 0.19513240E+04</pdfrwt>
<totfact> 0.14177117E+00</totfact>
</mgrwt>
</event>
<event>
 6    1  0.4630212E-004  0.3189857E+04  0.7818608E-02  0.8191501E-01
         -1   -1    0    0    0  501 -0.00000000000E+00  0.00000000000E+00  0.12084849700E+04  0.12084849700E+04  0.00000000000E+00 0. -1.
          1   -1    0    0  501    0  0.00000000000E+00 -0.00000000000E+00 -0.21049473851E+04  0.21049473851E+04  0.00000000000E+00 0.  1.
         23    2    1    2    0    0 -0.94353548146E+03 -0.12840716755E+04 -0.47252333074E+03  0.16645467860E+04  0.91315016809E+02 0.  0.
         13    1    3    3    0    0 -0.35318208719E+03 -0.40796562721E+03 -0.15600615037E+03  0.56170406679E+03  0.00000000000E+00 0.  1.
        -13    1    3    3    0    0 -0.59035339428E+03 -0.87610604827E+03 -0.31651718037E+03  0.11028427193E+04  0.00000000000E+00 0. -1.
         22    1    1    2    0    0  0.94353548146E+03  0.12840716755E+04 -0.42393908435E+03  0.16488855690E+04  0.00000000000E+00 0.  1.
<mgrwt>
<rscale>  0 0.31898572E+04</rscale>
<asrwt>0</asrwt>
<pdfrwt beam="1">  1        1 0.32383805E+00 0.31898572E+04</pdfrwt>
<pdfrwt beam="2">  1       -1 0.18592077E+00 0.31898572E+04</pdfrwt>
<totfact> 0.39980738E-01</totfact>
</mgrwt>
</event>
<event>
 6    1  0.4630212E-004  0.1442800E+04  0.7818608E-02  0.8923408E-01
         -2   -1    0    0    0  501 -0.00000000000E+00  0.00000000000E+00  0.19598387307E+03  0.19598387307E+03  0.00000000000E+00 0. -1.
          2   -1    0    0  501    0  0.00000000000E+00 -0.00000000000E+00 -0.26554111527E+04  0.26554111527E+04  0.00000000000E+00 0.  1.
         23    2    1    2    0    0  0.23369877949E+03 -0.35180531520E+03 -0.23833975709E+04  0.24222533056E+04  0.91350950264E+02 0.  0.
         13    1    3    3    0    0  0.16235100636E+03 -0.21668769681E+03 -0.17413368134E+04  0.17622614179E+04  0.00000000000E+00 0. -1.
        -13    1    3    3    0    0  0.71347773122E+02 -0.13511761839E+03 -0.64206075755E+03  0.65999188777E+03  0.00000000000E+00 0.  1.
         22    1    1    2    0    0 -0.23369877949E+03  0.35180531520E+03 -0.76029708660E+02  0.42914172011E+03  0.00000000000E+00 0. -1.
<mgrwt>
<rscale>  0 0.14427997E+04</rscale>
<asrwt>0</asrwt>
<pdfrwt beam="1">  1        2 0.40852476E+00 0.14427997E+04</pdfrwt>
<pdfrwt beam="2">  1       -2 0.30151367E-01 0.14427997E+04</pdfrwt>
<totfact> 0.27949368E+01</totfact>
</mgrwt>
</event>
<event>
 6    1  0.6277537E-004  0.3197157E+04  0.7818608E-02  0.8189568E-01
          2   -1    0    0  501    0  0.00000000000E+00  0.00000000000E+00  0.30359526391E+04  0.30359526391E+04  0.00000000000E+00 0.  1.
         -2   -1    0    0    0  501 -0.00000000000E+00 -0.00000000000E+00 -0.84173041134E+03  0.84173041134E+03  0.00000000000E+00 0. -1.
         23    2    1    2    0    0 -0.14001230607E+04  0.20340475341E+03  0.19942202752E+03  0.14320857987E+04  0.96863362927E+02 0.  0.
         13    1    3    3    0    0 -0.82047450849E+03  0.82018298443E+02  0.85253858029E+02  0.82895937215E+03  0.00000000000E+00 0. -1.
        -13    1    3    3    0    0 -0.57964855218E+03  0.12138645497E+03  0.11416816949E+03  0.60312642656E+03  0.00000000000E+00 0.  1.
         22    1    1    2    0    0  0.14001230607E+04 -0.20340475341E+03  0.19948002002E+04  0.24455972517E+04  0.00000000000E+00 0.  1.
<mgrwt>
<rscale>  0 0.31971573E+04</rscale>
<asrwt>0</asrwt>
<pdfrwt beam="1">  1        2 0.46706963E+00 0.31971573E+04</pdfrwt>
<pdfrwt beam="2">  1       -2 0.12949699E+00 0.31971573E+04</pdfrwt>
<totfact> 0.61006846E-01</totfact>
</mgrwt>
</event>
<event>
 6    1  0.4630212E-004  0.2148674E+04  0.7818608E-02  0.8540100E-01
          2   -1    0    0  501    0  0.00000000000E+00  0.00000000000E+00  0.31328368628E+04  0.31328368628E+04  0.00000000000E+00 0.  1.
         -2   -1    0    0    0  501 -0.00000000000E+00 -0.00000000000E+00 -0.36842004176E+03  0.36842004176E+03  0.00000000000E+00 0. -1.
         23    2    1    2    0    0 -0.88695829710E+03  0.14046378859E+03  0.23395418532E+04  0.25078064352E+04  0.95978835543E+02 0.  0.
         13    1    3    3    0    0 -0.18093235916E+03  0.67189599764E+02  0.47395742257E+03  0.51174857041E+03  0.00000000000E+00 0. -1.
        -13    1    3    3    0    0 -0.70602593795E+03  0.73274188825E+02  0.18655844307E+04  0.19960578648E+04  0.00000000000E+00 0.  1.
         22    1    1    2    0    0  0.88695829710E+03 -0.14046378859E+03  0.42487496777E+03  0.99345046929E+03  0.00000000000E+00 0. -1.
<mgrwt>
<rscale>  0 0.21486739E+04</rscale>
<asrwt>0</asrwt>
<pdfrwt beam="1">  1        2 0.48197488E+00 0.21486739E+04</pdfrwt>
<pdfrwt beam="2">  1       -2 0.56680008E-01 0.21486739E+04</pdfrwt>
<totfact> 0.38497865E+00</totfact>
</mgrwt>
</event>
<event>
 6    1  0.4630212E-004  0.2402228E+04  0.7818608E-02  0.8438670E-01
          2   -1    0    0  501    0  0.00000000000E+00  0.00000000000E+00  0.10680939992E+04  0.10680939992E+04  0.00000000000E+00 0.  1.
         -2   -1    0    0    0  501 -0.00000000000E+00 -0.00000000000E+00 -0.13507000617E+04  0.13507000617E+04  0.00000000000E+00 0. -1.
         23    2    1    2    0    0  0.67515742381E+03  0.32953631346E+03  0.79982641938E+03  0.11011856948E+04  0.91955991844E+02 0.  0.
         11    1    3    3    0    0  0.25452949586E+03  0.16052209665E+03  0.36484972284E+03  0.47293543749E+03  0.00000000000E+00 0. -1.
        -11    1    3    3    0    0  0.42062792795E+03  0.16901421681E+03  0.43497669654E+03  0.62825025729E+03  0.00000000000E+00 0.  1.
         22    1    1    2    0    0 -0.67515742381E+03 -0.32953631346E+03 -0.10824324818E+04  0.13176083661E+04  0.00000000000E+00 0. -1.
<mgrwt>
<rscale>  0 0.24022278E+04</rscale>
<asrwt>0</asrwt>
<pdfrwt beam="1">  1        2 0.16432215E+00 0.24022278E+04</pdfrwt>
<pdfrwt beam="2">  1       -2 0.20780001E+00 0.24022278E+04</pdfrwt>
<totfact> 0.24253217E+00</totfact>
</mgrwt>
</event>
<event>
 6    1  0.4630212E-004  0.1430694E+04  0.7818608E-02  0.8931896E-01
          2   -1    0    0  501    0  0.00000000000E+00  0.00000000000E+00  0.15230781038E+04  0.15230781038E+04  0.00000000000E+00 0.  1.
         -2   -1    0    0    0  501 -0.00000000000E+00 -0.00000000000E+00 -0.33597836523E+03  0.33597836523E+03  0.00000000000E+00 0. -1.
         23    2    1    2    0    0  0.50437433108E+03 -0.44670027583E+03  0.89672474118E+03  0.11253997091E+04  0.92057816551E+02 0.  0.
         11    1    3    3    0    0  0.34007028301E+03 -0.26206564797E+03  0.62294238337E+03  0.75656025155E+03  0.00000000000E+00 0.  1.
        -11    1    3    3    0    0  0.16430404807E+03 -0.18463462786E+03  0.27378235780E+03  0.36883945757E+03  0.00000000000E+00 0. -1.
         22    1    1    2    0    0 -0.50437433108E+03  0.44670027583E+03  0.29037499745E+03  0.73365675995E+03  0.00000000000E+00 0. -1.
<mgrwt>
<rscale>  0 0.14306939E+04</rscale>
<asrwt>0</asrwt>
<pdfrwt beam="1">  1        2 0.23431970E+00 0.14306939E+04</pdfrwt>
<pdfrwt beam="2">  1       -2 0.51688980E-01 0.14306939E+04</pdfrwt>
<totfact> 0.42283195E+01</totfact>
</mgrwt>
</event>
<event>
 6    1  0.4630212E-004  0.3076806E+04  0.7818608E-02  0.8222132E-01
         -2   -1    0    0    0  501 -0.00000000000E+00  0.00000000000E+00  0.18129766688E+04  0.18129766688E+04  0.00000000000E+00 0. -1.
          2   -1    0    0  501    0  0.00000000000E+00 -0.00000000000E+00 -0.13054134906E+04  0.13054134906E+04  0.00000000000E+00 0.  1.
         23    2    1    2    0    0 -0.10059106103E+04 -0.19194312907E+03  0.14156324652E+04  0.17497089874E+04  0.93637295843E+02 0.  0.
         13    1    3    3    0    0 -0.57321641101E+03 -0.62963781042E+02  0.80922666595E+03  0.99367463913E+03  0.00000000000E+00 0. -1.
        -13    1    3    3    0    0 -0.43269419930E+03 -0.12897934803E+03  0.60640579925E+03  0.75603434822E+03  0.00000000000E+00 0.  1.
         22    1    1    2    0    0  0.10059106103E+04  0.19194312907E+03 -0.90806928702E+03  0.13686811721E+04  0.00000000000E+00 0.  1.
<mgrwt>
<rscale>  0 0.30768063E+04</rscale>
<asrwt>0</asrwt>
<pdfrwt beam="1">  1        2 0.20083285E+00 0.30768063E+04</pdfrwt>
<pdfrwt beam="2">  1       -2 0.27891949E+00 0.30768063E+04</pdfrwt>
<totfact> 0.59687118E-01</totfact>
</mgrwt>
</event>
<event>
 6    1  0.4630212E-004  0.1467279E+04  0.7818608E-02  0.8906508E-01
          2   -1    0    0  501    0  0.00000000000E+00  0.00000000000E+00  0.38112441068E+04  0.38112441068E+04  0.00000000000E+00 0.  1.
         -2   -1    0    0    0  501 -0.00000000000E+00 -0.00000000000E+00 -0.14122086221E+03  0.14122086221E+03  0.00000000000E+00 0. -1.
         23    2    1    2    0    0 -0.37146697756E+03 -0.50054954447E+03  0.81583143886E+03  0.10310015642E+04  0.94051724236E+02 0.  0.
         11    1    3    3    0    0 -0.10868417652E+03 -0.22317555398E+03  0.32841134867E+03  0.41167170422E+03  0.00000000000E+00 0.  1.
        -11    1    3    3    0    0 -0.26278280104E+03 -0.27737399049E+03  0.48742009019E+03  0.61932985997E+03  0.00000000000E+00 0. -1.
         22    1    1    2    0    0  0.37146697756E+03  0.50054954447E+03  0.28541918058E+04  0.29214634049E+04  0.00000000000E+00 0.  1.
<mgrwt>
<rscale>  0 0.14672794E+04</rscale>
<asrwt>0</asrwt>
<pdfrwt beam="1">  1        2 0.58634517E+00 0.14672794E+04</pdfrwt>
<pdfrwt beam="2">  1       -2 0.21726289E-01 0.14672794E+04</pdfrwt>
<totfact> 0.87934870E+00</totfact>
</mgrwt>
</event>
<event>
 6    1  0.4630212E-004  0.2620576E+04  0.7818608E-02  0.8361245E-01
         -2   -1    0    0    0  501 -0.00000000000E+00  0.00000000000E+00  0.61532087688E+03  0.61532087688E+03  0.00000000000E+00 0. -1.
          2   -1    0    0  501    0  0.00000000000E+00 -0.00000000000E+00 -0.27901774705E+04  0.27901774705E+04  0.00000000000E+00 0.  1.
         23    2    1    2    0    0  0.54154438899E+03  0.11817210859E+04 -0.89212912715E+03  0.15792659407E+04  0.91931941014E+02 0.  0.
         13    1    3    3    0    0  0.15847990527E+03  0.45220551650E+03 -0.32783426721E+03  0.58058678618E+03  0.00000000000E+00 0. -1.
        -13    1    3    3    0    0  0.38306448371E+03  0.72951556938E+03 -0.56429485994E+03  0.99867915449E+03  0.00000000000E+00 0.  1.
         22    1    1    2    0    0 -0.54154438899E+03 -0.11817210859E+04 -0.12827274665E+04  0.18262324067E+04  0.00000000000E+00 0.  1.
<mgrwt>
<rscale>  0 0.26205759E+04</rscale>
<asrwt>0</asrwt>
<pdfrwt beam="1">  1        2 0.42925807E+00 0.26205759E+04</pdfrwt>
<pdfrwt beam="2">  1       -2 0.94664752E-01 0.26205759E+04</pdfrwt>
<totfact> 0.19449534E+00</totfact>
</mgrwt>
</event>
<event>
 6    1  0.4630212E-004  0.2007740E+04  0.7818608E-02  0.8603011E-01
          2   -1    0    0  501    0  0.00000000000E+00  0.00000000000E+00  0.27695659049E+04  0.27695659049E+04  0.00000000000E+00 0.  1.
         -2   -1    0    0    0  501 -0.00000000000E+00 -0.00000000000E+00 -0.36386734311E+03  0.36386734311E+03  0.00000000000E+00 0. -1.
         23    2    1    2    0    0 -0.13758659552E+03  0.35378961061E+02  0.27530201418E+04  0.27581813032E+04  0.90898063838E+02 0.  0.
         13    1    3    3    0    0 -0.90588604816E+02 -0.13213805510E+02  0.20127295370E+04  0.20148104350E+04  0.00000000000E+00 0. -1.
        -13    1    3    3    0    0 -0.46997990702E+02  0.48592766571E+02  0.74029060479E+03  0.74337086816E+03  0.00000000000E+00 0.  1.
         22    1    1    2    0    0  0.13758659552E+03 -0.35378961061E+02 -0.34732158000E+03  0.37525194482E+03  0.00000000000E+00 0. -1.
<mgrwt>
<rscale>  0 0.20077396E+04</rscale>
<asrwt>0</asrwt>
<pdfrwt beam="1">  1        2 0.42608705E+00 0.20077396E+04</pdfrwt>
<pdfrwt beam="2">  1       -2 0.55979593E-01 0.20077396E+04</pdfrwt>
<totfact> 0.67211102E+00</totfact>
</mgrwt>
</event>
<event>
 6    1  0.4630212E-004  0.3472617E+04  0.7818608E-02  0.8120310E-01
         -2   -1    0    0    0  501 -0.00000000000E+00  0.00000000000E+00  0.10308340269E+04  0.10308340269E+04  0.00000000000E+00 0. -1.
          2   -1    0    0  501    0  0.00000000000E+00 -0.00000000000E+00 -0.29245909594E+04  0.29245909594E+04  0.00000000000E+00 0.  1.
         23    2    1    2    0    0  0.55639599908E+03  0.51999823738E+03  0.82804972426E+03  0.11290835081E+04  0.95856912460E+02 0.  0.
         11    1    3    3    0    0  0.12026196583E+03  0.65740151172E+02  0.16805376634E+03  0.21685657999E+03  0.00000000000E+00 0. -1.
        -11    1    3    3    0    0  0.43613403325E+03  0.45425808621E+03  0.65999595791E+03  0.91222692808E+03  0.00000000000E+00 0.  1.
         22    1    1    2    0    0 -0.55639599908E+03 -0.51999823738E+03 -0.27218066568E+04  0.28263414782E+04  0.00000000000E+00 0.  1.
<mgrwt>
<rscale>  0 0.34726174E+04</rscale>
<asrwt>0</asrwt>
<pdfrwt beam="1">  1        2 0.44993707E+00 0.34726174E+04</pdfrwt>
<pdfrwt beam="2">  1       -2 0.15858985E+00 0.34726174E+04</pdfrwt>
<totfact> 0.41201921E-01</totfact>
</mgrwt>
</event>
<event>
 6    1  0.4630212E-004  0.1794198E+04  0.7818608E-02  0.8709391E-01
          2   -1    0    0  501    0  0.00000000000E+00  0.00000000000E+00  0.14287310504E+04  0.14287310504E+04  0.00000000000E+00 0.  1.
         -2   -1    0    0    0  501 -0.00000000000E+00 -0.00000000000E+00 -0.56328784335E+03  0.56328784335E+03  0.00000000000E+00 0. -1.
         23    2    1    2    0    0  0.13293050415E+03  0.69653651405E+03  0.10397141875E+04  0.12618106981E+04  0.91252462260E+02 0.  0.
         13    1    3    3    0    0  0.14684574097E+03  0.62206685164E+03  0.93318932090E+03  0.11310937840E+04  0.00000000000E+00 0. -1.
        -13    1    3    3    0    0 -0.13915236812E+02  0.74469662409E+02  0.10652486658E+03  0.13071691411E+03  0.00000000000E+00 0.  1.
         22    1    1    2    0    0 -0.13293050415E+03 -0.69653651405E+03 -0.17427098045E+03  0.73020819563E+03  0.00000000000E+00 0. -1.
<mgrwt>
<rscale>  0 0.17941982E+04</rscale>
<asrwt>0</asrwt>
<pdfrwt beam="1">  1        2 0.21980478E+00 0.17941982E+04</pdfrwt>
<pdfrwt beam="2">  1       -2 0.86659669E-01 0.17941982E+04</pdfrwt>
<totfact> 0.15172473E+01</totfact>
</mgrwt>
</event>
<event>
 6    1  0.4630212E-004  0.1988276E+04  0.7818608E-02  0.8612122E-01
          1   -1    0    0  501    0  0.00000000000E+00  0.00000000000E+00  0.83645716701E+03  0.83645716701E+03  0.00000000000E+00 0.  1.
         -1   -1    0    0    0  501 -0.00000000000E+00 -0.00000000000E+00 -0.11815430040E+04  0.11815430040E+04  0.00000000000E+00 0. -1.
         23    2    1    2    0    0 -0.71218254420E+03  0.11097333307E+03 -0.86475621828E+03  0.11294190762E+04  0.90912461228E+02 0.  0.
         11    1    3    3    0    0 -0.38240977017E+03  0.71620381004E+02 -0.39804030904E+03  0.55659931631E+03  0.00000000000E+00 0. -1.
        -11    1    3    3    0    0 -0.32977277404E+03  0.39352952065E+02 -0.46671590924E+03  0.57281975984E+03  0.00000000000E+00 0.  1.
         22    1    1    2    0    0  0.71218254420E+03 -0.11097333307E+03  0.51967038130E+03  0.88858109485E+03  0.00000000000E+00 0.  1.
<mgrwt>
<rscale>  0 0.19882757E+04</rscale>
<asrwt>0</asrwt>
<pdfrwt beam="1">  1        1 0.12868572E+00 0.19882757E+04</pdfrwt>
<pdfrwt beam="2">  1       -1 0.18177585E+00 0.19882757E+04</pdfrwt>
<totfact> 0.38590351E+00</totfact>
</mgrwt>
</event>
<event>
 6    1  0.4630212E-004  0.1747675E+04  0.7818608E-02  0.8734631E-01
          2   -1    0    0  501    0  0.00000000000E+00  0.00000000000E+00  0.24393768485E+03  0.24393768485E+03  0.00000000000E+00 0.  1.
         -2   -1    0    0    0  501 -0.00000000000E+00 -0.00000000000E+00 -0.31302750267E+04  0.31302750267E+04  0.00000000000E+00 0. -1.
         23    2    1    2    0    0  0.70548265990E+03  0.50993383051E+03 -0.13670501817E+04  0.16232210582E+04  0.91006097223E+02 0.  0.
         13    1    3    3    0    0  0.42259373166E+03  0.35874767881E+03 -0.85201295969E+03  0.10164700894E+04  0.00000000000E+00 0. -1.
        -13    1    3    3    0    0  0.28288892824E+03  0.15118615171E+03 -0.51503722200E+03  0.60675096887E+03  0.00000000000E+00 0.  1.
         22    1    1    2    0    0 -0.70548265990E+03 -0.50993383051E+03 -0.15192871602E+04  0.17509916533E+04  0.00000000000E+00 0.  1.
<mgrwt>
<rscale>  0 0.17476751E+04</rscale>
<asrwt>0</asrwt>
<pdfrwt beam="1">  1        2 0.37528878E-01 0.17476751E+04</pdfrwt>
<pdfrwt beam="2">  1       -2 0.48158073E+00 0.17476751E+04</pdfrwt>
<totfact> 0.28329295E-01</totfact>
</mgrwt>
</event>
<event>
 6    1  0.4630212E-004  0.8633768E+03  0.7818608E-02  0.9472557E-01
          2   -1    0    0  501    0  0.00000000000E+00  0.00000000000E+00  0.43892413799E+03  0.43892413799E+03  0.00000000000E+00 0.  1.
         -2   -1    0    0    0  501 -0.00000000000E+00 -0.00000000000E+00 -0.42457199136E+03  0.42457199136E+03  0.00000000000E+00 0. -1.
         23    2    1    2    0    0 -0.14969666935E+03 -0.29936675783E+03  0.27203789939E+03  0.44108460527E+03  0.92311764116E+02 0.  0.
         13    1    3    3    0    0 -0.97776052419E+02 -0.24884923297E+03  0.17329179497E+03  0.31861598105E+03  0.00000000000E+00 0.  1.
        -13    1    3    3    0    0 -0.51920616929E+02 -0.50517524858E+02  0.98746104419E+02  0.12246862422E+03  0.00000000000E+00 0. -1.
         22    1    1    2    0    0  0.14969666935E+03  0.29936675783E+03 -0.25768575275E+03  0.42241152408E+03  0.00000000000E+00 0. -1.
<mgrwt>
<rscale>  0 0.86337685E+03</rscale>
<asrwt>0</asrwt>
<pdfrwt beam="1">  1        2 0.67526791E-01 0.86337685E+03</pdfrwt>
<pdfrwt beam="2">  1       -2 0.65318768E-01 0.86337685E+03</pdfrwt>
<totfact> 0.15544356E+02</totfact>
</mgrwt>
</event>
<event>
 6    1  0.4630212E-004  0.1162303E+04  0.7818608E-02  0.9146508E-01
         -2   -1    0    0    0  501 -0.00000000000E+00  0.00000000000E+00  0.25117752040E+03  0.25117752040E+03  0.00000000000E+00 0. -1.
          2   -1    0    0  501    0  0.00000000000E+00 -0.00000000000E+00 -0.13446159020E+04  0.13446159020E+04  0.00000000000E+00 0.  1.
         23    2    1    2    0    0  0.82666282015E+02 -0.54710465708E+03 -0.32247175994E+03  0.64682200465E+03  0.90738358808E+02 0.  0.
         13    1    3    3    0    0  0.89211278417E+02 -0.44543021735E+03 -0.22978456756E+03  0.50908513847E+03  0.00000000000E+00 0. -1.
        -13    1    3    3    0    0 -0.65449964022E+01 -0.10167443973E+03 -0.92687192388E+02  0.13773686618E+03  0.00000000000E+00 0.  1.
         22    1    1    2    0    0 -0.82666282015E+02  0.54710465708E+03 -0.77096662161E+03  0.94897141770E+03  0.00000000000E+00 0. -1.
<mgrwt>
<rscale>  0 0.11623034E+04</rscale>
<asrwt>0</asrwt>
<pdfrwt beam="1">  1        2 0.20686398E+00 0.11623034E+04</pdfrwt>
<pdfrwt beam="2">  1       -2 0.38642696E-01 0.11623034E+04</pdfrwt>
<totfact> 0.97389917E+01</totfact>
</mgrwt>
</event>
<event>
 6    1  0.4630212E-004  0.2804423E+04  0.7818608E-02  0.8301896E-01
         -2   -1    0    0    0  501 -0.00000000000E+00  0.00000000000E+00  0.22724666429E+04  0.22724666429E+04  0.00000000000E+00 0. -1.
          2   -1    0    0  501    0  0.00000000000E+00 -0.00000000000E+00 -0.86522599891E+03  0.86522599891E+03  0.00000000000E+00 0.  1.
         23    2    1    2    0    0 -0.65809384017E+02 -0.13952933447E+04  0.82045774233E+03  0.16226056587E+04  0.92324557096E+02 0.  0.
         11    1    3    3    0    0 -0.14046887817E+02 -0.64107399979E+03  0.32673850361E+03  0.71967439722E+03  0.00000000000E+00 0.  1.
        -11    1    3    3    0    0 -0.51762496200E+02 -0.75421934489E+03  0.49371923872E+03  0.90293126145E+03  0.00000000000E+00 0. -1.
         22    1    1    2    0    0  0.65809384017E+02  0.13952933447E+04  0.58678290161E+03  0.15150869831E+04  0.00000000000E+00 0.  1.
<mgrwt>
<rscale>  0 0.28044231E+04</rscale>
<asrwt>0</asrwt>
<pdfrwt beam="1">  1        2 0.13311169E+00 0.28044231E+04</pdfrwt>
<pdfrwt beam="2">  1       -2 0.34961025E+00 0.28044231E+04</pdfrwt>
<totfact> 0.42153639E-01</totfact>
</mgrwt>
</event>
<event>
 6    1  0.4630212E-004  0.2334720E+04  0.7818608E-02  0.8464356E-01
          2   -1    0    0  501    0  0.00000000000E+00  0.00000000000E+00  0.39126067121E+04  0.39126067121E+04  0.00000000000E+00 0.  1.
         -2   -1    0    0    0  501 -0.00000000000E+00 -0.00000000000E+00 -0.34829201331E+03  0.34829201331E+03  0.00000000000E+00 0. -1.
         23    2    1    2    0    0  0.96436972786E+03  0.34436340502E+02  0.29781431684E+04  0.31318318998E+04  0.88540859439E+02 0.  0.
         11    1    3    3    0    0  0.31579380418E+03 -0.25374224489E+02  0.91224603749E+03  0.96569271042E+03  0.00000000000E+00 0. -1.
        -11    1    3    3    0    0  0.64857592368E+03  0.59810564991E+02  0.20658971309E+04  0.21661391894E+04  0.00000000000E+00 0.  1.
         22    1    1    2    0    0 -0.96436972786E+03 -0.34436340502E+02  0.58617153039E+03  0.11290668256E+04  0.00000000000E+00 0. -1.
<mgrwt>
<rscale>  0 0.23347203E+04</rscale>
<asrwt>0</asrwt>
<pdfrwt beam="1">  1        2 0.60193946E+00 0.23347203E+04</pdfrwt>
<pdfrwt beam="2">  1       -2 0.53583389E-01 0.23347203E+04</pdfrwt>
<totfact> 0.11978946E+00</totfact>
</mgrwt>
</event>
<event>
 6    1  0.4630212E-004  0.3162397E+04  0.7818608E-02  0.8198819E-01
          2   -1    0    0  501    0  0.00000000000E+00  0.00000000000E+00  0.19021576089E+04  0.19021576089E+04  0.00000000000E+00 0.  1.
         -2   -1    0    0    0  501 -0.00000000000E+00 -0.00000000000E+00 -0.13143962424E+04  0.13143962424E+04  0.00000000000E+00 0. -1.
         23    2    1    2    0    0  0.20193178108E+03  0.12111368975E+04  0.13044947687E+04  0.17948169563E+04  0.10969173238E+03 0.  0.
         11    1    3    3    0    0  0.11265567982E+03  0.51891262129E+03  0.63382549855E+03  0.82685934315E+03  0.00000000000E+00 0.  1.
        -11    1    3    3    0    0  0.89276101259E+02  0.69222427624E+03  0.67066927014E+03  0.96795761311E+03  0.00000000000E+00 0. -1.
         22    1    1    2    0    0 -0.20193178108E+03 -0.12111368975E+04 -0.71673340218E+03  0.14217368950E+04  0.00000000000E+00 0. -1.
<mgrwt>
<rscale>  0 0.31623971E+04</rscale>
<asrwt>0</asrwt>
<pdfrwt beam="1">  1        2 0.29263963E+00 0.31623971E+04</pdfrwt>
<pdfrwt beam="2">  1       -2 0.20221481E+00 0.31623971E+04</pdfrwt>
<totfact> 0.82281312E-01</totfact>
</mgrwt>
</event>
<event>
 6    1  0.4630212E-004  0.4287645E+04  0.7818608E-02  0.7948907E-01
          2   -1    0    0  501    0  0.00000000000E+00  0.00000000000E+00  0.22891829796E+04  0.22891829796E+04  0.00000000000E+00 0.  1.
         -2   -1    0    0    0  501 -0.00000000000E+00 -0.00000000000E+00 -0.20076923966E+04  0.20076923966E+04  0.00000000000E+00 0. -1.
         23    2    1    2    0    0  0.10128514837E+04  0.18446378645E+04 -0.26405132002E+03  0.21228990776E+04  0.91762818898E+02 0.  0.
         13    1    3    3    0    0  0.47343057549E+03  0.80323555795E+03 -0.15290163689E+03  0.94482949886E+03  0.00000000000E+00 0. -1.
        -13    1    3    3    0    0  0.53942090819E+03  0.10414023065E+04 -0.11114968313E+03  0.11780695787E+04  0.00000000000E+00 0.  1.
         22    1    1    2    0    0 -0.10128514837E+04 -0.18446378645E+04  0.54554190296E+03  0.21739762986E+04  0.00000000000E+00 0.  1.
<mgrwt>
<rscale>  0 0.42876452E+04</rscale>
<asrwt>0</asrwt>
<pdfrwt beam="1">  1        2 0.35218200E+00 0.42876452E+04</pdfrwt>
<pdfrwt beam="2">  1       -2 0.30887575E+00 0.42876452E+04</pdfrwt>
<totfact> 0.99375402E-02</totfact>
</mgrwt>
</event>
<event>
 6    1  0.4630212E-004  0.3016923E+04  0.7818608E-02  0.8238915E-01
          2   -1    0    0  501    0  0.00000000000E+00  0.00000000000E+00  0.14417539482E+04  0.14417539482E+04  0.00000000000E+00 0.  1.
         -2   -1    0    0    0  501 -0.00000000000E+00 -0.00000000000E+00 -0.15782557108E+04  0.15782557108E+04  0.00000000000E+00 0. -1.
         23    2    1    2    0    0  0.74601561945E+03  0.15610587414E+03 -0.13698218013E+04  0.15701866814E+04  0.90366469658E+02 0.  0.
         13    1    3    3    0    0  0.43641086892E+03  0.10322548781E+03 -0.71620868071E+03  0.84502356308E+03  0.00000000000E+00 0. -1.
        -13    1    3    3    0    0  0.30960475053E+03  0.52880386327E+02 -0.65361312058E+03  0.72516311834E+03  0.00000000000E+00 0.  1.
         22    1    1    2    0    0 -0.74601561945E+03 -0.15610587414E+03  0.12333200388E+04  0.14498229776E+04  0.00000000000E+00 0.  1.
<mgrwt>
<rscale>  0 0.30169232E+04</rscale>
<asrwt>0</asrwt>
<pdfrwt beam="1">  1        2 0.22180830E+00 0.30169232E+04</pdfrwt>
<pdfrwt beam="2">  1       -2 0.24280857E+00 0.30169232E+04</pdfrwt>
<totfact> 0.83334443E-01</totfact>
</mgrwt>
</event>
<event>
 6    1  0.4630212E-004  0.3941523E+04  0.7818608E-02  0.8016448E-01
         -2   -1    0    0    0  501 -0.00000000000E+00  0.00000000000E+00  0.11539244428E+04  0.11539244428E+04  0.00000000000E+00 0. -1.
          2   -1    0    0  501    0  0.00000000000E+00 -0.00000000000E+00 -0.33658184666E+04  0.33658184666E+04  0.00000000000E+00 0.  1.
         23    2    1    2    0    0 -0.78188949276E+03 -0.17912402471E+04 -0.13873966856E+04  0.23984959502E+04  0.89557009628E+02 0.  0.
         11    1    3    3    0    0 -0.63070313467E+03 -0.15134875383E+04 -0.11851518104E+04  0.20231203094E+04  0.00000000000E+00 0.  1.
        -11    1    3    3    0    0 -0.15118635809E+03 -0.27775270877E+03 -0.20224487527E+03  0.37537564076E+03  0.00000000000E+00 0. -1.
         22    1    1    2    0    0  0.78188949276E+03  0.17912402471E+04 -0.82449733811E+03  0.21212469593E+04  0.00000000000E+00 0. -1.
<mgrwt>
<rscale>  0 0.39415226E+04</rscale>
<asrwt>0</asrwt>
<pdfrwt beam="1">  1        2 0.51781822E+00 0.39415226E+04</pdfrwt>
<pdfrwt beam="2">  1       -2 0.17752684E+00 0.39415226E+04</pdfrwt>
<totfact> 0.15018075E-01</totfact>
</mgrwt>
</event>
<event>
 6    1  0.4630212E-004  0.1614095E+04  0.7818608E-02  0.8811935E-01
          2   -1    0    0  501    0  0.00000000000E+00  0.00000000000E+00  0.25165226639E+04  0.25165226639E+04  0.00000000000E+00 0.  1.
         -2   -1    0    0    0  501 -0.00000000000E+00 -0.00000000000E+00 -0.25881971598E+03  0.25881971598E+03  0.00000000000E+00 0. -1.
         23    2    1    2    0    0 -0.22858738265E+03 -0.62596968276E+03  0.35769037954E+03  0.76185336942E+03  0.91585553685E+02 0.  0.
         13    1    3    3    0    0 -0.18974443004E+03 -0.48046735896E+03  0.23460468747E+03  0.56735455506E+03  0.00000000000E+00 0.  1.
        -13    1    3    3    0    0 -0.38842952614E+02 -0.14550232379E+03  0.12308569207E+03  0.19449881437E+03  0.00000000000E+00 0. -1.
         22    1    1    2    0    0  0.22858738265E+03  0.62596968276E+03  0.19000125684E+04  0.20134890105E+04  0.00000000000E+00 0.  1.
<mgrwt>
<rscale>  0 0.16140950E+04</rscale>
<asrwt>0</asrwt>
<pdfrwt beam="1">  1        2 0.38715731E+00 0.16140950E+04</pdfrwt>
<pdfrwt beam="2">  1       -2 0.39818420E-01 0.16140950E+04</pdfrwt>
<totfact> 0.19505557E+01</totfact>
</mgrwt>
</event>
<event>
 6    1  0.4630212E-004  0.3777844E+04  0.7818608E-02  0.8050926E-01
          2   -1    0    0  501    0  0.00000000000E+00  0.00000000000E+00  0.18783149631E+04  0.18783149631E+04  0.00000000000E+00 0.  1.
         -2   -1    0    0    0  501 -0.00000000000E+00 -0.00000000000E+00 -0.18995891387E+04  0.18995891387E+04  0.00000000000E+00 0. -1.
         23    2    1    2    0    0  0.82837246814E+03  0.11550487522E+03  0.16821680996E+04  0.18802060470E+04  0.77090477919E+02 0.  0.
         13    1    3    3    0    0  0.21057653957E+03  0.89810525937E+00  0.46338055971E+03  0.50898411442E+03  0.00000000000E+00 0.  1.
        -13    1    3    3    0    0  0.61779592856E+03  0.11460676996E+03  0.12187875399E+04  0.13712219326E+04  0.00000000000E+00 0. -1.
         22    1    1    2    0    0 -0.82837246814E+03 -0.11550487522E+03 -0.17034422751E+04  0.18976980547E+04  0.00000000000E+00 0. -1.
<mgrwt>
<rscale>  0 0.37778442E+04</rscale>
<asrwt>0</asrwt>
<pdfrwt beam="1">  1        2 0.28897153E+00 0.37778442E+04</pdfrwt>
<pdfrwt beam="2">  1       -2 0.29224449E+00 0.37778442E+04</pdfrwt>
<totfact> 0.22232333E-01</totfact>
</mgrwt>
</event>
<event>
 6    1  0.4630212E-004  0.8511124E+03  0.7818608E-02  0.9488845E-01
         -2   -1    0    0    0  501 -0.00000000000E+00  0.00000000000E+00  0.33168690712E+03  0.33168690712E+03  0.00000000000E+00 0. -1.
          2   -1    0    0  501    0  0.00000000000E+00 -0.00000000000E+00 -0.54599106376E+03  0.54599106376E+03  0.00000000000E+00 0.  1.
         23    2    1    2    0    0 -0.16587842162E+03  0.36227340014E+03 -0.25042749625E+03  0.47759977494E+03  0.81424486100E+02 0.  0.
         13    1    3    3    0    0 -0.13398553235E+03  0.30021204931E+03 -0.24002495665E+03  0.40705205717E+03  0.00000000000E+00 0. -1.
        -13    1    3    3    0    0 -0.31892889266E+02  0.62061350831E+02 -0.10402539601E+02  0.70547717772E+02  0.00000000000E+00 0.  1.
         22    1    1    2    0    0  0.16587842162E+03 -0.36227340014E+03  0.36123339606E+02  0.40007819594E+03  0.00000000000E+00 0. -1.
<mgrwt>
<rscale>  0 0.85111242E+03</rscale>
<asrwt>0</asrwt>
<pdfrwt beam="1">  1        2 0.83998624E-01 0.85111242E+03</pdfrwt>
<pdfrwt beam="2">  1       -2 0.51028755E-01 0.85111242E+03</pdfrwt>
<totfact> 0.20265366E+02</totfact>
</mgrwt>
</event>
<event>
 6    1  0.4630212E-004  0.1167126E+04  0.7818608E-02  0.9142128E-01
         -2   -1    0    0    0  501 -0.00000000000E+00  0.00000000000E+00  0.54673478913E+03  0.54673478913E+03  0.00000000000E+00 0. -1.
          2   -1    0    0  501    0  0.00000000000E+00 -0.00000000000E+00 -0.62287239475E+03  0.62287239475E+03  0.00000000000E+00 0.  1.
         23    2    1    2    0    0 -0.32794731173E+03 -0.33635089888E+03  0.30261979371E+03  0.56616826070E+03  0.91029629441E+02 0.  0.
         11    1    3    3    0    0 -0.31297295765E+03 -0.28962763669E+03  0.28940471841E+03  0.51535553862E+03  0.00000000000E+00 0.  1.
        -11    1    3    3    0    0 -0.14974354085E+02 -0.46723262194E+02  0.13215075297E+02  0.50812722082E+02  0.00000000000E+00 0. -1.
         22    1    1    2    0    0  0.32794731173E+03  0.33635089888E+03 -0.37875739933E+03  0.60343892317E+03  0.00000000000E+00 0.  1.
<mgrwt>
<rscale>  0 0.11671264E+04</rscale>
<asrwt>0</asrwt>
<pdfrwt beam="1">  1        2 0.95826522E-01 0.11671264E+04</pdfrwt>
<pdfrwt beam="2">  1       -2 0.84113045E-01 0.11671264E+04</pdfrwt>
<totfact> 0.57852729E+01</totfact>
</mgrwt>
</event>
<event>
 6    1  0.4630212E-004  0.2772817E+04  0.7818608E-02  0.8311757E-01
          2   -1    0    0  501    0  0.00000000000E+00  0.00000000000E+00  0.11155333705E+04  0.11155333705E+04  0.00000000000E+00 0.  1.
         -2   -1    0    0    0  501 -0.00000000000E+00 -0.00000000000E+00 -0.17230584251E+04  0.17230584251E+04  0.00000000000E+00 0. -1.
         23    2    1    2    0    0  0.10182191432E+04 -0.38181860160E+03  0.57365671993E+03  0.12330557317E+04  0.93748264567E+02 0.  0.
         11    1    3    3    0    0  0.71595484846E+03 -0.31077661306E+03  0.39359393041E+03  0.87412220560E+03  0.00000000000E+00 0. -1.
        -11    1    3    3    0    0  0.30226429471E+03 -0.71041988544E+02  0.18006278951E+03  0.35893352611E+03  0.00000000000E+00 0.  1.
         22    1    1    2    0    0 -0.10182191432E+04  0.38181860160E+03 -0.11811817745E+04  0.16055360639E+04  0.00000000000E+00 0. -1.
<mgrwt>
<rscale>  0 0.27728175E+04</rscale>
<asrwt>0</asrwt>
<pdfrwt beam="1">  1        2 0.17162052E+00 0.27728175E+04</pdfrwt>
<pdfrwt beam="2">  1       -2 0.26508591E+00 0.27728175E+04</pdfrwt>
<totfact> 0.96524140E-01</totfact>
</mgrwt>
</event>
<event>
 6    1  0.4630996E-004  0.4007346E+04  0.7818608E-02  0.8003066E-01
          2   -1    0    0  501    0  0.00000000000E+00  0.00000000000E+00  0.15957264385E+04  0.15957264385E+04  0.00000000000E+00 0.  1.
         -2   -1    0    0    0  501 -0.00000000000E+00 -0.00000000000E+00 -0.25159102924E+04  0.25159102924E+04  0.00000000000E+00 0. -1.
         23    2    1    2    0    0 -0.13608604953E+04  0.71332863851E+03 -0.17790579857E+04  0.23513970290E+04  0.56935380210E+02 0.  0.
         11    1    3    3    0    0 -0.80510988630E+03  0.39867295609E+03 -0.10107615208E+04  0.13523242610E+04  0.00000000000E+00 0.  1.
        -11    1    3    3    0    0 -0.55575060897E+03  0.31465568242E+03 -0.76829646485E+03  0.99907276799E+03  0.00000000000E+00 0. -1.
         22    1    1    2    0    0  0.13608604953E+04 -0.71332863851E+03  0.85887413176E+03  0.17602397019E+04  0.00000000000E+00 0.  1.
<mgrwt>
<rscale>  0 0.40073455E+04</rscale>
<asrwt>0</asrwt>
<pdfrwt beam="1">  1        2 0.24549638E+00 0.40073455E+04</pdfrwt>
<pdfrwt beam="2">  1       -2 0.38706312E+00 0.40073455E+04</pdfrwt>
<totfact> 0.79639465E-02</totfact>
</mgrwt>
</event>
<event>
 6    1  0.4630212E-004  0.2833455E+04  0.7818608E-02  0.8292956E-01
         -2   -1    0    0    0  501 -0.00000000000E+00  0.00000000000E+00  0.96424057256E+03  0.96424057256E+03  0.00000000000E+00 0. -1.
          2   -1    0    0  501    0  0.00000000000E+00 -0.00000000000E+00 -0.20815523290E+04  0.20815523290E+04  0.00000000000E+00 0.  1.
         23    2    1    2    0    0 -0.13365019084E+04  0.34825830325E+03 -0.22745092521E+03  0.14028158793E+04  0.92936918650E+02 0.  0.
         11    1    3    3    0    0 -0.77210975867E+03  0.20939495922E+03 -0.17745851277E+03  0.81944569810E+03  0.00000000000E+00 0. -1.
        -11    1    3    3    0    0 -0.56439214971E+03  0.13886334403E+03 -0.49992412446E+02  0.58337018117E+03  0.00000000000E+00 0.  1.
         22    1    1    2    0    0  0.13365019084E+04 -0.34825830325E+03 -0.88986083127E+03  0.16429770223E+04  0.00000000000E+00 0.  1.
<mgrwt>
<rscale>  0 0.28334553E+04</rscale>
<asrwt>0</asrwt>
<pdfrwt beam="1">  1        2 0.32023881E+00 0.28334553E+04</pdfrwt>
<pdfrwt beam="2">  1       -2 0.14834471E+00 0.28334553E+04</pdfrwt>
<totfact> 0.16111681E+00</totfact>
</mgrwt>
</event>
<event>
 6    1  0.4630212E-004  0.1360862E+04  0.7818608E-02  0.8982646E-01
          2   -1    0    0  501    0  0.00000000000E+00  0.00000000000E+00  0.11221038082E+04  0.11221038082E+04  0.00000000000E+00 0.  1.
         -2   -1    0    0    0  501 -0.00000000000E+00 -0.00000000000E+00 -0.41260552499E+03  0.41260552499E+03  0.00000000000E+00 0. -1.
         23    2    1    2    0    0 -0.70995050396E+02  0.22957585526E+02  0.11166491483E+04  0.11207779683E+04  0.60585360694E+02 0.  0.
         11    1    3    3    0    0  0.13878966614E+01  0.23066538602E+02  0.32863208597E+03  0.32944352990E+03  0.00000000000E+00 0. -1.
        -11    1    3    3    0    0 -0.72382947058E+02 -0.10895307594E+00  0.78801706231E+03  0.79133443839E+03  0.00000000000E+00 0.  1.
         22    1    1    2    0    0  0.70995050396E+02 -0.22957585526E+02 -0.40715086508E+03  0.41393136490E+03  0.00000000000E+00 0. -1.
<mgrwt>
<rscale>  0 0.13608618E+04</rscale>
<asrwt>0</asrwt>
<pdfrwt beam="1">  1        2 0.17263135E+00 0.13608618E+04</pdfrwt>
<pdfrwt beam="2">  1       -2 0.63477774E-01 0.13608618E+04</pdfrwt>
<totfact> 0.47342796E+01</totfact>
</mgrwt>
</event>
<event>
 6    1  0.4630212E-004  0.2000224E+04  0.7818608E-02  0.8606516E-01
          2   -1    0    0  501    0  0.00000000000E+00  0.00000000000E+00  0.39673510656E+04  0.39673510656E+04  0.00000000000E+00 0.  1.
         -2   -1    0    0    0  501 -0.00000000000E+00 -0.00000000000E+00 -0.25211376547E+03  0.25211376547E+03  0.00000000000E+00 0. -1.
         23    2    1    2    0    0 -0.52531422624E+03 -0.81001309361E+03  0.13244924173E+04  0.16411441871E+04  0.83653041750E+02 0.  0.
         13    1    3    3    0    0 -0.16896331141E+03 -0.33302480481E+03  0.49354958621E+03  0.61890654809E+03  0.00000000000E+00 0.  1.
        -13    1    3    3    0    0 -0.35635091483E+03 -0.47698828880E+03  0.83094283106E+03  0.10222376390E+04  0.00000000000E+00 0. -1.
         22    1    1    2    0    0  0.52531422624E+03  0.81001309361E+03  0.23907448828E+04  0.25783206439E+04  0.00000000000E+00 0.  1.
<mgrwt>
<rscale>  0 0.20002238E+04</rscale>
<asrwt>0</asrwt>
<pdfrwt beam="1">  1        2 0.61036166E+00 0.20002238E+04</pdfrwt>
<pdfrwt beam="2">  1       -2 0.38786736E-01 0.20002238E+04</pdfrwt>
<totfact> 0.21429377E+00</totfact>
</mgrwt>
</event>
<event>
 6    1  0.4630212E-004  0.3805521E+04  0.7818608E-02  0.8044971E-01
          2   -1    0    0  501    0  0.00000000000E+00  0.00000000000E+00  0.20712623342E+04  0.20712623342E+04  0.00000000000E+00 0.  1.
         -2   -1    0    0    0  501 -0.00000000000E+00 -0.00000000000E+00 -0.17479669825E+04  0.17479669825E+04  0.00000000000E+00 0. -1.
         23    2    1    2    0    0  0.54885456645E+03 -0.14152803024E+04 -0.98784570860E+03  0.18134001741E+04  0.91221586743E+02 0.  0.
         11    1    3    3    0    0  0.28219436725E+03 -0.75542069078E+03 -0.57757815426E+03  0.99191259960E+03  0.00000000000E+00 0. -1.
        -11    1    3    3    0    0  0.26666019919E+03 -0.65985961165E+03 -0.41026755434E+03  0.82148757451E+03  0.00000000000E+00 0.  1.
         22    1    1    2    0    0 -0.54885456645E+03  0.14152803024E+04  0.13111410602E+04  0.20058291426E+04  0.00000000000E+00 0.  1.
<mgrwt>
<rscale>  0 0.38055213E+04</rscale>
<asrwt>0</asrwt>
<pdfrwt beam="1">  1        2 0.31865575E+00 0.38055213E+04</pdfrwt>
<pdfrwt beam="2">  1       -2 0.26891800E+00 0.38055213E+04</pdfrwt>
<totfact> 0.24048781E-01</totfact>
</mgrwt>
</event>
<event>
 6    1  0.4630212E-004  0.1525323E+04  0.7818608E-02  0.8867786E-01
         -2   -1    0    0    0  501 -0.00000000000E+00  0.00000000000E+00  0.54631784807E+03  0.54631784807E+03  0.00000000000E+00 0. -1.
          2   -1    0    0  501    0  0.00000000000E+00 -0.00000000000E+00 -0.10646779317E+04  0.10646779317E+04  0.00000000000E+00 0.  1.
         23    2    1    2    0    0  0.28099676387E+03 -0.67006869755E+02 -0.10025462624E+04  0.10471825504E+04  0.89683798148E+02 0.  0.
         11    1    3    3    0    0  0.92586403124E+02  0.18062039438E+02 -0.36293805914E+03  0.37499668543E+03  0.00000000000E+00 0.  1.
        -11    1    3    3    0    0  0.18841036074E+03 -0.85068909193E+02 -0.63960820326E+03  0.67218586494E+03  0.00000000000E+00 0. -1.
         22    1    1    2    0    0 -0.28099676387E+03  0.67006869755E+02  0.48418617878E+03  0.56381322938E+03  0.00000000000E+00 0. -1.
<mgrwt>
<rscale>  0 0.15253230E+04</rscale>
<asrwt>0</asrwt>
<pdfrwt beam="1">  1        2 0.16379660E+00 0.15253230E+04</pdfrwt>
<pdfrwt beam="2">  1       -2 0.84048900E-01 0.15253230E+04</pdfrwt>
<totfact> 0.27325261E+01</totfact>
</mgrwt>
</event>
<event>
 6    1  0.4630212E-004  0.3064372E+04  0.7818608E-02  0.8225584E-01
          2   -1    0    0  501    0  0.00000000000E+00  0.00000000000E+00  0.21505750221E+04  0.21505750221E+04  0.00000000000E+00 0.  1.
         -2   -1    0    0    0  501 -0.00000000000E+00 -0.00000000000E+00 -0.10916122818E+04  0.10916122818E+04  0.00000000000E+00 0. -1.
         23    2    1    2    0    0 -0.19934551942E+03  0.12957278570E+04  0.13663901922E+04  0.18956506525E+04  0.88430331291E+02 0.  0.
         11    1    3    3    0    0 -0.11287637208E+03  0.64739767898E+03  0.74571609581E+03  0.99396042460E+03  0.00000000000E+00 0.  1.
        -11    1    3    3    0    0 -0.86469147342E+02  0.64833017801E+03  0.62067409638E+03  0.90169022790E+03  0.00000000000E+00 0. -1.
         22    1    1    2    0    0  0.19934551942E+03 -0.12957278570E+04 -0.30742745193E+03  0.13465366514E+04  0.00000000000E+00 0. -1.
<mgrwt>
<rscale>  0 0.30643721E+04</rscale>
<asrwt>0</asrwt>
<pdfrwt beam="1">  1        2 0.33085770E+00 0.30643721E+04</pdfrwt>
<pdfrwt beam="2">  1       -2 0.16794035E+00 0.30643721E+04</pdfrwt>
<totfact> 0.10335062E+00</totfact>
</mgrwt>
</event>
<event>
 6    1  0.4630212E-004  0.8872959E+03  0.7818608E-02  0.9441603E-01
          2   -1    0    0  501    0  0.00000000000E+00  0.00000000000E+00  0.61251442443E+03  0.61251442443E+03  0.00000000000E+00 0.  1.
         -2   -1    0    0    0  501 -0.00000000000E+00 -0.00000000000E+00 -0.32133694402E+03  0.32133694402E+03  0.00000000000E+00 0. -1.
         23    2    1    2    0    0  0.19117227627E+03 -0.38558707611E+03  0.23714705853E+03  0.50009623134E+03  0.92915449458E+02 0.  0.
         13    1    3    3    0    0  0.56769155164E+02 -0.19519533255E+03  0.77254283107E+02  0.21746765067E+03  0.00000000000E+00 0. -1.
        -13    1    3    3    0    0  0.13440312111E+03 -0.19039174356E+03  0.15989277542E+03  0.28262858067E+03  0.00000000000E+00 0.  1.
         22    1    1    2    0    0 -0.19117227627E+03  0.38558707611E+03  0.54030421890E+02  0.43375513711E+03  0.00000000000E+00 0. -1.
<mgrwt>
<rscale>  0 0.88729592E+03</rscale>
<asrwt>0</asrwt>
<pdfrwt beam="1">  1        2 0.94232988E-01 0.88729592E+03</pdfrwt>
<pdfrwt beam="2">  1       -2 0.49436453E-01 0.88729592E+03</pdfrwt>
<totfact> 0.18803470E+02</totfact>
</mgrwt>
</event>
<event>
 6    1  0.4630212E-004  0.1138769E+04  0.7818608E-02  0.9168207E-01
          2   -1    0    0  501    0  0.00000000000E+00  0.00000000000E+00  0.10111162806E+04  0.10111162806E+04  0.00000000000E+00 0.  1.
         -2   -1    0    0    0  501 -0.00000000000E+00 -0.00000000000E+00 -0.32063469013E+03  0.32063469013E+03  0.00000000000E+00 0. -1.
         23    2    1    2    0    0  0.25804194455E+03 -0.29217978901E+02  0.93519113525E+03  0.97492875068E+03  0.92001489143E+02 0.  0.
         13    1    3    3    0    0  0.56093542248E+02 -0.10662822024E+00  0.36597794353E+03  0.37025174138E+03  0.00000000000E+00 0.  1.
        -13    1    3    3    0    0  0.20194840230E+03 -0.29111350681E+02  0.56921319173E+03  0.60467700929E+03  0.00000000000E+00 0. -1.
         22    1    1    2    0    0 -0.25804194455E+03  0.29217978901E+02 -0.24470954477E+03  0.35682222007E+03  0.00000000000E+00 0. -1.
<mgrwt>
<rscale>  0 0.11387694E+04</rscale>
<asrwt>0</asrwt>
<pdfrwt beam="1">  1        2 0.15555635E+00 0.11387694E+04</pdfrwt>
<pdfrwt beam="2">  1       -2 0.49328414E-01 0.11387694E+04</pdfrwt>
<totfact> 0.95456767E+01</totfact>
</mgrwt>
</event>
<event>
 6    1  0.4630212E-004  0.1490164E+04  0.7818608E-02  0.8891020E-01
          2   -1    0    0  501    0  0.00000000000E+00  0.00000000000E+00  0.18544456209E+04  0.18544456209E+04  0.00000000000E+00 0.  1.
         -2   -1    0    0    0  501 -0.00000000000E+00 -0.00000000000E+00 -0.29936035299E+03  0.29936035299E+03  0.00000000000E+00 0. -1.
         23    2    1    2    0    0 -0.33411096457E+03  0.21014921802E+03 -0.12876097141E+03  0.42431732457E+03  0.87595511848E+02 0.  0.
         13    1    3    3    0    0 -0.11346508344E+03  0.77548372166E+02 -0.21724127778E+01  0.13745106243E+03  0.00000000000E+00 0. -1.
        -13    1    3    3    0    0 -0.22064588112E+03  0.13260084585E+03 -0.12658855863E+03  0.28686626214E+03  0.00000000000E+00 0.  1.
         22    1    1    2    0    0  0.33411096457E+03 -0.21014921802E+03  0.16838462393E+04  0.17294886493E+04  0.00000000000E+00 0.  1.
<mgrwt>
<rscale>  0 0.14901644E+04</rscale>
<asrwt>0</asrwt>
<pdfrwt beam="1">  1        2 0.28529932E+00 0.14901644E+04</pdfrwt>
<pdfrwt beam="2">  1       -2 0.46055440E-01 0.14901644E+04</pdfrwt>
<totfact> 0.34791200E+01</totfact>
</mgrwt>
</event>
<event>
 6    1  0.4630212E-004  0.4662555E+04  0.7818608E-02  0.7882780E-01
          2   -1    0    0  501    0  0.00000000000E+00  0.00000000000E+00  0.16430542373E+04  0.16430542373E+04  0.00000000000E+00 0. -1.
         -2   -1    0    0    0  501 -0.00000000000E+00 -0.00000000000E+00 -0.33077749586E+04  0.33077749586E+04  0.00000000000E+00 0.  1.
         23    2    1    2    0    0  0.12756501947E+04  0.11124270099E+04  0.86828296934E+03  0.19043747046E+04  0.89165178499E+02 0.  0.
         11    1    3    3    0    0  0.56798431487E+03  0.55394317987E+03  0.40065188485E+03  0.88880884407E+03  0.00000000000E+00 0.  1.
        -11    1    3    3    0    0  0.70766587979E+03  0.55848383000E+03  0.46763108449E+03  0.10155658605E+04  0.00000000000E+00 0. -1.
         22    1    1    2    0    0 -0.12756501947E+04 -0.11124270099E+04 -0.25330036906E+04  0.30464544914E+04  0.00000000000E+00 0.  1.
<mgrwt>
<rscale>  0 0.46625545E+04</rscale>
<asrwt>0</asrwt>
<pdfrwt beam="1">  1        2 0.25277758E+00 0.46625545E+04</pdfrwt>
<pdfrwt beam="2">  1       -2 0.50888845E+00 0.46625545E+04</pdfrwt>
<totfact> 0.11542143E-02</totfact>
</mgrwt>
</event>
<event>
 6    1  0.4630212E-004  0.1018397E+04  0.7818608E-02  0.9288594E-01
          2   -1    0    0  501    0  0.00000000000E+00  0.00000000000E+00  0.21383161942E+03  0.21383161942E+03  0.00000000000E+00 0.  1.
         -2   -1    0    0    0  501 -0.00000000000E+00 -0.00000000000E+00 -0.12125579702E+04  0.12125579702E+04  0.00000000000E+00 0. -1.
         23    2    1    2    0    0 -0.25411924462E+03 -0.20256669011E+03  0.38794478742E+02  0.33916407202E+03  0.88979782766E+02 0.  0.
         11    1    3    3    0    0 -0.13619780263E+03 -0.10038133783E+03 -0.24154913007E+02  0.17090849671E+03  0.00000000000E+00 0.  1.
        -11    1    3    3    0    0 -0.11792144199E+03 -0.10218535228E+03  0.62949391748E+02  0.16825557532E+03  0.00000000000E+00 0. -1.
         22    1    1    2    0    0  0.25411924462E+03  0.20256669011E+03 -0.10375208295E+04  0.10872255176E+04  0.00000000000E+00 0. -1.
<mgrwt>
<rscale>  0 0.10183972E+04</rscale>
<asrwt>0</asrwt>
<pdfrwt beam="1">  1        2 0.32897172E-01 0.10183972E+04</pdfrwt>
<pdfrwt beam="2">  1       -2 0.18654738E+00 0.10183972E+04</pdfrwt>
<totfact> 0.26168908E+01</totfact>
</mgrwt>
</event>
<event>
 6    1  0.4630212E-004  0.1344451E+04  0.7818608E-02  0.8995039E-01
         -2   -1    0    0    0  501 -0.00000000000E+00  0.00000000000E+00  0.31062717451E+03  0.31062717451E+03  0.00000000000E+00 0. -1.
          2   -1    0    0  501    0  0.00000000000E+00 -0.00000000000E+00 -0.14547576178E+04  0.14547576178E+04  0.00000000000E+00 0.  1.
         23    2    1    2    0    0  0.34353337420E+03 -0.48070834325E+03 -0.98740607939E+03  0.11541088999E+04  0.88886988361E+02 0.  0.
         11    1    3    3    0    0  0.12490079611E+03 -0.22225644133E+03 -0.49129539478E+03  0.55350636809E+03  0.00000000000E+00 0. -1.
        -11    1    3    3    0    0  0.21863257808E+03 -0.25845190193E+03 -0.49611068461E+03  0.60060253179E+03  0.00000000000E+00 0.  1.
         22    1    1    2    0    0 -0.34353337420E+03  0.48070834325E+03 -0.15672436394E+03  0.61127589247E+03  0.00000000000E+00 0. -1.
<mgrwt>
<rscale>  0 0.13444512E+04</rscale>
<asrwt>0</asrwt>
<pdfrwt beam="1">  1        2 0.22380886E+00 0.13444512E+04</pdfrwt>
<pdfrwt beam="2">  1       -2 0.47788796E-01 0.13444512E+04</pdfrwt>
<totfact> 0.54577983E+01</totfact>
</mgrwt>
</event>
<event>
 6    1  0.4630212E-004  0.1834217E+04  0.7818608E-02  0.8688312E-01
         -2   -1    0    0    0  501 -0.00000000000E+00  0.00000000000E+00  0.64780470827E+03  0.64780470827E+03  0.00000000000E+00 0. -1.
          2   -1    0    0  501    0  0.00000000000E+00 -0.00000000000E+00 -0.12983670331E+04  0.12983670331E+04  0.00000000000E+00 0.  1.
         23    2    1    2    0    0 -0.74784189088E+02  0.72825956121E+03 -0.90805389018E+03  0.11701198297E+04  0.93079992414E+02 0.  0.
         11    1    3    3    0    0 -0.90526178685E+02  0.52898448262E+03 -0.62863414410E+03  0.82655941046E+03  0.00000000000E+00 0. -1.
        -11    1    3    3    0    0  0.15741989597E+02  0.19927507859E+03 -0.27941974607E+03  0.34356041926E+03  0.00000000000E+00 0.  1.
         22    1    1    2    0    0  0.74784189088E+02 -0.72825956121E+03  0.25749156531E+03  0.77605191169E+03  0.00000000000E+00 0. -1.
<mgrwt>
<rscale>  0 0.18342173E+04</rscale>
<asrwt>0</asrwt>
<pdfrwt beam="1">  1        2 0.19974877E+00 0.18342173E+04</pdfrwt>
<pdfrwt beam="2">  1       -2 0.99662263E-01 0.18342173E+04</pdfrwt>
<totfact> 0.12990222E+01</totfact>
</mgrwt>
</event>
<event>
 6    1  0.4630212E-004  0.1845255E+04  0.7818608E-02  0.8682597E-01
          2   -1    0    0  501    0  0.00000000000E+00  0.00000000000E+00  0.17824868505E+04  0.17824868505E+04  0.00000000000E+00 0.  1.
         -2   -1    0    0    0  501 -0.00000000000E+00 -0.00000000000E+00 -0.47755840892E+03  0.47755840892E+03  0.00000000000E+00 0. -1.
         23    2    1    2    0    0  0.55610883894E+03 -0.27117068779E+03  0.14877713395E+04  0.16148924807E+04  0.10781272025E+03 0.  0.
         13    1    3    3    0    0  0.33429100826E+03 -0.21603009777E+03  0.89159265989E+03  0.97639999616E+03  0.00000000000E+00 0.  1.
        -13    1    3    3    0    0  0.22181783068E+03 -0.55140590026E+02  0.59617867966E+03  0.63849248450E+03  0.00000000000E+00 0. -1.
         22    1    1    2    0    0 -0.55610883894E+03  0.27117068779E+03 -0.18284289793E+03  0.64515277880E+03  0.00000000000E+00 0. -1.
<mgrwt>
<rscale>  0 0.18452551E+04</rscale>
<asrwt>0</asrwt>
<pdfrwt beam="1">  1        2 0.27422874E+00 0.18452551E+04</pdfrwt>
<pdfrwt beam="2">  1       -2 0.73470525E-01 0.18452551E+04</pdfrwt>
<totfact> 0.13871735E+01</totfact>
</mgrwt>
</event>
<event>
 6    1  0.4630212E-004  0.1475231E+04  0.7818608E-02  0.8901093E-01
          2   -1    0    0  501    0  0.00000000000E+00  0.00000000000E+00  0.74414216135E+03  0.74414216135E+03  0.00000000000E+00 0. -1.
         -2   -1    0    0    0  501 -0.00000000000E+00 -0.00000000000E+00 -0.73114584984E+03  0.73114584984E+03  0.00000000000E+00 0.  1.
         23    2    1    2    0    0 -0.18851069910E+03  0.42230350431E+03  0.57762303509E+03  0.74543880046E+03  0.90300061615E+02 0.  0.
         11    1    3    3    0    0 -0.83315772343E+02  0.25049612786E+03  0.38425210407E+03  0.46619685486E+03  0.00000000000E+00 0.  1.
        -11    1    3    3    0    0 -0.10519492676E+03  0.17180737645E+03  0.19337093102E+03  0.27924194560E+03  0.00000000000E+00 0. -1.
         22    1    1    2    0    0  0.18851069910E+03 -0.42230350431E+03 -0.56462672358E+03  0.72984921074E+03  0.00000000000E+00 0.  1.
<mgrwt>
<rscale>  0 0.14752308E+04</rscale>
<asrwt>0</asrwt>
<pdfrwt beam="1">  1        2 0.11448341E+00 0.14752308E+04</pdfrwt>
<pdfrwt beam="2">  1       -2 0.11248398E+00 0.14752308E+04</pdfrwt>
<totfact> 0.22821924E+01</totfact>
</mgrwt>
</event>
<event>
 6    1  0.4630212E-004  0.1706635E+04  0.7818608E-02  0.8757589E-01
         -2   -1    0    0    0  501 -0.00000000000E+00  0.00000000000E+00  0.55450932434E+03  0.55450932434E+03  0.00000000000E+00 0. -1.
          2   -1    0    0  501    0  0.00000000000E+00 -0.00000000000E+00 -0.13131450595E+04  0.13131450595E+04  0.00000000000E+00 0.  1.
         23    2    1    2    0    0  0.45489999819E+03  0.18200350153E+03  0.38093359057E+03  0.62721997161E+03  0.90748054696E+02 0.  0.
         13    1    3    3    0    0  0.18306578109E+03  0.12176362496E+03  0.16776904798E+03  0.27656086858E+03  0.00000000000E+00 0. -1.
        -13    1    3    3    0    0  0.27183421711E+03  0.60239876570E+02  0.21316454259E+03  0.35065910303E+03  0.00000000000E+00 0.  1.
         22    1    1    2    0    0 -0.45489999819E+03 -0.18200350153E+03 -0.11395693257E+04  0.12404344122E+04  0.00000000000E+00 0.  1.
<mgrwt>
<rscale>  0 0.17066355E+04</rscale>
<asrwt>0</asrwt>
<pdfrwt beam="1">  1        2 0.20202232E+00 0.17066355E+04</pdfrwt>
<pdfrwt beam="2">  1       -2 0.85309127E-01 0.17066355E+04</pdfrwt>
<totfact> 0.18460879E+01</totfact>
</mgrwt>
</event>
<event>
 6    1  0.4671276E-004  0.1866290E+04  0.7818608E-02  0.8671820E-01
          2   -1    0    0  501    0  0.00000000000E+00  0.00000000000E+00  0.17954907861E+04  0.17954907861E+04  0.00000000000E+00 0.  1.
         -2   -1    0    0    0  501 -0.00000000000E+00 -0.00000000000E+00 -0.48497027924E+03  0.48497027924E+03  0.00000000000E+00 0. -1.
         23    2    1    2    0    0 -0.85369191679E+03 -0.26550010176E+03  0.33996436763E+03  0.96089317690E+03  0.91976808629E+02 0.  0.
         13    1    3    3    0    0 -0.56612881283E+03 -0.14226420339E+03  0.18937707315E+03  0.61368119746E+03  0.00000000000E+00 0.  1.
        -13    1    3    3    0    0 -0.28756310396E+03 -0.12323589837E+03  0.15058729448E+03  0.34721197944E+03  0.00000000000E+00 0. -1.
         22    1    1    2    0    0  0.85369191679E+03  0.26550010176E+03  0.97055613926E+03  0.13195678885E+04  0.00000000000E+00 0. -1.
<mgrwt>
<rscale>  0 0.18662901E+04</rscale>
<asrwt>0</asrwt>
<pdfrwt beam="1">  1        2 0.27622935E+00 0.18662901E+04</pdfrwt>
<pdfrwt beam="2">  1       -2 0.74610813E-01 0.18662901E+04</pdfrwt>
<totfact> 0.13163800E+01</totfact>
</mgrwt>
</event>
<event>
 6    1  0.4630212E-004  0.2554569E+04  0.7818608E-02  0.8383799E-01
          2   -1    0    0  501    0  0.00000000000E+00  0.00000000000E+00  0.24773166078E+04  0.24773166078E+04  0.00000000000E+00 0.  1.
         -2   -1    0    0    0  501 -0.00000000000E+00 -0.00000000000E+00 -0.65855740558E+03  0.65855740558E+03  0.00000000000E+00 0. -1.
         23    2    1    2    0    0 -0.36732725956E+02 -0.10219497200E+04 -0.25577704442E+02  0.10270095918E+04  0.91454684630E+02 0.  0.
         11    1    3    3    0    0 -0.14526163502E+02 -0.96652562789E+03 -0.17807287409E+02  0.96679878893E+03  0.00000000000E+00 0. -1.
        -11    1    3    3    0    0 -0.22206562454E+02 -0.55424092090E+02 -0.77704170330E+01  0.60210802858E+02  0.00000000000E+00 0.  1.
         22    1    1    2    0    0  0.36732725956E+02  0.10219497200E+04  0.18443369067E+04  0.21088644216E+04  0.00000000000E+00 0.  1.
<mgrwt>
<rscale>  0 0.25545686E+04</rscale>
<asrwt>0</asrwt>
<pdfrwt beam="1">  1        2 0.38112563E+00 0.25545686E+04</pdfrwt>
<pdfrwt beam="2">  1       -2 0.10131653E+00 0.25545686E+04</pdfrwt>
<totfact> 0.25503112E+00</totfact>
</mgrwt>
</event>
<event>
 6    1  0.4630212E-004  0.2189744E+04  0.7818608E-02  0.8522709E-01
          2   -1    0    0  501    0  0.00000000000E+00  0.00000000000E+00  0.28907443862E+04  0.28907443862E+04  0.00000000000E+00 0.  1.
         -2   -1    0    0    0  501 -0.00000000000E+00 -0.00000000000E+00 -0.41468379595E+03  0.41468379595E+03  0.00000000000E+00 0. -1.
         23    2    1    2    0    0  0.37609133970E+03 -0.97299300813E+03  0.17327018818E+04  0.20245135640E+04  0.90770423426E+02 0.  0.
         11    1    3    3    0    0  0.19507045765E+03 -0.41776266188E+03  0.82747375316E+03  0.94725442057E+03  0.00000000000E+00 0. -1.
        -11    1    3    3    0    0  0.18102088204E+03 -0.55523034625E+03  0.90522812867E+03  0.10772591434E+04  0.00000000000E+00 0.  1.
         22    1    1    2    0    0 -0.37609133970E+03  0.97299300813E+03  0.74335870841E+03  0.12809146182E+04  0.00000000000E+00 0.  1.
<mgrwt>
<rscale>  0 0.21897441E+04</rscale>
<asrwt>0</asrwt>
<pdfrwt beam="1">  1        2 0.44472989E+00 0.21897441E+04</pdfrwt>
<pdfrwt beam="2">  1       -2 0.63797509E-01 0.21897441E+04</pdfrwt>
<totfact> 0.42358025E+00</totfact>
</mgrwt>
</event>
<event>
 6    1  0.4630212E-004  0.4339734E+04  0.7818608E-02  0.7939312E-01
          2   -1    0    0  501    0  0.00000000000E+00  0.00000000000E+00  0.13962549210E+04  0.13962549210E+04  0.00000000000E+00 0.  1.
         -2   -1    0    0    0  501 -0.00000000000E+00 -0.00000000000E+00 -0.33721078288E+04  0.33721078288E+04  0.00000000000E+00 0. -1.
         23    2    1    2    0    0 -0.15310830062E+04 -0.36490855043E+03 -0.26280122418E+04  0.30646358882E+04  0.90395586467E+02 0.  0.
         11    1    3    3    0    0 -0.10650645187E+04 -0.29414659891E+03 -0.18162876750E+04  0.21259787321E+04  0.00000000000E+00 0. -1.
        -11    1    3    3    0    0 -0.46601848746E+03 -0.70761951525E+02 -0.81172456680E+03  0.93865715614E+03  0.00000000000E+00 0.  1.
         22    1    1    2    0    0  0.15310830062E+04  0.36490855043E+03  0.65215933404E+03  0.17037268616E+04  0.00000000000E+00 0.  1.
<mgrwt>
<rscale>  0 0.43397337E+04</rscale>
<asrwt>0</asrwt>
<pdfrwt beam="1">  1        2 0.21480845E+00 0.43397337E+04</pdfrwt>
<pdfrwt beam="2">  1       -2 0.51878582E+00 0.43397337E+04</pdfrwt>
<totfact> 0.14227978E-02</totfact>
</mgrwt>
</event>
<event>
 6    1  0.4630212E-004  0.5049468E+04  0.7818608E-02  0.7820921E-01
         -2   -1    0    0    0  501 -0.00000000000E+00  0.00000000000E+00  0.17675098521E+04  0.17675098521E+04  0.00000000000E+00 0. -1.
          2   -1    0    0  501    0  0.00000000000E+00 -0.00000000000E+00 -0.36063623301E+04  0.36063623301E+04  0.00000000000E+00 0.  1.
         23    2    1    2    0    0 -0.12621214311E+04  0.91164537597E+03  0.11938057059E+04  0.19649040892E+04  0.10783421423E+03 0.  0.
         13    1    3    3    0    0 -0.43347545550E+03  0.35182319370E+03  0.37646916058E+03  0.67335693285E+03  0.00000000000E+00 0.  1.
        -13    1    3    3    0    0 -0.82864597556E+03  0.55982218227E+03  0.81733654536E+03  0.12915471563E+04  0.00000000000E+00 0. -1.
         22    1    1    2    0    0  0.12621214311E+04 -0.91164537597E+03 -0.30326581840E+04  0.34089680930E+04  0.00000000000E+00 0. -1.
<mgrwt>
<rscale>  0 0.50494677E+04</rscale>
<asrwt>0</asrwt>
<pdfrwt beam="1">  1        2 0.55482497E+00 0.50494677E+04</pdfrwt>
<pdfrwt beam="2">  1       -2 0.27192460E+00 0.50494677E+04</pdfrwt>
<totfact> 0.23312399E-02</totfact>
</mgrwt>
</event>
<event>
 6    1  0.4630212E-004  0.2792251E+04  0.7818608E-02  0.8305678E-01
          2   -1    0    0  501    0  0.00000000000E+00  0.00000000000E+00  0.73536953072E+03  0.73536953072E+03  0.00000000000E+00 0.  1.
         -2   -1    0    0    0  501 -0.00000000000E+00 -0.00000000000E+00 -0.26505939602E+04  0.26505939602E+04  0.00000000000E+00 0. -1.
         23    2    1    2    0    0  0.47320356473E+03 -0.24962470587E+03  0.60339531565E+03  0.81114708425E+03  0.87404678822E+02 0.  0.
         11    1    3    3    0    0  0.28376570601E+03 -0.18715319186E+03  0.41854371228E+03  0.53919211068E+03  0.00000000000E+00 0.  1.
        -11    1    3    3    0    0  0.18943785872E+03 -0.62471514008E+02  0.18485160338E+03  0.27195497357E+03  0.00000000000E+00 0. -1.
         22    1    1    2    0    0 -0.47320356473E+03  0.24962470587E+03 -0.25186197451E+04  0.25748164066E+04  0.00000000000E+00 0. -1.
<mgrwt>
<rscale>  0 0.27922507E+04</rscale>
<asrwt>0</asrwt>
<pdfrwt beam="1">  1        2 0.11313377E+00 0.27922507E+04</pdfrwt>
<pdfrwt beam="2">  1       -2 0.40778369E+00 0.27922507E+04</pdfrwt>
<totfact> 0.22093600E-01</totfact>
</mgrwt>
</event>
<event>
 6    1  0.4630212E-004  0.1655164E+04  0.7818608E-02  0.8787357E-01
         -2   -1    0    0    0  501 -0.00000000000E+00  0.00000000000E+00  0.85804305670E+03  0.85804305670E+03  0.00000000000E+00 0. -1.
          2   -1    0    0  501    0  0.00000000000E+00 -0.00000000000E+00 -0.79820271688E+03  0.79820271688E+03  0.00000000000E+00 0.  1.
         23    2    1    2    0    0 -0.33502495248E+03  0.74506139107E+03 -0.86491186537E+02  0.82632342128E+03  0.89283122532E+02 0.  0.
         11    1    3    3    0    0 -0.22636891762E+03  0.53704018833E+03 -0.23249874005E+02  0.58326289732E+03  0.00000000000E+00 0.  1.
        -11    1    3    3    0    0 -0.10865603485E+03  0.20802120274E+03 -0.63241312533E+02  0.24306052396E+03  0.00000000000E+00 0. -1.
         22    1    1    2    0    0  0.33502495248E+03 -0.74506139107E+03  0.14633152636E+03  0.82992235230E+03  0.00000000000E+00 0. -1.
<mgrwt>
<rscale>  0 0.16551644E+04</rscale>
<asrwt>0</asrwt>
<pdfrwt beam="1">  1        2 0.12280042E+00 0.16551644E+04</pdfrwt>
<pdfrwt beam="2">  1       -2 0.13200663E+00 0.16551644E+04</pdfrwt>
<totfact> 0.13778304E+01</totfact>
</mgrwt>
</event>
<event>
 6    1  0.4630212E-004  0.3413197E+04  0.7818608E-02  0.8134675E-01
         -2   -1    0    0    0  501 -0.00000000000E+00  0.00000000000E+00  0.13488394861E+04  0.13488394861E+04  0.00000000000E+00 0. -1.
          2   -1    0    0  501    0  0.00000000000E+00 -0.00000000000E+00 -0.21592475571E+04  0.21592475571E+04  0.00000000000E+00 0.  1.
         23    2    1    2    0    0 -0.16851700016E+04 -0.73495002390E+02 -0.14720539540E+03  0.16956198742E+04  0.90872875137E+02 0.  0.
         13    1    3    3    0    0 -0.44364180508E+03 -0.16475571885E+01 -0.74818918407E+02  0.44990958671E+03  0.00000000000E+00 0.  1.
        -13    1    3    3    0    0 -0.12415281965E+04 -0.71847445201E+02 -0.72386476997E+02  0.12457102874E+04  0.00000000000E+00 0. -1.
         22    1    1    2    0    0  0.16851700016E+04  0.73495002390E+02 -0.66320267560E+03  0.18124671690E+04  0.00000000000E+00 0. -1.
<mgrwt>
<rscale>  0 0.34131970E+04</rscale>
<asrwt>0</asrwt>
<pdfrwt beam="1">  1        2 0.33219193E+00 0.34131970E+04</pdfrwt>
<pdfrwt beam="2">  1       -2 0.20751377E+00 0.34131970E+04</pdfrwt>
<totfact> 0.53526151E-01</totfact>
</mgrwt>
</event>
<event>
 6    1  0.4630212E-004  0.2867385E+04  0.7818608E-02  0.8282648E-01
          2   -1    0    0  501    0  0.00000000000E+00  0.00000000000E+00  0.26785085036E+04  0.26785085036E+04  0.00000000000E+00 0.  1.
         -2   -1    0    0    0  501 -0.00000000000E+00 -0.00000000000E+00 -0.76739495730E+03  0.76739495730E+03  0.00000000000E+00 0. -1.
         23    2    1    2    0    0 -0.56280158948E+03 -0.12919599855E+04  0.64934763152E+03  0.15543539752E+04  0.91965755726E+02 0.  0.
         13    1    3    3    0    0 -0.25935341686E+03 -0.70333665628E+03  0.32746229204E+03  0.81803312868E+03  0.00000000000E+00 0. -1.
        -13    1    3    3    0    0 -0.30344817262E+03 -0.58862332923E+03  0.32188533949E+03  0.73632084648E+03  0.00000000000E+00 0.  1.
         22    1    1    2    0    0  0.56280158948E+03  0.12919599855E+04  0.12617659148E+04  0.18915494857E+04  0.00000000000E+00 0. -1.
<mgrwt>
<rscale>  0 0.28673848E+04</rscale>
<asrwt>0</asrwt>
<pdfrwt beam="1">  1        2 0.41207823E+00 0.28673848E+04</pdfrwt>
<pdfrwt beam="2">  1       -2 0.11806076E+00 0.28673848E+04</pdfrwt>
<totfact> 0.13080963E+00</totfact>
</mgrwt>
</event>
<event>
 6    1  0.4630212E-004  0.1446911E+04  0.7818608E-02  0.8920545E-01
          2   -1    0    0  501    0  0.00000000000E+00  0.00000000000E+00  0.49033276418E+03  0.49033276418E+03  0.00000000000E+00 0.  1.
         -2   -1    0    0    0  501 -0.00000000000E+00 -0.00000000000E+00 -0.10674131129E+04  0.10674131129E+04  0.00000000000E+00 0. -1.
         23    2    1    2    0    0  0.22760221512E+03  0.46830949544E+03  0.24670755998E+03  0.58319825363E+03  0.90216578549E+02 0.  0.
         13    1    3    3    0    0  0.91906707154E+02  0.14521147341E+03  0.40378727940E+02  0.17653231008E+03  0.00000000000E+00 0. -1.
        -13    1    3    3    0    0  0.13569550796E+03  0.32309802202E+03  0.20632883204E+03  0.40666594356E+03  0.00000000000E+00 0.  1.
         22    1    1    2    0    0 -0.22760221512E+03 -0.46830949544E+03 -0.82378790873E+03  0.97454762347E+03  0.00000000000E+00 0. -1.
<mgrwt>
<rscale>  0 0.14469107E+04</rscale>
<asrwt>0</asrwt>
<pdfrwt beam="1">  1        2 0.75435810E-01 0.14469107E+04</pdfrwt>
<pdfrwt beam="2">  1       -2 0.16421740E+00 0.14469107E+04</pdfrwt>
<totfact> 0.14318059E+01</totfact>
</mgrwt>
</event>
<event>
 6    1  0.4630212E-004  0.2913957E+04  0.7818608E-02  0.8268737E-01
         -2   -1    0    0    0  501 -0.00000000000E+00  0.00000000000E+00  0.53942795358E+03  0.53942795358E+03  0.00000000000E+00 0. -1.
          2   -1    0    0  501    0  0.00000000000E+00 -0.00000000000E+00 -0.39352555613E+04  0.39352555613E+04  0.00000000000E+00 0.  1.
         23    2    1    2    0    0 -0.11351860665E+04 -0.88594109415E+03 -0.13740770365E+04  0.19925444373E+04  0.92771787554E+02 0.  0.
         11    1    3    3    0    0 -0.44989027214E+03 -0.30481758428E+03 -0.48183938867E+03  0.72628108410E+03  0.00000000000E+00 0. -1.
        -11    1    3    3    0    0 -0.68529579441E+03 -0.58112350987E+03 -0.89223764778E+03  0.12662633532E+04  0.00000000000E+00 0.  1.
         22    1    1    2    0    0  0.11351860665E+04  0.88594109415E+03 -0.20217505713E+04  0.24821390776E+04  0.00000000000E+00 0. -1.
<mgrwt>
<rscale>  0 0.29139573E+04</rscale>
<asrwt>0</asrwt>
<pdfrwt beam="1">  1        2 0.60542395E+00 0.29139573E+04</pdfrwt>
<pdfrwt beam="2">  1       -2 0.82988914E-01 0.29139573E+04</pdfrwt>
<totfact> 0.42284009E-01</totfact>
</mgrwt>
</event>
<event>
 6    1  0.4950780E-004  0.3306523E+04  0.7818608E-02  0.8161238E-01
         -2   -1    0    0    0  501 -0.00000000000E+00  0.00000000000E+00  0.10844712999E+04  0.10844712999E+04  0.00000000000E+00 0. -1.
          2   -1    0    0  501    0  0.00000000000E+00 -0.00000000000E+00 -0.25203744626E+04  0.25203744626E+04  0.00000000000E+00 0.  1.
         23    2    1    2    0    0 -0.12746968095E+04  0.88941284686E+03 -0.10846268725E+03  0.15608287899E+04  0.92277779609E+02 0.  0.
         11    1    3    3    0    0 -0.91072048732E+03  0.66739787201E+03 -0.46854242704E+02  0.11300562135E+04  0.00000000000E+00 0.  1.
        -11    1    3    3    0    0 -0.36397632216E+03  0.22201497484E+03 -0.61608444547E+02  0.43077257641E+03  0.00000000000E+00 0. -1.
         22    1    1    2    0    0  0.12746968095E+04 -0.88941284686E+03 -0.13274404755E+04  0.20440169726E+04  0.00000000000E+00 0.  1.
<mgrwt>
<rscale>  0 0.33065231E+04</rscale>
<asrwt>0</asrwt>
<pdfrwt beam="1">  1        2 0.38774991E+00 0.33065231E+04</pdfrwt>
<pdfrwt beam="2">  1       -2 0.16684174E+00 0.33065231E+04</pdfrwt>
<totfact> 0.63480231E-01</totfact>
</mgrwt>
</event>
<event>
 6    1  0.4630212E-004  0.1368844E+04  0.7818608E-02  0.8976685E-01
          2   -1    0    0  501    0  0.00000000000E+00  0.00000000000E+00  0.78513786950E+03  0.78513786950E+03  0.00000000000E+00 0.  1.
         -2   -1    0    0    0  501 -0.00000000000E+00 -0.00000000000E+00 -0.59662576179E+03  0.59662576179E+03  0.00000000000E+00 0. -1.
         23    2    1    2    0    0  0.78904498877E+02 -0.41914040189E+03 -0.44211356645E+03  0.62045335462E+03  0.87139905778E+02 0.  0.
         13    1    3    3    0    0  0.51552066695E+02 -0.27742488132E+03 -0.23074131767E+03  0.36450478191E+03  0.00000000000E+00 0. -1.
        -13    1    3    3    0    0  0.27352432181E+02 -0.14171552057E+03 -0.21137224878E+03  0.25594857271E+03  0.00000000000E+00 0.  1.
         22    1    1    2    0    0 -0.78904498877E+02  0.41914040189E+03  0.63062567416E+03  0.76131027667E+03  0.00000000000E+00 0.  1.
<mgrwt>
<rscale>  0 0.13688440E+04</rscale>
<asrwt>0</asrwt>
<pdfrwt beam="1">  1        2 0.12079044E+00 0.13688440E+04</pdfrwt>
<pdfrwt beam="2">  1       -2 0.91788579E-01 0.13688440E+04</pdfrwt>
<totfact> 0.34795994E+01</totfact>
</mgrwt>
</event>
<event>
 6    1  0.4630212E-004  0.5349059E+04  0.7818608E-02  0.7776807E-01
          2   -1    0    0  501    0  0.00000000000E+00  0.00000000000E+00  0.36077444006E+04  0.36077444006E+04  0.00000000000E+00 0.  1.
         -2   -1    0    0    0  501 -0.00000000000E+00 -0.00000000000E+00 -0.19827088894E+04  0.19827088894E+04  0.00000000000E+00 0. -1.
         23    2    1    2    0    0 -0.27682437550E+03  0.25239936843E+04  0.16881946902E+04  0.30505389342E+04  0.92793448162E+02 0.  0.
         11    1    3    3    0    0 -0.21777589059E+03  0.22228564444E+04  0.14652544522E+04  0.26712333707E+04  0.00000000000E+00 0. -1.
        -11    1    3    3    0    0 -0.59048484915E+02  0.30113723985E+03  0.22294023804E+03  0.37930556355E+03  0.00000000000E+00 0.  1.
         22    1    1    2    0    0  0.27682437550E+03 -0.25239936843E+04 -0.63159179015E+02  0.25399143558E+04  0.00000000000E+00 0. -1.
<mgrwt>
<rscale>  0 0.53490586E+04</rscale>
<asrwt>0</asrwt>
<pdfrwt beam="1">  1        2 0.55503760E+00 0.53490586E+04</pdfrwt>
<pdfrwt beam="2">  1       -2 0.30503214E+00 0.53490586E+04</pdfrwt>
<totfact> 0.14253528E-02</totfact>
</mgrwt>
</event>
<event>
 6    1  0.4630212E-004  0.3029130E+04  0.7818608E-02  0.8235461E-01
          2   -1    0    0  501    0  0.00000000000E+00  0.00000000000E+00  0.84172222205E+03  0.84172222205E+03  0.00000000000E+00 0.  1.
         -2   -1    0    0    0  501 -0.00000000000E+00 -0.00000000000E+00 -0.27252547650E+04  0.27252547650E+04  0.00000000000E+00 0. -1.
         23    2    1    2    0    0  0.37728330177E+03  0.12808732990E+04 -0.10444093495E+03  0.13425341247E+04  0.92254372414E+02 0.  0.
         11    1    3    3    0    0  0.13689322374E+03  0.46489495774E+03  0.65297191901E+01  0.48467485356E+03  0.00000000000E+00 0.  1.
        -11    1    3    3    0    0  0.24039007803E+03  0.81597834130E+03 -0.11097065414E+03  0.85785927119E+03  0.00000000000E+00 0. -1.
         22    1    1    2    0    0 -0.37728330177E+03 -0.12808732990E+04 -0.17790916080E+04  0.22244428623E+04  0.00000000000E+00 0.  1.
<mgrwt>
<rscale>  0 0.30291302E+04</rscale>
<asrwt>0</asrwt>
<pdfrwt beam="1">  1        2 0.12949573E+00 0.30291302E+04</pdfrwt>
<pdfrwt beam="2">  1       -2 0.41926996E+00 0.30291302E+04</pdfrwt>
<totfact> 0.15214035E-01</totfact>
</mgrwt>
</event>
<event>
 6    1  0.4630212E-004  0.1493791E+04  0.7818608E-02  0.8888592E-01
          1   -1    0    0  501    0  0.00000000000E+00  0.00000000000E+00  0.12069885186E+04  0.12069885186E+04  0.00000000000E+00 0.  1.
         -1   -1    0    0    0  501 -0.00000000000E+00 -0.00000000000E+00 -0.46218590935E+03  0.46218590935E+03  0.00000000000E+00 0. -1.
         23    2    1    2    0    0 -0.16450226370E+03  0.72533575494E+03  0.39918861621E+03  0.84903908279E+03  0.91339261223E+02 0.  0.
         11    1    3    3    0    0 -0.92422911503E+02  0.21745140361E+03  0.11970933361E+03  0.26487248263E+03  0.00000000000E+00 0. -1.
        -11    1    3    3    0    0 -0.72079352192E+02  0.50788435134E+03  0.27947928260E+03  0.58416660016E+03  0.00000000000E+00 0.  1.
         22    1    1    2    0    0  0.16450226370E+03 -0.72533575494E+03  0.34561399302E+03  0.82013534513E+03  0.00000000000E+00 0. -1.
<mgrwt>
<rscale>  0 0.14937913E+04</rscale>
<asrwt>0</asrwt>
<pdfrwt beam="1">  1        1 0.18569054E+00 0.14937913E+04</pdfrwt>
<pdfrwt beam="2">  1       -1 0.71105525E-01 0.14937913E+04</pdfrwt>
<totfact> 0.20418866E+01</totfact>
</mgrwt>
</event>
<event>
 6    1  0.4630212E-004  0.1878377E+04  0.7818608E-02  0.8665695E-01
          2   -1    0    0  501    0  0.00000000000E+00  0.00000000000E+00  0.22573277626E+04  0.22573277626E+04  0.00000000000E+00 0.  1.
         -2   -1    0    0    0  501 -0.00000000000E+00 -0.00000000000E+00 -0.39076060772E+03  0.39076060772E+03  0.00000000000E+00 0. -1.
         23    2    1    2    0    0 -0.80415583402E+02 -0.88827574423E+02  0.22455436802E+04  0.22506211254E+04  0.92043611600E+02 0.  0.
         11    1    3    3    0    0 -0.11068383236E+02 -0.77990072918E+02  0.99756674786E+03  0.10006719627E+04  0.00000000000E+00 0. -1.
        -11    1    3    3    0    0 -0.69347200166E+02 -0.10837501506E+02  0.12479769323E+04  0.12499491627E+04  0.00000000000E+00 0.  1.
         22    1    1    2    0    0  0.80415583402E+02  0.88827574423E+02 -0.37897652532E+03  0.39746724491E+03  0.00000000000E+00 0. -1.
<mgrwt>
<rscale>  0 0.18783767E+04</rscale>
<asrwt>0</asrwt>
<pdfrwt beam="1">  1        2 0.34728119E+00 0.18783767E+04</pdfrwt>
<pdfrwt beam="2">  1       -2 0.60117018E-01 0.18783767E+04</pdfrwt>
<totfact> 0.11601786E+01</totfact>
</mgrwt>
</event>
<event>
 6    1  0.4630212E-004  0.1573025E+04  0.7818608E-02  0.8837293E-01
         -1   -1    0    0    0  501 -0.00000000000E+00  0.00000000000E+00  0.52010899304E+03  0.52010899304E+03  0.00000000000E+00 0.  1.
          1   -1    0    0  501    0  0.00000000000E+00 -0.00000000000E+00 -0.11893695488E+04  0.11893695488E+04  0.00000000000E+00 0. -1.
         23    2    1    2    0    0 -0.66765022335E+03  0.70555983546E+02 -0.77635766106E+03  0.10296221177E+04  0.81581368757E+02 0.  0.
         11    1    3    3    0    0 -0.32656964847E+03  0.26253491768E+02 -0.43968640772E+03  0.54832574102E+03  0.00000000000E+00 0.  1.
        -11    1    3    3    0    0 -0.34108057488E+03  0.44302491778E+02 -0.33667125335E+03  0.48129637664E+03  0.00000000000E+00 0. -1.
         22    1    1    2    0    0  0.66765022335E+03 -0.70555983546E+02  0.10709710529E+03  0.67985642419E+03  0.00000000000E+00 0.  1.
<mgrwt>
<rscale>  0 0.15730249E+04</rscale>
<asrwt>0</asrwt>
<pdfrwt beam="1">  1        1 0.18297993E+00 0.15730249E+04</pdfrwt>
<pdfrwt beam="2">  1       -1 0.80016768E-01 0.15730249E+04</pdfrwt>
<totfact> 0.16313902E+01</totfact>
</mgrwt>
</event>
<event>
 6    1  0.4630212E-004  0.2201046E+04  0.7818608E-02  0.8517993E-01
         -2   -1    0    0    0  501 -0.00000000000E+00  0.00000000000E+00  0.65013849333E+03  0.65013849333E+03  0.00000000000E+00 0. -1.
          2   -1    0    0  501    0  0.00000000000E+00 -0.00000000000E+00 -0.18629117920E+04  0.18629117920E+04  0.00000000000E+00 0.  1.
         23    2    1    2    0    0 -0.64522002046E+03 -0.77178077385E+03 -0.11114109051E+04  0.15019969868E+04  0.93841944587E+02 0.  0.
         11    1    3    3    0    0 -0.45737207355E+03 -0.59612521898E+03 -0.86588969146E+03  0.11464377210E+04  0.00000000000E+00 0. -1.
        -11    1    3    3    0    0 -0.18784794691E+03 -0.17565555487E+03 -0.24552121366E+03  0.35555926577E+03  0.00000000000E+00 0.  1.
         22    1    1    2    0    0  0.64522002046E+03  0.77178077385E+03 -0.10136239354E+03  0.10110532986E+04  0.00000000000E+00 0. -1.
<mgrwt>
<rscale>  0 0.22010458E+04</rscale>
<asrwt>0</asrwt>
<pdfrwt beam="1">  1        2 0.28660182E+00 0.22010458E+04</pdfrwt>
<pdfrwt beam="2">  1       -2 0.10002131E+00 0.22010458E+04</pdfrwt>
<totfact> 0.60078447E+00</totfact>
</mgrwt>
</event>
<event>
 6    1  0.4630212E-004  0.1487350E+04  0.7818608E-02  0.8892909E-01
         -4   -1    0    0    0  501 -0.00000000000E+00  0.00000000000E+00  0.17652511359E+04  0.17652511359E+04  0.00000000000E+00 0. -1.
          4   -1    0    0  501    0  0.00000000000E+00 -0.00000000000E+00 -0.31329980278E+03  0.31329980278E+03  0.00000000000E+00 0.  1.
         23    2    1    2    0    0  0.66359894853E+03  0.73436755498E+02  0.27972067479E+03  0.72952119924E+03  0.90559387669E+02 0.  0.
         13    1    3    3    0    0  0.19686509566E+03  0.46884294893E+02  0.12119365043E+03  0.23588536177E+03  0.00000000000E+00 0.  1.
        -13    1    3    3    0    0  0.46673385287E+03  0.26552460606E+02  0.15852702436E+03  0.49363583747E+03  0.00000000000E+00 0. -1.
         22    1    1    2    0    0 -0.66359894853E+03 -0.73436755498E+02  0.11722306583E+04  0.13490297394E+04  0.00000000000E+00 0.  1.
<mgrwt>
<rscale>  0 0.14873504E+04</rscale>
<asrwt>0</asrwt>
<pdfrwt beam="1">  1        4 0.48199970E-01 0.14873504E+04</pdfrwt>
<pdfrwt beam="2">  1       -4 0.27157709E+00 0.14873504E+04</pdfrwt>
<totfact> 0.37528420E-01</totfact>
</mgrwt>
</event>
<event>
 6    1  0.4630212E-004  0.3534203E+04  0.7818608E-02  0.8105732E-01
         -2   -1    0    0    0  501 -0.00000000000E+00  0.00000000000E+00  0.89985311482E+03  0.89985311482E+03  0.00000000000E+00 0. -1.
          2   -1    0    0  501    0  0.00000000000E+00 -0.00000000000E+00 -0.34701745197E+04  0.34701745197E+04  0.00000000000E+00 0.  1.
         23    2    1    2    0    0  0.14946237838E+04  0.78512496282E+03 -0.19265846853E+04  0.25631744510E+04  0.88392614665E+02 0.  0.
         13    1    3    3    0    0  0.12625058930E+04  0.69123740787E+03 -0.16112779726E+04  0.21605432161E+04  0.00000000000E+00 0. -1.
        -13    1    3    3    0    0  0.23211789086E+03  0.93887554953E+02 -0.31530671272E+03  0.40263123490E+03  0.00000000000E+00 0.  1.
         22    1    1    2    0    0 -0.14946237838E+04 -0.78512496282E+03 -0.64373671957E+03  0.18068531835E+04  0.00000000000E+00 0. -1.
<mgrwt>
<rscale>  0 0.35342028E+04</rscale>
<asrwt>0</asrwt>
<pdfrwt beam="1">  1        2 0.53387300E+00 0.35342028E+04</pdfrwt>
<pdfrwt beam="2">  1       -2 0.13843894E+00 0.35342028E+04</pdfrwt>
<totfact> 0.25802328E-01</totfact>
</mgrwt>
</event>
<event>
 6    1  0.4630212E-004  0.1562237E+04  0.7818608E-02  0.8844089E-01
         -2   -1    0    0    0  501 -0.00000000000E+00  0.00000000000E+00  0.34640893732E+03  0.34640893732E+03  0.00000000000E+00 0. -1.
          2   -1    0    0  501    0  0.00000000000E+00 -0.00000000000E+00 -0.17613472219E+04  0.17613472219E+04  0.00000000000E+00 0.  1.
         23    2    1    2    0    0  0.56757695777E+03 -0.52968610876E+03 -0.78932969778E+03  0.11107119873E+04  0.89043642179E+02 0.  0.
         11    1    3    3    0    0  0.22761744400E+03 -0.19243505773E+03 -0.36183048238E+03  0.46878806537E+03  0.00000000000E+00 0. -1.
        -11    1    3    3    0    0  0.33995951377E+03 -0.33725105103E+03 -0.42749921540E+03  0.64192392197E+03  0.00000000000E+00 0.  1.
         22    1    1    2    0    0 -0.56757695777E+03  0.52968610876E+03 -0.62560858684E+03  0.99704417191E+03  0.00000000000E+00 0. -1.
<mgrwt>
<rscale>  0 0.15622374E+04</rscale>
<asrwt>0</asrwt>
<pdfrwt beam="1">  1        2 0.27097650E+00 0.15622374E+04</pdfrwt>
<pdfrwt beam="2">  1       -2 0.53293682E-01 0.15622374E+04</pdfrwt>
<totfact> 0.28935702E+01</totfact>
</mgrwt>
</event>
<event>
 6    1  0.4630212E-004  0.2098836E+04  0.7818608E-02  0.8561756E-01
         -2   -1    0    0    0  501 -0.00000000000E+00  0.00000000000E+00  0.68369582271E+03  0.68369582271E+03  0.00000000000E+00 0. -1.
          2   -1    0    0  501    0  0.00000000000E+00 -0.00000000000E+00 -0.16107714351E+04  0.16107714351E+04  0.00000000000E+00 0.  1.
         23    2    1    2    0    0 -0.37936048901E+03  0.82672344999E+03 -0.10321832479E+04  0.13788070269E+04  0.91216866547E+02 0.  0.
         11    1    3    3    0    0 -0.21262863904E+03  0.43722697709E+03 -0.48458397407E+03  0.68644008883E+03  0.00000000000E+00 0. -1.
        -11    1    3    3    0    0 -0.16673184997E+03  0.38949647290E+03 -0.54759927385E+03  0.69236693806E+03  0.00000000000E+00 0.  1.
         22    1    1    2    0    0  0.37936048901E+03 -0.82672344999E+03  0.10510763555E+03  0.91566023089E+03  0.00000000000E+00 0.  1.
<mgrwt>
<rscale>  0 0.20988356E+04</rscale>
<asrwt>0</asrwt>
<pdfrwt beam="1">  1        2 0.24781099E+00 0.20988356E+04</pdfrwt>
<pdfrwt beam="2">  1       -2 0.10518397E+00 0.20988356E+04</pdfrwt>
<totfact> 0.74204494E+00</totfact>
</mgrwt>
</event>
<event>
 6    1  0.4630212E-004  0.3439991E+04  0.7818608E-02  0.8128160E-01
          2   -1    0    0  501    0  0.00000000000E+00  0.00000000000E+00  0.26308360876E+04  0.26308360876E+04  0.00000000000E+00 0.  1.
         -2   -1    0    0    0  501 -0.00000000000E+00 -0.00000000000E+00 -0.11245033537E+04  0.11245033537E+04  0.00000000000E+00 0. -1.
         23    2    1    2    0    0  0.99112424090E+03 -0.10720682972E+04  0.17437759944E+04  0.22761379686E+04  0.91605888438E+02 0.  0.
         13    1    3    3    0    0  0.35397277582E+03 -0.40772285644E+03  0.58184233633E+03  0.79377273702E+03  0.00000000000E+00 0. -1.
        -13    1    3    3    0    0  0.63715146508E+03 -0.66434544072E+03  0.11619336581E+04  0.14823652316E+04  0.00000000000E+00 0.  1.
         22    1    1    2    0    0 -0.99112424090E+03  0.10720682972E+04 -0.23744326059E+03  0.14792014726E+04  0.00000000000E+00 0. -1.
<mgrwt>
<rscale>  0 0.34399907E+04</rscale>
<asrwt>0</asrwt>
<pdfrwt beam="1">  1        2 0.40474401E+00 0.34399907E+04</pdfrwt>
<pdfrwt beam="2">  1       -2 0.17300052E+00 0.34399907E+04</pdfrwt>
<totfact> 0.48900022E-01</totfact>
</mgrwt>
</event>
<event>
 6    1  0.4630212E-004  0.2046841E+04  0.7818608E-02  0.8585029E-01
         -2   -1    0    0    0  501 -0.00000000000E+00  0.00000000000E+00  0.10360763455E+04  0.10360763455E+04  0.00000000000E+00 0. -1.
          2   -1    0    0  501    0  0.00000000000E+00 -0.00000000000E+00 -0.10109191156E+04  0.10109191156E+04  0.00000000000E+00 0.  1.
         23    2    1    2    0    0  0.10483929642E+03 -0.10017142148E+04  0.18279993248E+03  0.10275476361E+04  0.89530345733E+02 0.  0.
         11    1    3    3    0    0  0.43543507064E+02 -0.12627989561E+03  0.24990674818E+02  0.13589401337E+03  0.00000000000E+00 0. -1.
        -11    1    3    3    0    0  0.61295789355E+02 -0.87543431921E+03  0.15780925767E+03  0.89165362269E+03  0.00000000000E+00 0.  1.
         22    1    1    2    0    0 -0.10483929642E+03  0.10017142148E+04 -0.15764270255E+03  0.10194478250E+04  0.00000000000E+00 0. -1.
<mgrwt>
<rscale>  0 0.20468409E+04</rscale>
<asrwt>0</asrwt>
<pdfrwt beam="1">  1        2 0.15552602E+00 0.20468409E+04</pdfrwt>
<pdfrwt beam="2">  1       -2 0.15939636E+00 0.20468409E+04</pdfrwt>
<totfact> 0.58373303E+00</totfact>
</mgrwt>
</event>
<event>
 6    1  0.4630212E-004  0.6226504E+03  0.7818608E-02  0.9859497E-01
          2   -1    0    0  501    0  0.00000000000E+00  0.00000000000E+00  0.17870675110E+03  0.17870675110E+03  0.00000000000E+00 0.  1.
         -2   -1    0    0    0  501 -0.00000000000E+00 -0.00000000000E+00 -0.54235985079E+03  0.54235985079E+03  0.00000000000E+00 0. -1.
         23    2    1    2    0    0 -0.17344509053E+03 -0.16261197541E+03 -0.40651495903E+03  0.47948226266E+03  0.90127544711E+02 0.  0.
         13    1    3    3    0    0 -0.54462384556E+01 -0.38243374750E+02 -0.11088601256E+03  0.11742199541E+03  0.00000000000E+00 0. -1.
        -13    1    3    3    0    0 -0.16799885207E+03 -0.12436860066E+03 -0.29562894648E+03  0.36206026725E+03  0.00000000000E+00 0.  1.
         22    1    1    2    0    0  0.17344509053E+03  0.16261197541E+03  0.42861859341E+02  0.24158433923E+03  0.00000000000E+00 0.  1.
<mgrwt>
<rscale>  0 0.62265036E+03</rscale>
<asrwt>0</asrwt>
<pdfrwt beam="1">  1        2 0.27493346E-01 0.62265036E+03</pdfrwt>
<pdfrwt beam="2">  1       -2 0.83439977E-01 0.62265036E+03</pdfrwt>
<totfact> 0.24971723E+02</totfact>
</mgrwt>
</event>
<event>
 6    1  0.4630212E-004  0.3211749E+04  0.7818608E-02  0.8185721E-01
         -2   -1    0    0    0  501 -0.00000000000E+00  0.00000000000E+00  0.99323679189E+03  0.99323679189E+03  0.00000000000E+00 0. -1.
          2   -1    0    0  501    0  0.00000000000E+00 -0.00000000000E+00 -0.25963921180E+04  0.25963921180E+04  0.00000000000E+00 0.  1.
         23    2    1    2    0    0 -0.54031390420E+03 -0.15365206086E+03 -0.24820644048E+04  0.25465425092E+04  0.93203918659E+02 0.  0.
         11    1    3    3    0    0 -0.25096053259E+02 -0.30050104762E+02 -0.19745459363E+03  0.20129862700E+03  0.00000000000E+00 0. -1.
        -11    1    3    3    0    0 -0.51521785095E+03 -0.12360195610E+03 -0.22846098112E+04  0.23452438822E+04  0.00000000000E+00 0.  1.
         22    1    1    2    0    0  0.54031390420E+03  0.15365206086E+03  0.87890907866E+03  0.10430864008E+04  0.00000000000E+00 0. -1.
<mgrwt>
<rscale>  0 0.32117485E+04</rscale>
<asrwt>0</asrwt>
<pdfrwt beam="1">  1        2 0.39944494E+00 0.32117485E+04</pdfrwt>
<pdfrwt beam="2">  1       -2 0.15280566E+00 0.32117485E+04</pdfrwt>
<totfact> 0.73351170E-01</totfact>
</mgrwt>
</event>
<event>
 6    1  0.4630212E-004  0.2782332E+04  0.7818608E-02  0.8308775E-01
          2   -1    0    0  501    0  0.00000000000E+00  0.00000000000E+00  0.28567010927E+04  0.28567010927E+04  0.00000000000E+00 0.  1.
         -2   -1    0    0    0  501 -0.00000000000E+00 -0.00000000000E+00 -0.67747491432E+03  0.67747491432E+03  0.00000000000E+00 0. -1.
         23    2    1    2    0    0  0.13799384954E+04  0.25622064033E+02  0.88452195428E+03  0.16417844595E+04  0.90500731548E+02 0.  0.
         11    1    3    3    0    0  0.63746285299E+03  0.60773458721E+01  0.35556246295E+03  0.72994553778E+03  0.00000000000E+00 0. -1.
        -11    1    3    3    0    0  0.74247564244E+03  0.19544718160E+02  0.52895949133E+03  0.91183892169E+03  0.00000000000E+00 0.  1.
         22    1    1    2    0    0 -0.13799384954E+04 -0.25622064033E+02  0.12947042241E+04  0.18923915476E+04  0.00000000000E+00 0.  1.
<mgrwt>
<rscale>  0 0.27823324E+04</rscale>
<asrwt>0</asrwt>
<pdfrwt beam="1">  1        2 0.43949247E+00 0.27823324E+04</pdfrwt>
<pdfrwt beam="2">  1       -2 0.10422691E+00 0.27823324E+04</pdfrwt>
<totfact> 0.13920857E+00</totfact>
</mgrwt>
</event>
<event>
 6    1  0.4630212E-004  0.2364994E+04  0.7818608E-02  0.8452727E-01
         -1   -1    0    0    0  501 -0.00000000000E+00  0.00000000000E+00  0.98078874344E+03  0.98078874344E+03  0.00000000000E+00 0. -1.
          1   -1    0    0  501    0  0.00000000000E+00 -0.00000000000E+00 -0.14256887533E+04  0.14256887533E+04  0.00000000000E+00 0.  1.
         23    2    1    2    0    0 -0.11176917829E+04 -0.88953203848E+02 -0.59961020930E+03  0.12746281958E+04  0.89426172714E+02 0.  0.
         13    1    3    3    0    0 -0.21817911728E+03 -0.48189771407E+02 -0.14000390878E+03  0.26367683964E+03  0.00000000000E+00 0. -1.
        -13    1    3    3    0    0 -0.89951266565E+03 -0.40763432441E+02 -0.45960630052E+03  0.10109513562E+04  0.00000000000E+00 0.  1.
         22    1    1    2    0    0  0.11176917829E+04  0.88953203848E+02  0.15471019948E+03  0.11318493009E+04  0.00000000000E+00 0.  1.
<mgrwt>
<rscale>  0 0.23649943E+04</rscale>
<asrwt>0</asrwt>
<pdfrwt beam="1">  1        1 0.21933673E+00 0.23649943E+04</pdfrwt>
<pdfrwt beam="2">  1       -1 0.15089058E+00 0.23649943E+04</pdfrwt>
<totfact> 0.22748196E+00</totfact>
</mgrwt>
</event>
<event>
 6    1  0.4630212E-004  0.1366007E+04  0.7818608E-02  0.8978798E-01
         -2   -1    0    0    0  501 -0.00000000000E+00  0.00000000000E+00  0.12460847016E+03  0.12460847016E+03  0.00000000000E+00 0. -1.
          2   -1    0    0  501    0  0.00000000000E+00 -0.00000000000E+00 -0.37436790522E+04  0.37436790522E+04  0.00000000000E+00 0.  1.
         23    2    1    2    0    0  0.31925192916E+03  0.49378058118E+03 -0.84908948049E+03  0.10365854971E+04  0.88405262279E+02 0.  0.
         13    1    3    3    0    0  0.40567251762E+02  0.26728299677E+02 -0.47832438686E+02  0.68176580362E+02  0.00000000000E+00 0.  1.
        -13    1    3    3    0    0  0.27868467740E+03  0.46705228150E+03 -0.80125704180E+03  0.96840891678E+03  0.00000000000E+00 0. -1.
         22    1    1    2    0    0 -0.31925192916E+03 -0.49378058118E+03 -0.27699811016E+04  0.28317020252E+04  0.00000000000E+00 0.  1.
<mgrwt>
<rscale>  0 0.13660075E+04</rscale>
<asrwt>0</asrwt>
<pdfrwt beam="1">  1        2 0.57595063E+00 0.13660075E+04</pdfrwt>
<pdfrwt beam="2">  1       -2 0.19170534E-01 0.13660075E+04</pdfrwt>
<totfact> 0.12457560E+01</totfact>
</mgrwt>
</event>
<event>
 6    1  0.4630212E-004  0.2127366E+04  0.7818608E-02  0.8549284E-01
          2   -1    0    0  501    0  0.00000000000E+00  0.00000000000E+00  0.44381047540E+03  0.44381047540E+03  0.00000000000E+00 0.  1.
         -2   -1    0    0    0  501 -0.00000000000E+00 -0.00000000000E+00 -0.25493337290E+04  0.25493337290E+04  0.00000000000E+00 0. -1.
         23    2    1    2    0    0 -0.98970828816E+03 -0.74973529060E+02 -0.52515464611E+03  0.11269425912E+04  0.95229594711E+02 0.  0.
         11    1    3    3    0    0 -0.57939678910E+03 -0.10230746690E+02 -0.34281888042E+03  0.67329792230E+03  0.00000000000E+00 0.  1.
        -11    1    3    3    0    0 -0.41031149906E+03 -0.64742782370E+02 -0.18233576568E+03  0.45364466886E+03  0.00000000000E+00 0. -1.
         22    1    1    2    0    0  0.98970828816E+03  0.74973529060E+02 -0.15803686075E+04  0.18662016133E+04  0.00000000000E+00 0.  1.
<mgrwt>
<rscale>  0 0.21273655E+04</rscale>
<asrwt>0</asrwt>
<pdfrwt beam="1">  1        2 0.68278533E-01 0.21273655E+04</pdfrwt>
<pdfrwt beam="2">  1       -2 0.39220520E+00 0.21273655E+04</pdfrwt>
<totfact> 0.54329563E-01</totfact>
</mgrwt>
</event>
<event>
 6    1  0.4630212E-004  0.2423660E+04  0.7818608E-02  0.8430698E-01
          2   -1    0    0  501    0  0.00000000000E+00  0.00000000000E+00  0.16675874385E+04  0.16675874385E+04  0.00000000000E+00 0.  1.
         -2   -1    0    0    0  501 -0.00000000000E+00 -0.00000000000E+00 -0.88063263799E+03  0.88063263799E+03  0.00000000000E+00 0. -1.
         23    2    1    2    0    0 -0.39887265114E+03  0.11392577950E+04  0.32530265008E+03  0.12558848169E+04  0.12007141188E+03 0.  0.
         13    1    3    3    0    0 -0.99572975226E+02  0.43500358441E+03  0.89285029441E+02  0.45509857430E+03  0.00000000000E+00 0.  1.
        -13    1    3    3    0    0 -0.29929967591E+03  0.70425421055E+03  0.23601762064E+03  0.80078624260E+03  0.00000000000E+00 0. -1.
         22    1    1    2    0    0  0.39887265114E+03 -0.11392577950E+04  0.46165215043E+03  0.12923352596E+04  0.00000000000E+00 0.  1.
<mgrwt>
<rscale>  0 0.24236600E+04</rscale>
<asrwt>0</asrwt>
<pdfrwt beam="1">  1        2 0.25655191E+00 0.24236600E+04</pdfrwt>
<pdfrwt beam="2">  1       -2 0.13548194E+00 0.24236600E+04</pdfrwt>
<totfact> 0.35874627E+00</totfact>
</mgrwt>
</event>
<event>
 6    1  0.4630212E-004  0.1928022E+04  0.7818608E-02  0.8641032E-01
         -2   -1    0    0    0  501 -0.00000000000E+00  0.00000000000E+00  0.37699836715E+03  0.37699836715E+03  0.00000000000E+00 0.  1.
          2   -1    0    0  501    0  0.00000000000E+00 -0.00000000000E+00 -0.24650440530E+04  0.24650440530E+04  0.00000000000E+00 0. -1.
         23    2    1    2    0    0  0.34442020804E+03 -0.31599198583E+03  0.19272274196E+03  0.51387128466E+03  0.91899005013E+02 0.  0.
         13    1    3    3    0    0  0.22694297894E+03 -0.16656359173E+03  0.79049587975E+02  0.29239593557E+03  0.00000000000E+00 0. -1.
        -13    1    3    3    0    0  0.11747722910E+03 -0.14942839410E+03  0.11367315398E+03  0.22147534909E+03  0.00000000000E+00 0.  1.
         22    1    1    2    0    0 -0.34442020804E+03  0.31599198583E+03 -0.22807684278E+04  0.23281711355E+04  0.00000000000E+00 0. -1.
<mgrwt>
<rscale>  0 0.19280224E+04</rscale>
<asrwt>0</asrwt>
<pdfrwt beam="1">  1        2 0.37923755E+00 0.19280224E+04</pdfrwt>
<pdfrwt beam="2">  1       -2 0.57999748E-01 0.19280224E+04</pdfrwt>
<totfact> 0.94876362E+00</totfact>
</mgrwt>
</event>
<event>
 6    1  0.4630212E-004  0.3749348E+04  0.7818608E-02  0.8057113E-01
         -2   -1    0    0    0  501 -0.00000000000E+00  0.00000000000E+00  0.19833861450E+04  0.19833861450E+04  0.00000000000E+00 0. -1.
          2   -1    0    0  501    0  0.00000000000E+00 -0.00000000000E+00 -0.17719203070E+04  0.17719203070E+04  0.00000000000E+00 0.  1.
         23    2    1    2    0    0 -0.12643405979E+04  0.10474751546E+04 -0.79885180603E+03  0.18274830450E+04  0.75952122332E+02 0.  0.
         11    1    3    3    0    0 -0.69291033820E+03  0.62185808479E+03 -0.44378504393E+03  0.10313958404E+04  0.00000000000E+00 0. -1.
        -11    1    3    3    0    0 -0.57143025967E+03  0.42561706978E+03 -0.35506676210E+03  0.79608720458E+03  0.00000000000E+00 0.  1.
         22    1    1    2    0    0  0.12643405979E+04 -0.10474751546E+04  0.10103176440E+04  0.19278234070E+04  0.00000000000E+00 0. -1.
<mgrwt>
<rscale>  0 0.37493478E+04</rscale>
<asrwt>0</asrwt>
<pdfrwt beam="1">  1        2 0.27260312E+00 0.37493478E+04</pdfrwt>
<pdfrwt beam="2">  1       -2 0.30513633E+00 0.37493478E+04</pdfrwt>
<totfact> 0.21286571E-01</totfact>
</mgrwt>
</event>
<event>
 6    1  0.4630212E-004  0.1168951E+04  0.7818608E-02  0.9140476E-01
         -2   -1    0    0    0  501 -0.00000000000E+00  0.00000000000E+00  0.50004937264E+03  0.50004937264E+03  0.00000000000E+00 0. -1.
          2   -1    0    0  501    0  0.00000000000E+00 -0.00000000000E+00 -0.68315568351E+03  0.68315568351E+03  0.00000000000E+00 0.  1.
         23    2    1    2    0    0 -0.18148466566E+03 -0.54994332267E+03 -0.47173546766E+02  0.58835040299E+03  0.92501411699E+02 0.  0.
         13    1    3    3    0    0 -0.83426106355E+02 -0.14731968340E+03  0.12131385545E+02  0.16973560278E+03  0.00000000000E+00 0. -1.
        -13    1    3    3    0    0 -0.98058559303E+02 -0.40262363928E+03 -0.59304932311E+02  0.41861480021E+03  0.00000000000E+00 0.  1.
         22    1    1    2    0    0  0.18148466566E+03  0.54994332267E+03 -0.13593276411E+03  0.59485465315E+03  0.00000000000E+00 0.  1.
<mgrwt>
<rscale>  0 0.11689509E+04</rscale>
<asrwt>0</asrwt>
<pdfrwt beam="1">  1        2 0.10510087E+00 0.11689509E+04</pdfrwt>
<pdfrwt beam="2">  1       -2 0.76930673E-01 0.11689509E+04</pdfrwt>
<totfact> 0.63074614E+01</totfact>
</mgrwt>
</event>
<event>
 6    1  0.4630212E-004  0.2270900E+04  0.7818608E-02  0.8489484E-01
          2   -1    0    0  501    0  0.00000000000E+00  0.00000000000E+00  0.18042071287E+04  0.18042071287E+04  0.00000000000E+00 0.  1.
         -2   -1    0    0    0  501 -0.00000000000E+00 -0.00000000000E+00 -0.71457774091E+03  0.71457774091E+03  0.00000000000E+00 0. -1.
         23    2    1    2    0    0 -0.29718264420E+03  0.10908528454E+03  0.17527591337E+04  0.17839664000E+04  0.10076910328E+03 0.  0.
         13    1    3    3    0    0 -0.14698423125E+03  0.81445523303E+02  0.68337991783E+03  0.70373705999E+03  0.00000000000E+00 0. -1.
        -13    1    3    3    0    0 -0.15019841295E+03  0.27639761237E+02  0.10693792159E+04  0.10802293400E+04  0.00000000000E+00 0.  1.
         22    1    1    2    0    0  0.29718264420E+03 -0.10908528454E+03 -0.66312974594E+03  0.73481846960E+03  0.00000000000E+00 0. -1.
<mgrwt>
<rscale>  0 0.22708996E+04</rscale>
<asrwt>0</asrwt>
<pdfrwt beam="1">  1        2 0.27757033E+00 0.22708996E+04</pdfrwt>
<pdfrwt beam="2">  1       -2 0.10993504E+00 0.22708996E+04</pdfrwt>
<totfact> 0.51319658E+00</totfact>
</mgrwt>
</event>
<event>
 6    1  0.4630212E-004  0.4212934E+04  0.7818608E-02  0.7962916E-01
         -2   -1    0    0    0  501 -0.00000000000E+00  0.00000000000E+00  0.24974613890E+04  0.24974613890E+04  0.00000000000E+00 0. -1.
          2   -1    0    0  501    0  0.00000000000E+00 -0.00000000000E+00 -0.17766857295E+04  0.17766857295E+04  0.00000000000E+00 0.  1.
         23    2    1    2    0    0  0.72030807361E+03  0.57090024985E+03  0.22823195444E+04  0.24621895802E+04  0.92866623843E+02 0.  0.
         11    1    3    3    0    0  0.23841707861E+03  0.24617939437E+03  0.84492515702E+03  0.91178150812E+03  0.00000000000E+00 0.  1.
        -11    1    3    3    0    0  0.48189099500E+03  0.32472085549E+03  0.14373943873E+04  0.15504080720E+04  0.00000000000E+00 0. -1.
         22    1    1    2    0    0 -0.72030807361E+03 -0.57090024985E+03 -0.15615438849E+04  0.18119575383E+04  0.00000000000E+00 0.  1.
<mgrwt>
<rscale>  0 0.42129344E+04</rscale>
<asrwt>0</asrwt>
<pdfrwt beam="1">  1        2 0.27333627E+00 0.42129344E+04</pdfrwt>
<pdfrwt beam="2">  1       -2 0.38422483E+00 0.42129344E+04</pdfrwt>
<totfact> 0.64797939E-02</totfact>
</mgrwt>
</event>
<event>
 6    1  0.4630212E-004  0.2945582E+04  0.7818608E-02  0.8259443E-01
         -2   -1    0    0    0  501 -0.00000000000E+00  0.00000000000E+00  0.20883059241E+04  0.20883059241E+04  0.00000000000E+00 0. -1.
          2   -1    0    0  501    0  0.00000000000E+00 -0.00000000000E+00 -0.10386951665E+04  0.10386951665E+04  0.00000000000E+00 0.  1.
         23    2    1    2    0    0  0.19090949123E+03 -0.19813858716E+03  0.20597887538E+04  0.20800221426E+04  0.89761181052E+02 0.  0.
         13    1    3    3    0    0  0.14986777888E+03 -0.17244558291E+03  0.14058820758E+04  0.14243251881E+04  0.00000000000E+00 0. -1.
        -13    1    3    3    0    0  0.41041712356E+02 -0.25693004247E+02  0.65390667796E+03  0.65569695447E+03  0.00000000000E+00 0.  1.
         22    1    1    2    0    0 -0.19090949123E+03  0.19813858716E+03 -0.10101779963E+04  0.10469789481E+04  0.00000000000E+00 0.  1.
<mgrwt>
<rscale>  0 0.29455820E+04</rscale>
<asrwt>0</asrwt>
<pdfrwt beam="1">  1        2 0.15979926E+00 0.29455820E+04</pdfrwt>
<pdfrwt beam="2">  1       -2 0.32127783E+00 0.29455820E+04</pdfrwt>
<totfact> 0.48104352E-01</totfact>
</mgrwt>
</event>
<event>
 6    1  0.4630212E-004  0.3613429E+04  0.7818608E-02  0.8087422E-01
          2   -1    0    0  501    0  0.00000000000E+00  0.00000000000E+00  0.19781357825E+04  0.19781357825E+04  0.00000000000E+00 0.  1.
         -2   -1    0    0    0  501 -0.00000000000E+00 -0.00000000000E+00 -0.16501484401E+04  0.16501484401E+04  0.00000000000E+00 0. -1.
         23    2    1    2    0    0  0.10549372980E+04 -0.51563806487E+03  0.15413282263E+04  0.19398022366E+04  0.91458728932E+02 0.  0.
         13    1    3    3    0    0  0.85725533476E+03 -0.39489231742E+03  0.11876110976E+04  0.15169860812E+04  0.00000000000E+00 0.  1.
        -13    1    3    3    0    0  0.19768196325E+03 -0.12074574745E+03  0.35371712867E+03  0.42281615536E+03  0.00000000000E+00 0. -1.
         22    1    1    2    0    0 -0.10549372980E+04  0.51563806487E+03 -0.12133408839E+04  0.16884819860E+04  0.00000000000E+00 0. -1.
<mgrwt>
<rscale>  0 0.36134292E+04</rscale>
<asrwt>0</asrwt>
<pdfrwt beam="1">  1        2 0.30432858E+00 0.36134292E+04</pdfrwt>
<pdfrwt beam="2">  1       -2 0.25386899E+00 0.36134292E+04</pdfrwt>
<totfact> 0.34033954E-01</totfact>
</mgrwt>
</event>
<event>
 6    1  0.4630212E-004  0.1787133E+04  0.7818608E-02  0.8713172E-01
         -2   -1    0    0    0  501 -0.00000000000E+00  0.00000000000E+00  0.45420630802E+03  0.45420630802E+03  0.00000000000E+00 0. -1.
          2   -1    0    0  501    0  0.00000000000E+00 -0.00000000000E+00 -0.17579265291E+04  0.17579265291E+04  0.00000000000E+00 0.  1.
         23    2    1    2    0    0 -0.35812287472E+03 -0.35869593621E+03 -0.15609488638E+04  0.16437303894E+04  0.91506664017E+02 0.  0.
         11    1    3    3    0    0 -0.30563251760E+03 -0.28238270059E+03 -0.13645578320E+04  0.14265936009E+04  0.00000000000E+00 0.  1.
        -11    1    3    3    0    0 -0.52490357115E+02 -0.76313235628E+02 -0.19639103179E+03  0.21713678843E+03  0.00000000000E+00 0. -1.
         22    1    1    2    0    0  0.35812287472E+03  0.35869593621E+03  0.25722864266E+03  0.56840244779E+03  0.00000000000E+00 0. -1.
<mgrwt>
<rscale>  0 0.17871333E+04</rscale>
<asrwt>0</asrwt>
<pdfrwt beam="1">  1        2 0.27045023E+00 0.17871333E+04</pdfrwt>
<pdfrwt beam="2">  1       -2 0.69877895E-01 0.17871333E+04</pdfrwt>
<totfact> 0.16056027E+01</totfact>
</mgrwt>
</event>
<event>
 6    1  0.4630212E-004  0.5406474E+04  0.7818608E-02  0.7768691E-01
         -2   -1    0    0    0  501 -0.00000000000E+00  0.00000000000E+00  0.16426781745E+04  0.16426781745E+04  0.00000000000E+00 0. -1.
          2   -1    0    0  501    0  0.00000000000E+00 -0.00000000000E+00 -0.44485216002E+04  0.44485216002E+04  0.00000000000E+00 0.  1.
         23    2    1    2    0    0  0.18532960082E+04  0.69063913742E+03 -0.34782124663E+04  0.40022362425E+04  0.90799053694E+02 0.  0.
         13    1    3    3    0    0  0.12878697564E+04  0.52400691033E+03 -0.24510250874E+04  0.28179275595E+04  0.00000000000E+00 0. -1.
        -13    1    3    3    0    0  0.56542625181E+03  0.16663222709E+03 -0.10271873789E+04  0.11843086830E+04  0.00000000000E+00 0.  1.
         22    1    1    2    0    0 -0.18532960082E+04 -0.69063913742E+03  0.67236904059E+03  0.20889635322E+04  0.00000000000E+00 0. -1.
<mgrwt>
<rscale>  0 0.54064737E+04</rscale>
<asrwt>0</asrwt>
<pdfrwt beam="1">  1        2 0.68438794E+00 0.54064737E+04</pdfrwt>
<pdfrwt beam="2">  1       -2 0.25271972E+00 0.54064737E+04</pdfrwt>
<totfact> 0.59585476E-03</totfact>
</mgrwt>
</event>
<event>
 6    1  0.4630212E-004  0.9529377E+03  0.7818608E-02  0.9361723E-01
          1   -1    0    0  501    0  0.00000000000E+00  0.00000000000E+00  0.66335821704E+03  0.66335821704E+03  0.00000000000E+00 0.  1.
         -1   -1    0    0    0  501 -0.00000000000E+00 -0.00000000000E+00 -0.34223223823E+03  0.34223223823E+03  0.00000000000E+00 0. -1.
         23    2    1    2    0    0  0.23261524147E+02  0.40899160637E+03  0.40768534771E+03  0.58689276369E+03  0.10208104993E+03 0.  0.
         11    1    3    3    0    0  0.49607197431E+02  0.28762095048E+03  0.23795580780E+03  0.37657622291E+03  0.00000000000E+00 0.  1.
        -11    1    3    3    0    0 -0.26345673284E+02  0.12137065589E+03  0.16972953991E+03  0.21031654079E+03  0.00000000000E+00 0. -1.
         22    1    1    2    0    0 -0.23261524147E+02 -0.40899160637E+03 -0.86559368902E+02  0.41869769157E+03  0.00000000000E+00 0. -1.
<mgrwt>
<rscale>  0 0.95293770E+03</rscale>
<asrwt>0</asrwt>
<pdfrwt beam="1">  1        1 0.10205511E+00 0.95293770E+03</pdfrwt>
<pdfrwt beam="2">  1       -1 0.52651113E-01 0.95293770E+03</pdfrwt>
<totfact> 0.10795906E+02</totfact>
</mgrwt>
</event>
<event>
 6    1  0.4630212E-004  0.2369662E+04  0.7818608E-02  0.8450950E-01
          2   -1    0    0  501    0  0.00000000000E+00  0.00000000000E+00  0.45937436008E+04  0.45937436008E+04  0.00000000000E+00 0.  1.
         -2   -1    0    0    0  501 -0.00000000000E+00 -0.00000000000E+00 -0.30559479540E+03  0.30559479540E+03  0.00000000000E+00 0. -1.
         23    2    1    2    0    0 -0.65047103561E+03 -0.36228781167E+03  0.40483531379E+04  0.41171191247E+04  0.84508763629E+02 0.  0.
         11    1    3    3    0    0 -0.96201071383E+02 -0.54910947308E+02  0.78646348348E+03  0.79422583005E+03  0.00000000000E+00 0.  1.
        -11    1    3    3    0    0 -0.55426996423E+03 -0.30737686436E+03  0.32618896544E+04  0.33228932946E+04  0.00000000000E+00 0. -1.
         22    1    1    2    0    0  0.65047103561E+03  0.36228781167E+03  0.23979566759E+03  0.78221927159E+03  0.00000000000E+00 0. -1.
<mgrwt>
<rscale>  0 0.23696617E+04</rscale>
<asrwt>0</asrwt>
<pdfrwt beam="1">  1        2 0.70672973E+00 0.23696617E+04</pdfrwt>
<pdfrwt beam="2">  1       -2 0.47014587E-01 0.23696617E+04</pdfrwt>
<totfact> 0.38686366E-01</totfact>
</mgrwt>
</event>
<event>
 6    1  0.4630212E-004  0.1860033E+04  0.7818608E-02  0.8675010E-01
         -2   -1    0    0    0  501 -0.00000000000E+00  0.00000000000E+00  0.82435226399E+03  0.82435226399E+03  0.00000000000E+00 0. -1.
          2   -1    0    0  501    0  0.00000000000E+00 -0.00000000000E+00 -0.10492241694E+04  0.10492241694E+04  0.00000000000E+00 0.  1.
         23    2    1    2    0    0 -0.31435397017E+03  0.38305357015E+03 -0.90277053277E+03  0.10338770794E+04  0.91426059217E+02 0.  0.
         13    1    3    3    0    0 -0.29288039010E+03  0.34739404872E+03 -0.76309025266E+03  0.88812627576E+03  0.00000000000E+00 0.  1.
        -13    1    3    3    0    0 -0.21473580065E+02  0.35659521428E+02 -0.13968028011E+03  0.14575080364E+03  0.00000000000E+00 0. -1.
         22    1    1    2    0    0  0.31435397017E+03 -0.38305357015E+03  0.67789862734E+03  0.83969935401E+03  0.00000000000E+00 0. -1.
<mgrwt>
<rscale>  0 0.18600326E+04</rscale>
<asrwt>0</asrwt>
<pdfrwt beam="1">  1        2 0.16141910E+00 0.18600326E+04</pdfrwt>
<pdfrwt beam="2">  1       -2 0.12682343E+00 0.18600326E+04</pdfrwt>
<totfact> 0.10180205E+01</totfact>
</mgrwt>
</event>
<event>
 6    1  0.4630212E-004  0.5851645E+04  0.7818608E-02  0.7709073E-01
         -2   -1    0    0    0  501 -0.00000000000E+00  0.00000000000E+00  0.35471624431E+04  0.35471624431E+04  0.00000000000E+00 0. -1.
          2   -1    0    0  501    0  0.00000000000E+00 -0.00000000000E+00 -0.24133195974E+04  0.24133195974E+04  0.00000000000E+00 0.  1.
         23    2    1    2    0    0  0.28202835079E+04 -0.77596970333E+03  0.55957400500E+03  0.29795572264E+04  0.92250488178E+02 0.  0.
         13    1    3    3    0    0  0.23787605727E+04 -0.68861845209E+03  0.47847160074E+03  0.25222276478E+04  0.00000000000E+00 0. -1.
        -13    1    3    3    0    0  0.44152293525E+03 -0.87351251234E+02  0.81102404262E+02  0.45732957856E+03  0.00000000000E+00 0.  1.
         22    1    1    2    0    0 -0.28202835079E+04  0.77596970333E+03  0.57426884074E+03  0.29809248141E+04  0.00000000000E+00 0. -1.
<mgrwt>
<rscale>  0 0.58516448E+04</rscale>
<asrwt>0</asrwt>
<pdfrwt beam="1">  1        2 0.37127994E+00 0.58516448E+04</pdfrwt>
<pdfrwt beam="2">  1       -2 0.54571730E+00 0.58516448E+04</pdfrwt>
<totfact> 0.24301792E-03</totfact>
</mgrwt>
</event>
<event>
 6    1  0.4630212E-004  0.1164499E+04  0.7818608E-02  0.9144511E-01
         -2   -1    0    0    0  501 -0.00000000000E+00  0.00000000000E+00  0.11028810621E+03  0.11028810621E+03  0.00000000000E+00 0.  1.
          2   -1    0    0  501    0  0.00000000000E+00 -0.00000000000E+00 -0.30738968160E+04  0.30738968160E+04  0.00000000000E+00 0. -1.
         23    2    1    2    0    0 -0.44140690901E+03  0.23366201894E+03 -0.22903618427E+04  0.23459132822E+04  0.90076404167E+02 0.  0.
         13    1    3    3    0    0 -0.24877664786E+03  0.93825641329E+02 -0.13464220642E+04  0.13724232024E+04  0.00000000000E+00 0. -1.
        -13    1    3    3    0    0 -0.19263026115E+03  0.13983637761E+03 -0.94393977854E+03  0.97349007983E+03  0.00000000000E+00 0.  1.
         22    1    1    2    0    0  0.44140690901E+03 -0.23366201894E+03 -0.67324686699E+03  0.83827163994E+03  0.00000000000E+00 0.  1.
<mgrwt>
<rscale>  0 0.11644986E+04</rscale>
<asrwt>0</asrwt>
<pdfrwt beam="1">  1        2 0.47290725E+00 0.11644986E+04</pdfrwt>
<pdfrwt beam="2">  1       -2 0.16967399E-01 0.11644986E+04</pdfrwt>
<totfact> 0.44775153E+01</totfact>
</mgrwt>
</event>
<event>
 6    1  0.4630212E-004  0.1797906E+04  0.7818608E-02  0.8707414E-01
         -2   -1    0    0    0  501 -0.00000000000E+00  0.00000000000E+00  0.35134039694E+03  0.35134039694E+03  0.00000000000E+00 0. -1.
          2   -1    0    0  501    0  0.00000000000E+00 -0.00000000000E+00 -0.23000966850E+04  0.23000966850E+04  0.00000000000E+00 0.  1.
         23    2    1    2    0    0  0.49531303919E+03  0.31237845767E+03  0.19629931233E+02  0.59779163642E+03  0.11855040601E+03 0.  0.
         11    1    3    3    0    0  0.34840115687E+03  0.19737846597E+03  0.65293999531E+02  0.40571533285E+03  0.00000000000E+00 0.  1.
        -11    1    3    3    0    0  0.14691188232E+03  0.11499999171E+03 -0.45664068298E+02  0.19207630357E+03  0.00000000000E+00 0. -1.
         22    1    1    2    0    0 -0.49531303919E+03 -0.31237845767E+03 -0.19683862193E+04  0.20536454455E+04  0.00000000000E+00 0.  1.
<mgrwt>
<rscale>  0 0.17979064E+04</rscale>
<asrwt>0</asrwt>
<pdfrwt beam="1">  1        2 0.35386103E+00 0.17979064E+04</pdfrwt>
<pdfrwt beam="2">  1       -2 0.54052369E-01 0.17979064E+04</pdfrwt>
<totfact> 0.13803843E+01</totfact>
</mgrwt>
</event>
<event>
 6    1  0.4630212E-004  0.1486677E+04  0.7818608E-02  0.8893361E-01
          2   -1    0    0  501    0  0.00000000000E+00  0.00000000000E+00  0.37861988948E+03  0.37861988948E+03  0.00000000000E+00 0.  1.
         -2   -1    0    0    0  501 -0.00000000000E+00 -0.00000000000E+00 -0.14593845969E+04  0.14593845969E+04  0.00000000000E+00 0. -1.
         23    2    1    2    0    0 -0.16654558211E+03 -0.66059279262E+03 -0.18219757867E+03  0.71037726366E+03  0.85554838961E+02 0.  0.
         13    1    3    3    0    0 -0.13760415873E+03 -0.38213176908E+03 -0.12117317614E+03  0.42384257933E+03  0.00000000000E+00 0.  1.
        -13    1    3    3    0    0 -0.28941423377E+02 -0.27846102354E+03 -0.61024402537E+02  0.28653468432E+03  0.00000000000E+00 0. -1.
         22    1    1    2    0    0  0.16654558211E+03  0.66059279262E+03 -0.89856712880E+03  0.11276272228E+04  0.00000000000E+00 0.  1.
<mgrwt>
<rscale>  0 0.14866769E+04</rscale>
<asrwt>0</asrwt>
<pdfrwt beam="1">  1        2 0.58249214E-01 0.14866769E+04</pdfrwt>
<pdfrwt beam="2">  1       -2 0.22452071E+00 0.14866769E+04</pdfrwt>
<totfact> 0.75689266E+00</totfact>
</mgrwt>
</event>
<event>
 6    1  0.4630212E-004  0.1836168E+04  0.7818608E-02  0.8687299E-01
         -2   -1    0    0    0  501 -0.00000000000E+00  0.00000000000E+00  0.70066481112E+03  0.70066481112E+03  0.00000000000E+00 0. -1.
          2   -1    0    0  501    0  0.00000000000E+00 -0.00000000000E+00 -0.12029689522E+04  0.12029689522E+04  0.00000000000E+00 0.  1.
         23    2    1    2    0    0 -0.53516148748E+03 -0.73910802276E+03 -0.16847391216E+03  0.93197481660E+03  0.86689749775E+02 0.  0.
         11    1    3    3    0    0 -0.82977738320E+02 -0.12806923948E+03  0.33616342515E+01  0.15263792367E+03  0.00000000000E+00 0. -1.
        -11    1    3    3    0    0 -0.45218374917E+03 -0.61103878328E+03 -0.17183554641E+03  0.77933689293E+03  0.00000000000E+00 0.  1.
         22    1    1    2    0    0  0.53516148748E+03  0.73910802276E+03 -0.33383022893E+03  0.97165894672E+03  0.00000000000E+00 0.  1.
<mgrwt>
<rscale>  0 0.18361678E+04</rscale>
<asrwt>0</asrwt>
<pdfrwt beam="1">  1        2 0.18507215E+00 0.18361678E+04</pdfrwt>
<pdfrwt beam="2">  1       -2 0.10779459E+00 0.18361678E+04</pdfrwt>
<totfact> 0.12254805E+01</totfact>
</mgrwt>
</event>
<event>
 6    1  0.4630212E-004  0.2441461E+04  0.7818608E-02  0.8424142E-01
         -2   -1    0    0    0  501 -0.00000000000E+00  0.00000000000E+00  0.59434357688E+03  0.59434357688E+03  0.00000000000E+00 0. -1.
          2   -1    0    0  501    0  0.00000000000E+00 -0.00000000000E+00 -0.25072743518E+04  0.25072743518E+04  0.00000000000E+00 0.  1.
         23    2    1    2    0    0  0.99138271244E+03  0.29328301591E+03 -0.13723008731E+03  0.10468752339E+04  0.90890310101E+02 0.  0.
         11    1    3    3    0    0  0.52740621013E+02  0.36720924770E+02 -0.16426479740E+02  0.66331204251E+02  0.00000000000E+00 0. -1.
        -11    1    3    3    0    0  0.93864209143E+03  0.25656209114E+03 -0.12080360757E+03  0.98054402962E+03  0.00000000000E+00 0.  1.
         22    1    1    2    0    0 -0.99138271244E+03 -0.29328301591E+03 -0.17757006877E+04  0.20547426949E+04  0.00000000000E+00 0.  1.
<mgrwt>
<rscale>  0 0.24414606E+04</rscale>
<asrwt>0</asrwt>
<pdfrwt beam="1">  1        2 0.38573451E+00 0.24414606E+04</pdfrwt>
<pdfrwt beam="2">  1       -2 0.91437474E-01 0.24414606E+04</pdfrwt>
<totfact> 0.31470623E+00</totfact>
</mgrwt>
</event>
<event>
 6    1  0.4630212E-004  0.1976747E+04  0.7818608E-02  0.8617570E-01
         -2   -1    0    0    0  501 -0.00000000000E+00  0.00000000000E+00  0.15571716168E+04  0.15571716168E+04  0.00000000000E+00 0. -1.
          2   -1    0    0  501    0  0.00000000000E+00 -0.00000000000E+00 -0.62734421615E+03  0.62734421615E+03  0.00000000000E+00 0.  1.
         23    2    1    2    0    0  0.63642582791E+03  0.21251799644E+03 -0.33309843966E+03  0.75441674151E+03  0.89377380450E+02 0.  0.
         13    1    3    3    0    0  0.20740416239E+03  0.31124518026E+02 -0.81405704140E+02  0.22497135566E+03  0.00000000000E+00 0.  1.
        -13    1    3    3    0    0  0.42902166551E+03  0.18139347841E+03 -0.25169273552E+03  0.52944538585E+03  0.00000000000E+00 0. -1.
         22    1    1    2    0    0 -0.63642582791E+03 -0.21251799644E+03  0.12629258403E+04  0.14300990915E+04  0.00000000000E+00 0. -1.
<mgrwt>
<rscale>  0 0.19767474E+04</rscale>
<asrwt>0</asrwt>
<pdfrwt beam="1">  1        2 0.96514495E-01 0.19767474E+04</pdfrwt>
<pdfrwt beam="2">  1       -2 0.23956486E+00 0.19767474E+04</pdfrwt>
<totfact> 0.32578091E+00</totfact>
</mgrwt>
</event>
<event>
 6    1  0.4630212E-004  0.9404774E+03  0.7818608E-02  0.9376351E-01
         -2   -1    0    0    0  501 -0.00000000000E+00  0.00000000000E+00  0.18862059614E+03  0.18862059614E+03  0.00000000000E+00 0. -1.
          2   -1    0    0  501    0  0.00000000000E+00 -0.00000000000E+00 -0.11723238092E+04  0.11723238092E+04  0.00000000000E+00 0.  1.
         23    2    1    2    0    0  0.38554978754E+03  0.25194822507E+03 -0.39537876858E+03  0.61378163943E+03  0.90977928452E+02 0.  0.
         13    1    3    3    0    0  0.15313877402E+03  0.57904005353E+02 -0.17250607010E+03  0.23782914490E+03  0.00000000000E+00 0.  1.
        -13    1    3    3    0    0  0.23241101352E+03  0.19404421972E+03 -0.22287269849E+03  0.37595249453E+03  0.00000000000E+00 0. -1.
         22    1    1    2    0    0 -0.38554978754E+03 -0.25194822507E+03 -0.58832444446E+03  0.74716276589E+03  0.00000000000E+00 0. -1.
<mgrwt>
<rscale>  0 0.94047736E+03</rscale>
<asrwt>0</asrwt>
<pdfrwt beam="1">  1        2 0.18035751E+00 0.94047736E+03</pdfrwt>
<pdfrwt beam="2">  1       -2 0.29018553E-01 0.94047736E+03</pdfrwt>
<totfact> 0.21461079E+02</totfact>
</mgrwt>
</event>
<event>
 6    1  0.4630212E-004  0.1877089E+04  0.7818608E-02  0.8666345E-01
          2   -1    0    0  501    0  0.00000000000E+00  0.00000000000E+00  0.10278003117E+04  0.10278003117E+04  0.00000000000E+00 0.  1.
         -2   -1    0    0    0  501 -0.00000000000E+00 -0.00000000000E+00 -0.85703984629E+03  0.85703984629E+03  0.00000000000E+00 0. -1.
         23    2    1    2    0    0  0.28175177038E+03 -0.63441966603E+03 -0.54538863997E+03  0.88747266610E+03  0.91030718456E+02 0.  0.
         13    1    3    3    0    0  0.24658712854E+03 -0.50824490448E+03 -0.40248850435E+03  0.69362460383E+03  0.00000000000E+00 0.  1.
        -13    1    3    3    0    0  0.35164641837E+02 -0.12617476155E+03 -0.14290013562E+03  0.19384806227E+03  0.00000000000E+00 0. -1.
         22    1    1    2    0    0 -0.28175177038E+03  0.63441966603E+03  0.71614910536E+03  0.99736749189E+03  0.00000000000E+00 0.  1.
<mgrwt>
<rscale>  0 0.18770890E+04</rscale>
<asrwt>0</asrwt>
<pdfrwt beam="1">  1        2 0.15812313E+00 0.18770890E+04</pdfrwt>
<pdfrwt beam="2">  1       -2 0.13185228E+00 0.18770890E+04</pdfrwt>
<totfact> 0.95050124E+00</totfact>
</mgrwt>
</event>
<event>
 6    1  0.4630212E-004  0.3259231E+04  0.7818608E-02  0.8173347E-01
         -2   -1    0    0    0  501 -0.00000000000E+00  0.00000000000E+00  0.74462539212E+03  0.74462539212E+03  0.00000000000E+00 0. -1.
          2   -1    0    0  501    0  0.00000000000E+00 -0.00000000000E+00 -0.35664190962E+04  0.35664190962E+04  0.00000000000E+00 0.  1.
         23    2    1    2    0    0  0.98135005098E+03 -0.24458157504E+03 -0.31000698271E+04  0.32620899277E+04  0.89048830648E+02 0.  0.
         13    1    3    3    0    0  0.61379885285E+03 -0.14262670630E+03 -0.17934862754E+04  0.19009693393E+04  0.00000000000E+00 0.  1.
        -13    1    3    3    0    0  0.36755119812E+03 -0.10195486874E+03 -0.13065835518E+04  0.13611205884E+04  0.00000000000E+00 0. -1.
         22    1    1    2    0    0 -0.98135005098E+03  0.24458157504E+03  0.27827612308E+03  0.10489545605E+04  0.00000000000E+00 0. -1.
<mgrwt>
<rscale>  0 0.32592307E+04</rscale>
<asrwt>0</asrwt>
<pdfrwt beam="1">  1        2 0.54867987E+00 0.32592307E+04</pdfrwt>
<pdfrwt beam="2">  1       -2 0.11455775E+00 0.32592307E+04</pdfrwt>
<totfact> 0.36343344E-01</totfact>
</mgrwt>
</event>
<event>
 6    1  0.4630212E-004  0.1048572E+04  0.7818608E-02  0.9256820E-01
          2   -1    0    0  501    0  0.00000000000E+00  0.00000000000E+00  0.10445396647E+04  0.10445396647E+04  0.00000000000E+00 0.  1.
         -2   -1    0    0    0  501 -0.00000000000E+00 -0.00000000000E+00 -0.26315488345E+03  0.26315488345E+03  0.00000000000E+00 0. -1.
         23    2    1    2    0    0 -0.21218539396E+03 -0.21703728697E+03  0.92087631347E+03  0.97365007074E+03  0.88619694142E+02 0.  0.
         11    1    3    3    0    0 -0.11608097741E+03 -0.65090009905E+02  0.46278277579E+03  0.48153857610E+03  0.00000000000E+00 0. -1.
        -11    1    3    3    0    0 -0.96104416556E+02 -0.15194727706E+03  0.45809353768E+03  0.49211149463E+03  0.00000000000E+00 0.  1.
         22    1    1    2    0    0  0.21218539396E+03  0.21703728697E+03 -0.13949153221E+03  0.33404447743E+03  0.00000000000E+00 0. -1.
<mgrwt>
<rscale>  0 0.10485718E+04</rscale>
<asrwt>0</asrwt>
<pdfrwt beam="1">  1        2 0.16069841E+00 0.10485718E+04</pdfrwt>
<pdfrwt beam="2">  1       -2 0.40485367E-01 0.10485718E+04</pdfrwt>
<totfact> 0.13559760E+02</totfact>
</mgrwt>
</event>
<event>
 6    1  0.9566150E-004  0.3341290E+04  0.7818608E-02  0.8152468E-01
         -2   -1    0    0    0  501 -0.00000000000E+00  0.00000000000E+00  0.15651190858E+04  0.15651190858E+04  0.00000000000E+00 0. -1.
          2   -1    0    0  501    0  0.00000000000E+00 -0.00000000000E+00 -0.17832858801E+04  0.17832858801E+04  0.00000000000E+00 0.  1.
         23    2    1    2    0    0 -0.32714170453E+03 -0.46172330031E+03 -0.16829935536E+04  0.17780777594E+04  0.94250283061E+02 0.  0.
         11    1    3    3    0    0 -0.18521454014E+03 -0.28753027688E+03 -0.87642832419E+03  0.94080002840E+03  0.00000000000E+00 0.  1.
        -11    1    3    3    0    0 -0.14192716439E+03 -0.17419302343E+03 -0.80656522944E+03  0.83727773095E+03  0.00000000000E+00 0. -1.
         22    1    1    2    0    0  0.32714170453E+03  0.46172330031E+03  0.14648267593E+04  0.15703272066E+04  0.00000000000E+00 0. -1.
<mgrwt>
<rscale>  0 0.33412900E+04</rscale>
<asrwt>0</asrwt>
<pdfrwt beam="1">  1        2 0.27435167E+00 0.33412900E+04</pdfrwt>
<pdfrwt beam="2">  1       -2 0.24078755E+00 0.33412900E+04</pdfrwt>
<totfact> 0.53751367E-01</totfact>
</mgrwt>
</event>
<event>
 6    1  0.4630212E-004  0.2947531E+04  0.7818608E-02  0.8258874E-01
          2   -1    0    0  501    0  0.00000000000E+00  0.00000000000E+00  0.88305958280E+03  0.88305958280E+03  0.00000000000E+00 0.  1.
         -2   -1    0    0    0  501 -0.00000000000E+00 -0.00000000000E+00 -0.24596133421E+04  0.24596133421E+04  0.00000000000E+00 0. -1.
         23    2    1    2    0    0 -0.74577437635E+03  0.12589011121E+04 -0.97418750387E+03  0.17603150209E+04  0.93038968167E+02 0.  0.
         11    1    3    3    0    0 -0.39212093970E+03  0.75176496026E+03 -0.56782814229E+03  0.10204597915E+04  0.00000000000E+00 0.  1.
        -11    1    3    3    0    0 -0.35365343665E+03  0.50713615189E+03 -0.40635936158E+03  0.73985522945E+03  0.00000000000E+00 0. -1.
         22    1    1    2    0    0  0.74577437635E+03 -0.12589011121E+04 -0.60236625542E+03  0.15823579040E+04  0.00000000000E+00 0. -1.
<mgrwt>
<rscale>  0 0.29475313E+04</rscale>
<asrwt>0</asrwt>
<pdfrwt beam="1">  1        2 0.13585532E+00 0.29475313E+04</pdfrwt>
<pdfrwt beam="2">  1       -2 0.37840205E+00 0.29475313E+04</pdfrwt>
<totfact> 0.26529940E-01</totfact>
</mgrwt>
</event>
<event>
 6    1  0.4630212E-004  0.3134595E+04  0.7818608E-02  0.8206307E-01
          2   -1    0    0  501    0  0.00000000000E+00  0.00000000000E+00  0.14428654952E+04  0.14428654952E+04  0.00000000000E+00 0.  1.
         -2   -1    0    0    0  501 -0.00000000000E+00 -0.00000000000E+00 -0.17024602495E+04  0.17024602495E+04  0.00000000000E+00 0. -1.
         23    2    1    2    0    0 -0.15487417069E+04  0.22870696384E+03 -0.14279880072E+03  0.15754375179E+04  0.10346074224E+03 0.  0.
         11    1    3    3    0    0 -0.43332526635E+03  0.92524970786E+02 -0.77700837673E+02  0.44985450632E+03  0.00000000000E+00 0.  1.
        -11    1    3    3    0    0 -0.11154164405E+04  0.13618199305E+03 -0.65097963044E+02  0.11255830115E+04  0.00000000000E+00 0. -1.
         22    1    1    2    0    0  0.15487417069E+04 -0.22870696384E+03 -0.11679595350E+03  0.15698882268E+04  0.00000000000E+00 0.  1.
<mgrwt>
<rscale>  0 0.31345948E+04</rscale>
<asrwt>0</asrwt>
<pdfrwt beam="1">  1        2 0.22197931E+00 0.31345948E+04</pdfrwt>
<pdfrwt beam="2">  1       -2 0.26191696E+00 0.31345948E+04</pdfrwt>
<totfact> 0.62883100E-01</totfact>
</mgrwt>
</event>
<event>
 6    1  0.4630212E-004  0.2378064E+04  0.7818608E-02  0.8447762E-01
         -2   -1    0    0    0  501 -0.00000000000E+00  0.00000000000E+00  0.60486812517E+03  0.60486812517E+03  0.00000000000E+00 0.  1.
          2   -1    0    0  501    0  0.00000000000E+00 -0.00000000000E+00 -0.23373649975E+04  0.23373649975E+04  0.00000000000E+00 0. -1.
         23    2    1    2    0    0 -0.76936419740E+02  0.10622059934E+04 -0.15173233932E+04  0.18557247650E+04  0.85107807519E+02 0.  0.
         11    1    3    3    0    0  0.88756822184E+01  0.41153144324E+03 -0.55883055599E+03  0.69406663716E+03  0.00000000000E+00 0. -1.
        -11    1    3    3    0    0 -0.85812101958E+02  0.65067455018E+03 -0.95849283717E+03  0.11616581279E+04  0.00000000000E+00 0.  1.
         22    1    1    2    0    0  0.76936419740E+02 -0.10622059934E+04 -0.21517347917E+03  0.10865083577E+04  0.00000000000E+00 0.  1.
<mgrwt>
<rscale>  0 0.23780644E+04</rscale>
<asrwt>0</asrwt>
<pdfrwt beam="1">  1        2 0.35959462E+00 0.23780644E+04</pdfrwt>
<pdfrwt beam="2">  1       -2 0.93056634E-01 0.23780644E+04</pdfrwt>
<totfact> 0.38031857E+00</totfact>
</mgrwt>
</event>
<event>
 6    1  0.4630212E-004  0.2249022E+04  0.7818608E-02  0.8498297E-01
         -2   -1    0    0    0  501 -0.00000000000E+00  0.00000000000E+00  0.94491778629E+03  0.94491778629E+03  0.00000000000E+00 0. -1.
          2   -1    0    0  501    0  0.00000000000E+00 -0.00000000000E+00 -0.13382380756E+04  0.13382380756E+04  0.00000000000E+00 0.  1.
         23    2    1    2    0    0  0.13073767081E+03  0.10026088432E+04  0.29872992876E+03  0.10579006496E+04  0.87162967514E+02 0.  0.
         13    1    3    3    0    0  0.37453158605E+02  0.39069487282E+03  0.74109983948E+02  0.39942147220E+03  0.00000000000E+00 0.  1.
        -13    1    3    3    0    0  0.93284512201E+02  0.61191397041E+03  0.22461994481E+03  0.65847917735E+03  0.00000000000E+00 0. -1.
         22    1    1    2    0    0 -0.13073767081E+03 -0.10026088432E+04 -0.69205021811E+03  0.12252552124E+04  0.00000000000E+00 0.  1.
<mgrwt>
<rscale>  0 0.22490220E+04</rscale>
<asrwt>0</asrwt>
<pdfrwt beam="1">  1        2 0.20588278E+00 0.22490220E+04</pdfrwt>
<pdfrwt beam="2">  1       -2 0.14537197E+00 0.22490220E+04</pdfrwt>
<totfact> 0.46546350E+00</totfact>
</mgrwt>
</event>
<event>
 6    1  0.4630212E-004  0.3522091E+04  0.7818608E-02  0.8108574E-01
          2   -1    0    0  501    0  0.00000000000E+00  0.00000000000E+00  0.33340210380E+04  0.33340210380E+04  0.00000000000E+00 0. -1.
         -2   -1    0    0    0  501 -0.00000000000E+00 -0.00000000000E+00 -0.93019267231E+03  0.93019267231E+03  0.00000000000E+00 0.  1.
         23    2    1    2    0    0 -0.12275196288E+04 -0.48076653915E+03 -0.20899053562E+03  0.13376519879E+04  0.87720535369E+02 0.  0.
         11    1    3    3    0    0 -0.73043153498E+03 -0.30533847959E+03 -0.16491597026E+03  0.80867737180E+03  0.00000000000E+00 0. -1.
        -11    1    3    3    0    0 -0.49708809384E+03 -0.17542805955E+03 -0.44074565356E+02  0.52897461605E+03  0.00000000000E+00 0.  1.
         22    1    1    2    0    0  0.12275196288E+04  0.48076653915E+03  0.26128189013E+04  0.29265617224E+04  0.00000000000E+00 0. -1.
<mgrwt>
<rscale>  0 0.35220914E+04</rscale>
<asrwt>0</asrwt>
<pdfrwt beam="1">  1        2 0.51292631E+00 0.35220914E+04</pdfrwt>
<pdfrwt beam="2">  1       -2 0.14310657E+00 0.35220914E+04</pdfrwt>
<totfact> 0.29363969E-01</totfact>
</mgrwt>
</event>
<event>
 6    1  0.4630212E-004  0.2477971E+04  0.7818608E-02  0.8410876E-01
         -2   -1    0    0    0  501 -0.00000000000E+00  0.00000000000E+00  0.78033698695E+03  0.78033698695E+03  0.00000000000E+00 0. -1.
          2   -1    0    0  501    0  0.00000000000E+00 -0.00000000000E+00 -0.19672086334E+04  0.19672086334E+04  0.00000000000E+00 0.  1.
         23    2    1    2    0    0  0.11458619884E+04  0.80755563430E+02 -0.11046323071E+04  0.15959013757E+04  0.84661145532E+02 0.  0.
         11    1    3    3    0    0  0.92099777581E+03  0.70235785923E+02 -0.84035823542E+03  0.12487481462E+04  0.00000000000E+00 0. -1.
        -11    1    3    3    0    0  0.22486421258E+03  0.10519777508E+02 -0.26427407163E+03  0.34715322950E+03  0.00000000000E+00 0.  1.
         22    1    1    2    0    0 -0.11458619884E+04 -0.80755563430E+02 -0.82239339438E+02  0.11516442447E+04  0.00000000000E+00 0.  1.
<mgrwt>
<rscale>  0 0.24779715E+04</rscale>
<asrwt>0</asrwt>
<pdfrwt beam="1">  1        2 0.30264748E+00 0.24779715E+04</pdfrwt>
<pdfrwt beam="2">  1       -2 0.12005185E+00 0.24779715E+04</pdfrwt>
<totfact> 0.33023808E+00</totfact>
</mgrwt>
</event>
<event>
 6    1  0.4630212E-004  0.2586804E+04  0.7818608E-02  0.8372698E-01
          2   -1    0    0  501    0  0.00000000000E+00  0.00000000000E+00  0.27058167963E+04  0.27058167963E+04  0.00000000000E+00 0.  1.
         -2   -1    0    0    0  501 -0.00000000000E+00 -0.00000000000E+00 -0.61825632732E+03  0.61825632732E+03  0.00000000000E+00 0. -1.
         23    2    1    2    0    0 -0.52064505250E+03 -0.11621487610E+04  0.13238976677E+04  0.18392021233E+04  0.91095569085E+02 0.  0.
         13    1    3    3    0    0 -0.20441546406E+03 -0.53445920989E+03  0.54804391920E+03  0.79232850912E+03  0.00000000000E+00 0. -1.
        -13    1    3    3    0    0 -0.31622958844E+03 -0.62768955108E+03  0.77585374848E+03  0.10468736142E+04  0.00000000000E+00 0.  1.
         22    1    1    2    0    0  0.52064505250E+03  0.11621487610E+04  0.76366280126E+03  0.14848710002E+04  0.00000000000E+00 0.  1.
<mgrwt>
<rscale>  0 0.25868037E+04</rscale>
<asrwt>0</asrwt>
<pdfrwt beam="1">  1        2 0.41627950E+00 0.25868037E+04</pdfrwt>
<pdfrwt beam="2">  1       -2 0.95116359E-01 0.25868037E+04</pdfrwt>
<totfact> 0.21675262E+00</totfact>
</mgrwt>
</event>
<event>
 6    1  0.4630212E-004  0.7468174E+03  0.7818608E-02  0.9640357E-01
          2   -1    0    0  501    0  0.00000000000E+00  0.00000000000E+00  0.15853407036E+04  0.15853407036E+04  0.00000000000E+00 0.  1.
         -2   -1    0    0    0  501 -0.00000000000E+00 -0.00000000000E+00 -0.87952114218E+02  0.87952114218E+02  0.00000000000E+00 0. -1.
         23    2    1    2    0    0  0.32460868068E+03 -0.87683291825E+01  0.37318927440E+03  0.50313394870E+03  0.91792465013E+02 0.  0.
         11    1    3    3    0    0  0.19120490772E+03  0.43260068783E+01  0.28302530861E+03  0.34158652840E+03  0.00000000000E+00 0. -1.
        -11    1    3    3    0    0  0.13340377296E+03 -0.13094336061E+02  0.90163965791E+02  0.16154742029E+03  0.00000000000E+00 0.  1.
         22    1    1    2    0    0 -0.32460868068E+03  0.87683291825E+01  0.11241993150E+04  0.11701588691E+04  0.00000000000E+00 0. -1.
<mgrwt>
<rscale>  0 0.74681743E+03</rscale>
<asrwt>0</asrwt>
<pdfrwt beam="1">  1        2 0.24389855E+00 0.74681743E+03</pdfrwt>
<pdfrwt beam="2">  1       -2 0.13531096E-01 0.74681743E+03</pdfrwt>
<totfact> 0.48037590E+02</totfact>
</mgrwt>
</event>
<event>
 6    1  0.4630212E-004  0.1195889E+04  0.7818608E-02  0.9116463E-01
          2   -1    0    0  501    0  0.00000000000E+00  0.00000000000E+00  0.16927853057E+04  0.16927853057E+04  0.00000000000E+00 0.  1.
         -2   -1    0    0    0  501 -0.00000000000E+00 -0.00000000000E+00 -0.21121252839E+03  0.21121252839E+03  0.00000000000E+00 0. -1.
         23    2    1    2    0    0  0.44237713351E+03 -0.13455625761E+03  0.13400352034E+04  0.14204321203E+04  0.90167329865E+02 0.  0.
         11    1    3    3    0    0  0.22927955291E+03 -0.48568736905E+02  0.55499211163E+03  0.60244857005E+03  0.00000000000E+00 0. -1.
        -11    1    3    3    0    0  0.21309758060E+03 -0.85987520707E+02  0.78504309178E+03  0.81798355028E+03  0.00000000000E+00 0.  1.
         22    1    1    2    0    0 -0.44237713351E+03  0.13455625761E+03  0.14153757394E+03  0.48356571379E+03  0.00000000000E+00 0. -1.
<mgrwt>
<rscale>  0 0.11958887E+04</rscale>
<asrwt>0</asrwt>
<pdfrwt beam="1">  1        2 0.26042850E+00 0.11958887E+04</pdfrwt>
<pdfrwt beam="2">  1       -2 0.32494236E-01 0.11958887E+04</pdfrwt>
<totfact> 0.86197069E+01</totfact>
</mgrwt>
</event>
<event>
 6    1  0.4630212E-004  0.4450605E+04  0.7818608E-02  0.7919342E-01
         -1   -1    0    0    0  501 -0.00000000000E+00  0.00000000000E+00  0.12510861307E+04  0.12510861307E+04  0.00000000000E+00 0. -1.
          1   -1    0    0  501    0  0.00000000000E+00 -0.00000000000E+00 -0.39581376295E+04  0.39581376295E+04  0.00000000000E+00 0.  1.
         23    2    1    2    0    0  0.16420232363E+04 -0.43730552272E+03 -0.30341347176E+04  0.34787729921E+04  0.91714871941E+02 0.  0.
         11    1    3    3    0    0  0.62370277381E+03 -0.19640379817E+03 -0.12362510039E+04  0.13985335701E+04  0.00000000000E+00 0. -1.
        -11    1    3    3    0    0  0.10183204625E+04 -0.24090172455E+03 -0.17978837136E+04  0.20802394220E+04  0.00000000000E+00 0.  1.
         22    1    1    2    0    0 -0.16420232363E+04  0.43730552272E+03  0.32708321872E+03  0.17304507681E+04  0.00000000000E+00 0. -1.
<mgrwt>
<rscale>  0 0.44506049E+04</rscale>
<asrwt>0</asrwt>
<pdfrwt beam="1">  1        1 0.60894425E+00 0.44506049E+04</pdfrwt>
<pdfrwt beam="2">  1       -1 0.19247479E+00 0.44506049E+04</pdfrwt>
<totfact> 0.13329925E-02</totfact>
</mgrwt>
</event>
<event>
 6    1  0.4635193E-004  0.2432550E+04  0.7818608E-02  0.8427417E-01
          2   -1    0    0  501    0  0.00000000000E+00  0.00000000000E+00  0.20892607206E+04  0.20892607206E+04  0.00000000000E+00 0.  1.
         -2   -1    0    0    0  501 -0.00000000000E+00 -0.00000000000E+00 -0.70806153472E+03  0.70806153472E+03  0.00000000000E+00 0. -1.
         23    2    1    2    0    0  0.46851850897E+03  0.41078118705E+03  0.18904845229E+04  0.19925723988E+04  0.90345207159E+02 0.  0.
         11    1    3    3    0    0  0.11494916389E+03  0.61163838467E+02  0.46325044642E+03  0.48120193425E+03  0.00000000000E+00 0. -1.
        -11    1    3    3    0    0  0.35356934507E+03  0.34961734858E+03  0.14272340765E+04  0.15113704646E+04  0.00000000000E+00 0.  1.
         22    1    1    2    0    0 -0.46851850897E+03 -0.41078118705E+03 -0.50928533706E+03  0.80474985643E+03  0.00000000000E+00 0. -1.
<mgrwt>
<rscale>  0 0.24325502E+04</rscale>
<asrwt>0</asrwt>
<pdfrwt beam="1">  1        2 0.32142472E+00 0.24325502E+04</pdfrwt>
<pdfrwt beam="2">  1       -2 0.10893254E+00 0.24325502E+04</pdfrwt>
<totfact> 0.35940883E+00</totfact>
</mgrwt>
</event>
<event>
 6    1  0.4630212E-004  0.1656914E+04  0.7818608E-02  0.8786327E-01
          2   -1    0    0  501    0  0.00000000000E+00  0.00000000000E+00  0.12803219030E+04  0.12803219030E+04  0.00000000000E+00 0.  1.
         -2   -1    0    0    0  501 -0.00000000000E+00 -0.00000000000E+00 -0.53606877511E+03  0.53606877511E+03  0.00000000000E+00 0. -1.
         23    2    1    2    0    0 -0.47708292228E+03  0.29197028864E+03 -0.29307174775E+03  0.63787565411E+03  0.90219380380E+02 0.  0.
         11    1    3    3    0    0 -0.31349811951E+03  0.21374263775E+03 -0.15457782914E+03  0.40970878852E+03  0.00000000000E+00 0.  1.
        -11    1    3    3    0    0 -0.16358480277E+03  0.78227650891E+02 -0.13849391861E+03  0.22816686559E+03  0.00000000000E+00 0. -1.
         22    1    1    2    0    0  0.47708292228E+03 -0.29197028864E+03  0.10373248756E+04  0.11785150240E+04  0.00000000000E+00 0.  1.
<mgrwt>
<rscale>  0 0.16569135E+04</rscale>
<asrwt>0</asrwt>
<pdfrwt beam="1">  1        2 0.19697260E+00 0.16569135E+04</pdfrwt>
<pdfrwt beam="2">  1       -2 0.82472120E-01 0.16569135E+04</pdfrwt>
<totfact> 0.20917208E+01</totfact>
</mgrwt>
</event>
<event>
 6    1  0.4630212E-004  0.1074679E+04  0.7818608E-02  0.9230229E-01
         -4   -1    0    0    0  501 -0.00000000000E+00  0.00000000000E+00  0.25314895180E+03  0.25314895180E+03  0.00000000000E+00 0. -1.
          4   -1    0    0  501    0  0.00000000000E+00 -0.00000000000E+00 -0.11405687459E+04  0.11405687459E+04  0.00000000000E+00 0.  1.
         23    2    1    2    0    0 -0.46940601345E+03 -0.63321798713E+02 -0.76567129087E+03  0.90466314686E+03  0.88381151693E+02 0.  0.
         13    1    3    3    0    0 -0.26511364781E+03 -0.18916259006E+02 -0.50344634957E+03  0.56929895311E+03  0.00000000000E+00 0. -1.
        -13    1    3    3    0    0 -0.20429236564E+03 -0.44405539707E+02 -0.26222494129E+03  0.33536419375E+03  0.00000000000E+00 0.  1.
         22    1    1    2    0    0  0.46940601345E+03  0.63321798713E+02 -0.12174850323E+03  0.48905455084E+03  0.00000000000E+00 0. -1.
<mgrwt>
<rscale>  0 0.10746791E+04</rscale>
<asrwt>0</asrwt>
<pdfrwt beam="1">  1        4 0.17547211E+00 0.10746791E+04</pdfrwt>
<pdfrwt beam="2">  1       -4 0.38945993E-01 0.10746791E+04</pdfrwt>
<totfact> 0.24667955E+00</totfact>
</mgrwt>
</event>
<event>
 6    1  0.4630212E-004  0.2846837E+04  0.7818608E-02  0.8288873E-01
          4   -1    0    0  501    0  0.00000000000E+00  0.00000000000E+00  0.86974990124E+03  0.86974990124E+03  0.00000000000E+00 0.  1.
         -4   -1    0    0    0  501 -0.00000000000E+00 -0.00000000000E+00 -0.23295428358E+04  0.23295428358E+04  0.00000000000E+00 0. -1.
         23    2    1    2    0    0 -0.20626090808E+03 -0.49689970521E+03  0.74859635351E+03  0.92631316675E+03  0.90590855844E+02 0.  0.
         11    1    3    3    0    0 -0.16488816910E+03 -0.29470294928E+03  0.49745536685E+03  0.60124851653E+03  0.00000000000E+00 0. -1.
        -11    1    3    3    0    0 -0.41372738976E+02 -0.20219675593E+03  0.25114098666E+03  0.32506465022E+03  0.00000000000E+00 0.  1.
         22    1    1    2    0    0  0.20626090808E+03  0.49689970521E+03 -0.22083892881E+04  0.22729795703E+04  0.00000000000E+00 0. -1.
<mgrwt>
<rscale>  0 0.28468366E+04</rscale>
<asrwt>0</asrwt>
<pdfrwt beam="1">  1        4 0.13380768E+00 0.28468366E+04</pdfrwt>
<pdfrwt beam="2">  1       -4 0.35839120E+00 0.28468366E+04</pdfrwt>
<totfact> 0.90426929E-03</totfact>
</mgrwt>
</event>
<event>
 6    1  0.4630212E-004  0.1916779E+04  0.7818608E-02  0.8646549E-01
         -2   -1    0    0    0  501 -0.00000000000E+00  0.00000000000E+00  0.14575195101E+04  0.14575195101E+04  0.00000000000E+00 0. -1.
          2   -1    0    0  501    0  0.00000000000E+00 -0.00000000000E+00 -0.63018771985E+03  0.63018771985E+03  0.00000000000E+00 0.  1.
         23    2    1    2    0    0 -0.71661492064E+03  0.54064636715E+03  0.56938298623E+02  0.90476954319E+03  0.97624370127E+02 0.  0.
         11    1    3    3    0    0 -0.52066926097E+03  0.39592775013E+03 -0.21550284851E+01  0.65411001123E+03  0.00000000000E+00 0.  1.
        -11    1    3    3    0    0 -0.19594565966E+03  0.14471861703E+03  0.59093327108E+02  0.25065953196E+03  0.00000000000E+00 0. -1.
         22    1    1    2    0    0  0.71661492064E+03 -0.54064636715E+03  0.77039349161E+03  0.11829376867E+04  0.00000000000E+00 0. -1.
<mgrwt>
<rscale>  0 0.19167795E+04</rscale>
<asrwt>0</asrwt>
<pdfrwt beam="1">  1        2 0.96951957E-01 0.19167795E+04</pdfrwt>
<pdfrwt beam="2">  1       -2 0.22423377E+00 0.19167795E+04</pdfrwt>
<totfact> 0.40579126E+00</totfact>
</mgrwt>
</event>
<event>
 6    1  0.4630212E-004  0.2022577E+04  0.7818608E-02  0.8596137E-01
         -1   -1    0    0    0  501 -0.00000000000E+00  0.00000000000E+00  0.10465525447E+04  0.10465525447E+04  0.00000000000E+00 0.  1.
          1   -1    0    0  501    0  0.00000000000E+00 -0.00000000000E+00 -0.97721304281E+03  0.97721304281E+03  0.00000000000E+00 0. -1.
         23    2    1    2    0    0 -0.17717691976E+03 -0.60070412270E+03  0.82661651808E+03  0.10410623855E+04  0.90988563270E+02 0.  0.
         13    1    3    3    0    0 -0.10323851172E+03 -0.34291336169E+03  0.39742720012E+03  0.53497303046E+03  0.00000000000E+00 0. -1.
        -13    1    3    3    0    0 -0.73938408044E+02 -0.25779076101E+03  0.42918931796E+03  0.50608935505E+03  0.00000000000E+00 0.  1.
         22    1    1    2    0    0  0.17717691976E+03  0.60070412270E+03 -0.75727701620E+03  0.98270320198E+03  0.00000000000E+00 0. -1.
<mgrwt>
<rscale>  0 0.20225774E+04</rscale>
<asrwt>0</asrwt>
<pdfrwt beam="1">  1        1 0.15034047E+00 0.20225774E+04</pdfrwt>
<pdfrwt beam="2">  1       -1 0.16100808E+00 0.20225774E+04</pdfrwt>
<totfact> 0.41924006E+00</totfact>
</mgrwt>
</event>
<event>
 6    1  0.4630212E-004  0.2536444E+04  0.7818608E-02  0.8390116E-01
          2   -1    0    0  501    0  0.00000000000E+00  0.00000000000E+00  0.28897540122E+04  0.28897540122E+04  0.00000000000E+00 0.  1.
         -2   -1    0    0    0  501 -0.00000000000E+00 -0.00000000000E+00 -0.55658288245E+03  0.55658288245E+03  0.00000000000E+00 0. -1.
         23    2    1    2    0    0  0.41212727118E+03 -0.96011356300E+03  0.21408434499E+04  0.23839542527E+04  0.91434459893E+02 0.  0.
         13    1    3    3    0    0  0.25866280010E+03 -0.60885721266E+03  0.14533142139E+04  0.15967892014E+04  0.00000000000E+00 0.  1.
        -13    1    3    3    0    0  0.15346447109E+03 -0.35125635034E+03  0.68752923603E+03  0.78716505127E+03  0.00000000000E+00 0. -1.
         22    1    1    2    0    0 -0.41212727118E+03  0.96011356300E+03  0.19232767985E+03  0.10623826420E+04  0.00000000000E+00 0. -1.
<mgrwt>
<rscale>  0 0.25364445E+04</rscale>
<asrwt>0</asrwt>
<pdfrwt beam="1">  1        2 0.44457753E+00 0.25364445E+04</pdfrwt>
<pdfrwt beam="2">  1       -2 0.85628137E-01 0.25364445E+04</pdfrwt>
<totfact> 0.21475553E+00</totfact>
</mgrwt>
</event>
<event>
 6    1  0.4630212E-004  0.1182656E+04  0.7818608E-02  0.9128174E-01
          2   -1    0    0  501    0  0.00000000000E+00  0.00000000000E+00  0.13076968895E+04  0.13076968895E+04  0.00000000000E+00 0.  1.
         -2   -1    0    0    0  501 -0.00000000000E+00 -0.00000000000E+00 -0.26739303659E+03  0.26739303659E+03  0.00000000000E+00 0. -1.
         23    2    1    2    0    0  0.36203848522E+03  0.46140447719E+03  0.58047588197E+03  0.82983311183E+03  0.87776919530E+02 0.  0.
         13    1    3    3    0    0  0.94143929419E+02  0.18181885162E+03  0.22464767811E+03  0.30395353844E+03  0.00000000000E+00 0. -1.
        -13    1    3    3    0    0  0.26789455580E+03  0.27958562557E+03  0.35582820386E+03  0.52587957339E+03  0.00000000000E+00 0.  1.
         22    1    1    2    0    0 -0.36203848522E+03 -0.46140447719E+03  0.45982797099E+03  0.74525681430E+03  0.00000000000E+00 0. -1.
<mgrwt>
<rscale>  0 0.11826564E+04</rscale>
<asrwt>0</asrwt>
<pdfrwt beam="1">  1        2 0.20118413E+00 0.11826564E+04</pdfrwt>
<pdfrwt beam="2">  1       -2 0.41137391E-01 0.11826564E+04</pdfrwt>
<totfact> 0.90407286E+01</totfact>
</mgrwt>
</event>
<event>
 6    1  0.4630212E-004  0.1043449E+04  0.7818608E-02  0.9262134E-01
         -2   -1    0    0    0  501 -0.00000000000E+00  0.00000000000E+00  0.10198133532E+03  0.10198133532E+03  0.00000000000E+00 0. -1.
          2   -1    0    0  501    0  0.00000000000E+00 -0.00000000000E+00 -0.26690807517E+04  0.26690807517E+04  0.00000000000E+00 0.  1.
         23    2    1    2    0    0  0.88874188176E+02 -0.50692394451E+03 -0.14397814866E+04  0.15318219078E+04  0.92936114594E+02 0.  0.
         11    1    3    3    0    0  0.57905318648E+02 -0.30898304503E+03 -0.74195652367E+03  0.80580582715E+03  0.00000000000E+00 0. -1.
        -11    1    3    3    0    0  0.30968869529E+02 -0.19794089948E+03 -0.69782496291E+03  0.72601608070E+03  0.00000000000E+00 0.  1.
         22    1    1    2    0    0 -0.88874188176E+02  0.50692394451E+03 -0.11273179298E+04  0.12392401792E+04  0.00000000000E+00 0.  1.
<mgrwt>
<rscale>  0 0.10434489E+04</rscale>
<asrwt>0</asrwt>
<pdfrwt beam="1">  1        2 0.41062786E+00 0.10434489E+04</pdfrwt>
<pdfrwt beam="2">  1       -2 0.15689434E-01 0.10434489E+04</pdfrwt>
<totfact> 0.91042857E+01</totfact>
</mgrwt>
</event>
<event>
 6    1  0.4630212E-004  0.8230895E+04  0.7818608E-02  0.7462300E-01
         -2   -1    0    0    0  501 -0.00000000000E+00  0.00000000000E+00  0.47732055933E+04  0.47732055933E+04  0.00000000000E+00 0. -1.
          2   -1    0    0  501    0  0.00000000000E+00 -0.00000000000E+00 -0.35483296662E+04  0.35483296662E+04  0.00000000000E+00 0.  1.
         23    2    1    2    0    0  0.95116782980E+03 -0.10648374374E+04  0.45143163218E+04  0.47355880877E+04  0.90242308027E+02 0.  0.
         11    1    3    3    0    0  0.58271989445E+03 -0.70171206421E+03  0.29731197168E+04  0.31098879637E+04  0.00000000000E+00 0. -1.
        -11    1    3    3    0    0  0.36844793535E+03 -0.36312537315E+03  0.15411966051E+04  0.16257001240E+04  0.00000000000E+00 0.  1.
         22    1    1    2    0    0 -0.95116782980E+03  0.10648374374E+04 -0.32894403947E+04  0.35859471718E+04  0.00000000000E+00 0.  1.
<mgrwt>
<rscale>  0 0.82308947E+04</rscale>
<asrwt>0</asrwt>
<pdfrwt beam="1">  1        2 0.54589687E+00 0.82308947E+04</pdfrwt>
<pdfrwt beam="2">  1       -2 0.73433932E+00 0.82308947E+04</pdfrwt>
<totfact> 0.73549514E-05</totfact>
</mgrwt>
</event>
<event>
 6    1  0.4630212E-004  0.4204874E+04  0.7818608E-02  0.7964446E-01
          2   -1    0    0  501    0  0.00000000000E+00  0.00000000000E+00  0.24512980105E+04  0.24512980105E+04  0.00000000000E+00 0.  1.
         -2   -1    0    0    0  501 -0.00000000000E+00 -0.00000000000E+00 -0.18032247185E+04  0.18032247185E+04  0.00000000000E+00 0. -1.
         23    2    1    2    0    0  0.18319497445E+04 -0.15181432051E+03  0.13545527407E+04  0.22852079583E+04  0.90966100043E+02 0.  0.
         13    1    3    3    0    0  0.12438315127E+04 -0.13316619884E+03  0.88365750866E+03  0.15315680400E+04  0.00000000000E+00 0. -1.
        -13    1    3    3    0    0  0.58811823181E+03 -0.18648121663E+02  0.47089523202E+03  0.75363991838E+03  0.00000000000E+00 0.  1.
         22    1    1    2    0    0 -0.18319497445E+04  0.15181432051E+03 -0.70647944869E+03  0.19693147706E+04  0.00000000000E+00 0. -1.
<mgrwt>
<rscale>  0 0.42048739E+04</rscale>
<asrwt>0</asrwt>
<pdfrwt beam="1">  1        2 0.37712277E+00 0.42048739E+04</pdfrwt>
<pdfrwt beam="2">  1       -2 0.27741919E+00 0.42048739E+04</pdfrwt>
<totfact> 0.12586263E-01</totfact>
</mgrwt>
</event>
<event>
 6    1  0.4630212E-004  0.1914838E+04  0.7818608E-02  0.8647505E-01
         -2   -1    0    0    0  501 -0.00000000000E+00  0.00000000000E+00  0.11553702136E+04  0.11553702136E+04  0.00000000000E+00 0. -1.
          2   -1    0    0  501    0  0.00000000000E+00 -0.00000000000E+00 -0.79338338828E+03  0.79338338828E+03  0.00000000000E+00 0.  1.
         23    2    1    2    0    0 -0.26043344663E+03  0.14278467618E+03 -0.74251052472E+03  0.80501961178E+03  0.92312795134E+02 0.  0.
         11    1    3    3    0    0 -0.23373541035E+03  0.13016429737E+03 -0.56585477177E+03  0.62591262097E+03  0.00000000000E+00 0. -1.
        -11    1    3    3    0    0 -0.26698036282E+02  0.12620378808E+02 -0.17665575296E+03  0.17910699080E+03  0.00000000000E+00 0.  1.
         22    1    1    2    0    0  0.26043344663E+03 -0.14278467618E+03  0.11044973500E+04  0.11437339901E+04  0.00000000000E+00 0. -1.
<mgrwt>
<rscale>  0 0.19148384E+04</rscale>
<asrwt>0</asrwt>
<pdfrwt beam="1">  1        2 0.12205898E+00 0.19148384E+04</pdfrwt>
<pdfrwt beam="2">  1       -2 0.17774926E+00 0.19148384E+04</pdfrwt>
<totfact> 0.61209098E+00</totfact>
</mgrwt>
</event>
<event>
 6    1  0.4630212E-004  0.1597012E+04  0.7818608E-02  0.8822386E-01
         -2   -1    0    0    0  501 -0.00000000000E+00  0.00000000000E+00  0.32742117436E+03  0.32742117436E+03  0.00000000000E+00 0. -1.
          2   -1    0    0  501    0  0.00000000000E+00 -0.00000000000E+00 -0.19473739485E+04  0.19473739485E+04  0.00000000000E+00 0.  1.
         23    2    1    2    0    0 -0.57407769355E+03  0.48137193619E+03 -0.43019022766E+03  0.86880114841E+03  0.92019912563E+02 0.  0.
         13    1    3    3    0    0 -0.35535677777E+02  0.62906007842E+02 -0.31627388508E+02  0.78868510329E+02  0.00000000000E+00 0. -1.
        -13    1    3    3    0    0 -0.53854201578E+03  0.41846592835E+03 -0.39856283915E+03  0.78993263808E+03  0.00000000000E+00 0.  1.
         22    1    1    2    0    0  0.57407769355E+03 -0.48137193619E+03 -0.11897625464E+04  0.14059939744E+04  0.00000000000E+00 0.  1.
<mgrwt>
<rscale>  0 0.15970115E+04</rscale>
<asrwt>0</asrwt>
<pdfrwt beam="1">  1        2 0.29959599E+00 0.15970115E+04</pdfrwt>
<pdfrwt beam="2">  1       -2 0.50372489E-01 0.15970115E+04</pdfrwt>
<totfact> 0.25553857E+01</totfact>
</mgrwt>
</event>
<event>
 6    1  0.4630212E-004  0.1304511E+04  0.7818608E-02  0.9025995E-01
          2   -1    0    0  501    0  0.00000000000E+00  0.00000000000E+00  0.20390423446E+04  0.20390423446E+04  0.00000000000E+00 0.  1.
         -2   -1    0    0    0  501 -0.00000000000E+00 -0.00000000000E+00 -0.20864577103E+03  0.20864577103E+03  0.00000000000E+00 0. -1.
         23    2    1    2    0    0  0.79912821830E+02  0.64621737503E+03  0.91877482593E+03  0.11274037028E+04  0.53934899871E+02 0.  0.
         11    1    3    3    0    0  0.34698559879E+02  0.37914872867E+03  0.57727035845E+03  0.69151920816E+03  0.00000000000E+00 0.  1.
        -11    1    3    3    0    0  0.45214261951E+02  0.26706864635E+03  0.34150446748E+03  0.43588449463E+03  0.00000000000E+00 0. -1.
         22    1    1    2    0    0 -0.79912821830E+02 -0.64621737503E+03  0.91162174764E+03  0.11202844128E+04  0.00000000000E+00 0.  1.
<mgrwt>
<rscale>  0 0.13045115E+04</rscale>
<asrwt>0</asrwt>
<pdfrwt beam="1">  1        2 0.31369881E+00 0.13045115E+04</pdfrwt>
<pdfrwt beam="2">  1       -2 0.32099351E-01 0.13045115E+04</pdfrwt>
<totfact> 0.56296636E+01</totfact>
</mgrwt>
</event>
<event>
 6    1  0.4630212E-004  0.2494551E+04  0.7818608E-02  0.8404929E-01
          2   -1    0    0  501    0  0.00000000000E+00  0.00000000000E+00  0.76835389829E+03  0.76835389829E+03  0.00000000000E+00 0.  1.
         -2   -1    0    0    0  501 -0.00000000000E+00 -0.00000000000E+00 -0.20247138321E+04  0.20247138321E+04  0.00000000000E+00 0. -1.
         23    2    1    2    0    0 -0.11681909466E+04  0.18828064823E+03 -0.19355324054E+03  0.12025716576E+04  0.92714856014E+02 0.  0.
         13    1    3    3    0    0 -0.40550185801E+03  0.10927494908E+03 -0.59193969648E+02  0.42411873029E+03  0.00000000000E+00 0.  1.
        -13    1    3    3    0    0 -0.76268908862E+03  0.79005699147E+02 -0.13435927090E+03  0.77845292734E+03  0.00000000000E+00 0. -1.
         22    1    1    2    0    0  0.11681909466E+04 -0.18828064823E+03 -0.10628066933E+04  0.15904960728E+04  0.00000000000E+00 0. -1.
<mgrwt>
<rscale>  0 0.24945515E+04</rscale>
<asrwt>0</asrwt>
<pdfrwt beam="1">  1        2 0.11820829E+00 0.24945515E+04</pdfrwt>
<pdfrwt beam="2">  1       -2 0.31149443E+00 0.24945515E+04</pdfrwt>
<totfact> 0.87615883E-01</totfact>
</mgrwt>
</event>
<event>
 6    1  0.4630212E-004  0.2507459E+04  0.7818608E-02  0.8400333E-01
          2   -1    0    0  501    0  0.00000000000E+00  0.00000000000E+00  0.36726090887E+04  0.36726090887E+04  0.00000000000E+00 0.  1.
         -2   -1    0    0    0  501 -0.00000000000E+00 -0.00000000000E+00 -0.42798932609E+03  0.42798932609E+03  0.00000000000E+00 0. -1.
         23    2    1    2    0    0  0.22297776059E+03  0.11501981382E+04  0.23468020032E+04  0.26245389418E+04  0.89722773779E+02 0.  0.
         11    1    3    3    0    0  0.15757914460E+03  0.57718500113E+03  0.11938056640E+04  0.13353447779E+04  0.00000000000E+00 0.  1.
        -11    1    3    3    0    0  0.65398615984E+02  0.57301313703E+03  0.11529963392E+04  0.12891941639E+04  0.00000000000E+00 0. -1.
         22    1    1    2    0    0 -0.22297776059E+03 -0.11501981382E+04  0.89781775946E+03  0.14760594730E+04  0.00000000000E+00 0.  1.
<mgrwt>
<rscale>  0 0.25074589E+04</rscale>
<asrwt>0</asrwt>
<pdfrwt beam="1">  1        2 0.56501676E+00 0.25074589E+04</pdfrwt>
<pdfrwt beam="2">  1       -2 0.65844514E-01 0.25074589E+04</pdfrwt>
<totfact> 0.11593448E+00</totfact>
</mgrwt>
</event>
<event>
 6    1  0.4630212E-004  0.2092376E+04  0.7818608E-02  0.8564609E-01
         -2   -1    0    0    0  501 -0.00000000000E+00  0.00000000000E+00  0.99323582080E+03  0.99323582080E+03  0.00000000000E+00 0. -1.
          2   -1    0    0  501    0  0.00000000000E+00 -0.00000000000E+00 -0.11019633227E+04  0.11019633227E+04  0.00000000000E+00 0.  1.
         23    2    1    2    0    0  0.86161977028E+03  0.25899956968E+03 -0.58503740354E+03  0.10771910256E+04  0.92748781629E+02 0.  0.
         11    1    3    3    0    0  0.69532934031E+03  0.23010690606E+03 -0.43832491092E+03  0.85355773516E+03  0.00000000000E+00 0. -1.
        -11    1    3    3    0    0  0.16629042997E+03  0.28892663614E+02 -0.14671249261E+03  0.22363329046E+03  0.00000000000E+00 0.  1.
         22    1    1    2    0    0 -0.86161977028E+03 -0.25899956968E+03  0.47630990166E+03  0.10180081179E+04  0.00000000000E+00 0. -1.
<mgrwt>
<rscale>  0 0.20923761E+04</rscale>
<asrwt>0</asrwt>
<pdfrwt beam="1">  1        2 0.16953282E+00 0.20923761E+04</pdfrwt>
<pdfrwt beam="2">  1       -2 0.15280551E+00 0.20923761E+04</pdfrwt>
<totfact> 0.57134917E+00</totfact>
</mgrwt>
</event>
<event>
 6    1  0.4630212E-004  0.1560497E+04  0.7818608E-02  0.8845191E-01
         -2   -1    0    0    0  501 -0.00000000000E+00  0.00000000000E+00  0.34518942480E+03  0.34518942480E+03  0.00000000000E+00 0. -1.
          2   -1    0    0  501    0  0.00000000000E+00 -0.00000000000E+00 -0.17636330720E+04  0.17636330720E+04  0.00000000000E+00 0.  1.
         23    2    1    2    0    0  0.72706902544E+03 -0.22571660066E+03 -0.92583768462E+03  0.12020491039E+04  0.90384060864E+02 0.  0.
         13    1    3    3    0    0  0.22007729617E+03 -0.10337180276E+03 -0.33522223539E+03  0.41411796990E+03  0.00000000000E+00 0.  1.
        -13    1    3    3    0    0  0.50699172928E+03 -0.12234479791E+03 -0.59061544922E+03  0.78793113404E+03  0.00000000000E+00 0. -1.
         22    1    1    2    0    0 -0.72706902544E+03  0.22571660066E+03 -0.49260596255E+03  0.90677339281E+03  0.00000000000E+00 0. -1.
<mgrwt>
<rscale>  0 0.15604967E+04</rscale>
<asrwt>0</asrwt>
<pdfrwt beam="1">  1        2 0.27132817E+00 0.15604967E+04</pdfrwt>
<pdfrwt beam="2">  1       -2 0.53106065E-01 0.15604967E+04</pdfrwt>
<totfact> 0.29066275E+01</totfact>
</mgrwt>
</event>
<event>
 6    1  0.4630212E-004  0.8721245E+03  0.7818608E-02  0.9461114E-01
         -2   -1    0    0    0  501 -0.00000000000E+00  0.00000000000E+00  0.19502236265E+03  0.19502236265E+03  0.00000000000E+00 0. -1.
          2   -1    0    0  501    0  0.00000000000E+00 -0.00000000000E+00 -0.97501793246E+03  0.97501793246E+03  0.00000000000E+00 0.  1.
         23    2    1    2    0    0  0.22859404745E+03  0.20499382719E+03  0.12189362039E+02  0.32043175352E+03  0.90830723870E+02 0.  0.
         13    1    3    3    0    0  0.87284112497E+02  0.38891070255E+02  0.33628470077E+02  0.10130106436E+03  0.00000000000E+00 0. -1.
        -13    1    3    3    0    0  0.14130993495E+03  0.16610275694E+03 -0.21439108038E+02  0.21913068916E+03  0.00000000000E+00 0.  1.
         22    1    1    2    0    0 -0.22859404745E+03 -0.20499382719E+03 -0.79218493184E+03  0.84960854160E+03  0.00000000000E+00 0.  1.
<mgrwt>
<rscale>  0 0.87212453E+03</rscale>
<asrwt>0</asrwt>
<pdfrwt beam="1">  1        2 0.15000276E+00 0.87212453E+03</pdfrwt>
<pdfrwt beam="2">  1       -2 0.30003441E-01 0.87212453E+03</pdfrwt>
<totfact> 0.26860399E+02</totfact>
</mgrwt>
</event>
<event>
 6    1  0.4630212E-004  0.8102394E+03  0.7818608E-02  0.9545313E-01
         -2   -1    0    0    0  501 -0.00000000000E+00  0.00000000000E+00  0.15041388245E+03  0.15041388245E+03  0.00000000000E+00 0. -1.
          2   -1    0    0  501    0  0.00000000000E+00 -0.00000000000E+00 -0.10911357188E+04  0.10911357188E+04  0.00000000000E+00 0.  1.
         23    2    1    2    0    0  0.13186887971E+03 -0.13184311493E+03 -0.10185896371E+04  0.10394718865E+04  0.90581155408E+02 0.  0.
         11    1    3    3    0    0  0.23003573791E+02 -0.23807763144E+01 -0.31448278821E+03  0.31533197837E+03  0.00000000000E+00 0. -1.
        -11    1    3    3    0    0  0.10886530592E+03 -0.12946233862E+03 -0.70410684887E+03  0.72413990816E+03  0.00000000000E+00 0.  1.
         22    1    1    2    0    0 -0.13186887971E+03  0.13184311493E+03  0.77867800740E+02  0.20207771472E+03  0.00000000000E+00 0. -1.
<mgrwt>
<rscale>  0 0.81023937E+03</rscale>
<asrwt>0</asrwt>
<pdfrwt beam="1">  1        2 0.16786703E+00 0.81023937E+03</pdfrwt>
<pdfrwt beam="2">  1       -2 0.23140597E-01 0.81023937E+03</pdfrwt>
<totfact> 0.36524924E+02</totfact>
</mgrwt>
</event>
<event>
 6    1  0.4630212E-004  0.1745144E+04  0.7818608E-02  0.8736028E-01
         -2   -1    0    0    0  501 -0.00000000000E+00  0.00000000000E+00  0.10719913151E+04  0.10719913151E+04  0.00000000000E+00 0. -1.
          2   -1    0    0  501    0  0.00000000000E+00 -0.00000000000E+00 -0.71025029274E+03  0.71025029274E+03  0.00000000000E+00 0.  1.
         23    2    1    2    0    0  0.59983461928E+03 -0.45189118652E+03  0.62976890914E+03  0.98484198212E+03  0.96424249525E+02 0.  0.
         11    1    3    3    0    0  0.13615113331E+03 -0.55639168169E+02  0.11455082415E+03  0.18642623058E+03  0.00000000000E+00 0.  1.
        -11    1    3    3    0    0  0.46368348596E+03 -0.39625201835E+03  0.51521808499E+03  0.79841575154E+03  0.00000000000E+00 0. -1.
         22    1    1    2    0    0 -0.59983461928E+03  0.45189118652E+03 -0.26802788680E+03  0.79739962569E+03  0.00000000000E+00 0.  1.
<mgrwt>
<rscale>  0 0.17451443E+04</rscale>
<asrwt>0</asrwt>
<pdfrwt beam="1">  1        2 0.10926928E+00 0.17451443E+04</pdfrwt>
<pdfrwt beam="2">  1       -2 0.16492174E+00 0.17451443E+04</pdfrwt>
<totfact> 0.88354863E+00</totfact>
</mgrwt>
</event>
<event>
 6    1  0.4630212E-004  0.5001323E+04  0.7818608E-02  0.7828303E-01
         -2   -1    0    0    0  501 -0.00000000000E+00  0.00000000000E+00  0.24034071787E+04  0.24034071787E+04  0.00000000000E+00 0. -1.
          2   -1    0    0  501    0  0.00000000000E+00 -0.00000000000E+00 -0.26018510483E+04  0.26018510483E+04  0.00000000000E+00 0.  1.
         23    2    1    2    0    0  0.38226552776E+03  0.16982270758E+04  0.16963106472E+04  0.24322839143E+04  0.91831875356E+02 0.  0.
         13    1    3    3    0    0  0.78817281244E+02  0.36190471471E+03  0.41463687555E+03  0.55597745001E+03  0.00000000000E+00 0. -1.
        -13    1    3    3    0    0  0.30344824652E+03  0.13363223611E+04  0.12816737717E+04  0.18763064643E+04  0.00000000000E+00 0.  1.
         22    1    1    2    0    0 -0.38226552776E+03 -0.16982270758E+04 -0.18947545168E+04  0.25729743127E+04  0.00000000000E+00 0.  1.
<mgrwt>
<rscale>  0 0.50013228E+04</rscale>
<asrwt>0</asrwt>
<pdfrwt beam="1">  1        2 0.40028478E+00 0.50013228E+04</pdfrwt>
<pdfrwt beam="2">  1       -2 0.36975495E+00 0.50013228E+04</pdfrwt>
<totfact> 0.25753323E-02</totfact>
</mgrwt>
</event>
<event>
 6    1  0.4630212E-004  0.2173734E+04  0.7818608E-02  0.8529441E-01
         -2   -1    0    0    0  501 -0.00000000000E+00  0.00000000000E+00  0.68703819922E+03  0.68703819922E+03  0.00000000000E+00 0. -1.
          2   -1    0    0  501    0  0.00000000000E+00 -0.00000000000E+00 -0.17193805400E+04  0.17193805400E+04  0.00000000000E+00 0.  1.
         23    2    1    2    0    0 -0.16333690079E+03 -0.73140029587E+03 -0.13855431690E+04  0.15779405192E+04  0.92417926513E+02 0.  0.
         11    1    3    3    0    0 -0.11992753913E+03 -0.58370495439E+03 -0.10200994393E+04  0.11813961887E+04  0.00000000000E+00 0. -1.
        -11    1    3    3    0    0 -0.43409361661E+02 -0.14769534148E+03 -0.36544372964E+03  0.39654433057E+03  0.00000000000E+00 0.  1.
         22    1    1    2    0    0  0.16333690079E+03  0.73140029587E+03  0.35320082820E+03  0.82847821999E+03  0.00000000000E+00 0. -1.
<mgrwt>
<rscale>  0 0.21737342E+04</rscale>
<asrwt>0</asrwt>
<pdfrwt beam="1">  1        2 0.26452008E+00 0.21737342E+04</pdfrwt>
<pdfrwt beam="2">  1       -2 0.10569818E+00 0.21737342E+04</pdfrwt>
<totfact> 0.63400022E+00</totfact>
</mgrwt>
</event>
<event>
 6    1  0.4630212E-004  0.2798126E+04  0.7818608E-02  0.8303850E-01
         -2   -1    0    0    0  501 -0.00000000000E+00  0.00000000000E+00  0.91518959275E+03  0.91518959275E+03  0.00000000000E+00 0. -1.
          2   -1    0    0  501    0  0.00000000000E+00 -0.00000000000E+00 -0.21387676700E+04  0.21387676700E+04  0.00000000000E+00 0.  1.
         23    2    1    2    0    0 -0.13446415687E+03  0.61596551897E+03  0.74894111614E+03  0.98312986813E+03  0.90207605692E+02 0.  0.
         13    1    3    3    0    0 -0.50911808514E+02  0.25634514271E+03  0.37988620879E+03  0.46110560186E+03  0.00000000000E+00 0.  1.
        -13    1    3    3    0    0 -0.83552348353E+02  0.35962037626E+03  0.36905490734E+03  0.52202426627E+03  0.00000000000E+00 0. -1.
         22    1    1    2    0    0  0.13446415687E+03 -0.61596551897E+03 -0.19725191934E+04  0.20708273946E+04  0.00000000000E+00 0.  1.
<mgrwt>
<rscale>  0 0.27981265E+04</rscale>
<asrwt>0</asrwt>
<pdfrwt beam="1">  1        2 0.32904118E+00 0.27981265E+04</pdfrwt>
<pdfrwt beam="2">  1       -2 0.14079840E+00 0.27981265E+04</pdfrwt>
<totfact> 0.17214182E+00</totfact>
</mgrwt>
</event>
<event>
 6    1  0.4630212E-004  0.2173355E+04  0.7818608E-02  0.8529601E-01
          2   -1    0    0  501    0  0.00000000000E+00  0.00000000000E+00  0.38899584309E+03  0.38899584309E+03  0.00000000000E+00 0.  1.
         -2   -1    0    0    0  501 -0.00000000000E+00 -0.00000000000E+00 -0.30356837079E+04  0.30356837079E+04  0.00000000000E+00 0. -1.
         23    2    1    2    0    0  0.55405887108E+03 -0.33431282536E+03 -0.26974834470E+04  0.27755828795E+04  0.93258115011E+02 0.  0.
         13    1    3    3    0    0  0.17608462845E+03 -0.15856016771E+03 -0.97669605586E+03  0.10050285114E+04  0.00000000000E+00 0.  1.
        -13    1    3    3    0    0  0.37797424263E+03 -0.17575265765E+03 -0.17207873912E+04  0.17705543681E+04  0.00000000000E+00 0. -1.
         22    1    1    2    0    0 -0.55405887108E+03  0.33431282536E+03  0.50795582207E+02  0.64909667153E+03  0.00000000000E+00 0.  1.
<mgrwt>
<rscale>  0 0.21733553E+04</rscale>
<asrwt>0</asrwt>
<pdfrwt beam="1">  1        2 0.59845515E-01 0.21733553E+04</pdfrwt>
<pdfrwt beam="2">  1       -2 0.46702826E+00 0.21733553E+04</pdfrwt>
<totfact> 0.20143424E-01</totfact>
</mgrwt>
</event>
<event>
 6    1  0.4630212E-004  0.2942126E+04  0.7818608E-02  0.8260453E-01
          2   -1    0    0  501    0  0.00000000000E+00  0.00000000000E+00  0.40061065069E+04  0.40061065069E+04  0.00000000000E+00 0.  1.
         -2   -1    0    0    0  501 -0.00000000000E+00 -0.00000000000E+00 -0.54018195503E+03  0.54018195503E+03  0.00000000000E+00 0. -1.
         23    2    1    2    0    0  0.25606287200E+03  0.11030536015E+04  0.28703426648E+03  0.11717308778E+04  0.90934798680E+02 0.  0.
         13    1    3    3    0    0  0.15125275814E+03  0.63281798716E+03  0.21095154940E+03  0.68398578780E+03  0.00000000000E+00 0.  1.
        -13    1    3    3    0    0  0.10481011385E+03  0.47023561434E+03  0.76082717077E+02  0.48774508998E+03  0.00000000000E+00 0. -1.
         22    1    1    2    0    0 -0.25606287200E+03 -0.11030536015E+04  0.31788902854E+04  0.33745575841E+04  0.00000000000E+00 0.  1.
<mgrwt>
<rscale>  0 0.29421261E+04</rscale>
<asrwt>0</asrwt>
<pdfrwt beam="1">  1        2 0.61632406E+00 0.29421261E+04</pdfrwt>
<pdfrwt beam="2">  1       -2 0.83104919E-01 0.29421261E+04</pdfrwt>
<totfact> 0.36888330E-01</totfact>
</mgrwt>
</event>
<event>
 6    1  0.4630212E-004  0.1525603E+04  0.7818608E-02  0.8867604E-01
         -2   -1    0    0    0  501 -0.00000000000E+00  0.00000000000E+00  0.39029485628E+03  0.39029485628E+03  0.00000000000E+00 0.  1.
          2   -1    0    0  501    0  0.00000000000E+00 -0.00000000000E+00 -0.14908367589E+04  0.14908367589E+04  0.00000000000E+00 0. -1.
         23    2    1    2    0    0 -0.29168559748E+03 -0.62924527321E+03 -0.16849401220E+03  0.71934705180E+03  0.89665194808E+02 0.  0.
         13    1    3    3    0    0 -0.16361067009E+03 -0.41379832319E+03 -0.71914585514E+02  0.45074295474E+03  0.00000000000E+00 0.  1.
        -13    1    3    3    0    0 -0.12807492739E+03 -0.21544695002E+03 -0.96579426685E+02  0.26860409706E+03  0.00000000000E+00 0. -1.
         22    1    1    2    0    0  0.29168559748E+03  0.62924527321E+03 -0.93204789038E+03  0.11617845633E+04  0.00000000000E+00 0. -1.
<mgrwt>
<rscale>  0 0.15256027E+04</rscale>
<asrwt>0</asrwt>
<pdfrwt beam="1">  1        2 0.22935950E+00 0.15256027E+04</pdfrwt>
<pdfrwt beam="2">  1       -2 0.60045362E-01 0.15256027E+04</pdfrwt>
<totfact> 0.32028890E+01</totfact>
</mgrwt>
</event>
<event>
 6    1  0.4630212E-004  0.3832220E+04  0.7818608E-02  0.8039276E-01
         -2   -1    0    0    0  501 -0.00000000000E+00  0.00000000000E+00  0.17884215834E+04  0.17884215834E+04  0.00000000000E+00 0. -1.
          2   -1    0    0  501    0  0.00000000000E+00 -0.00000000000E+00 -0.20529152714E+04  0.20529152714E+04  0.00000000000E+00 0.  1.
         23    2    1    2    0    0 -0.17536217108E+04  0.64697554062E+03 -0.54867235768E+03  0.19506957014E+04  0.10200935652E+03 0.  0.
         13    1    3    3    0    0 -0.33468879496E+03  0.11840736457E+03 -0.14614520767E+03  0.38392097518E+03  0.00000000000E+00 0. -1.
        -13    1    3    3    0    0 -0.14189329158E+04  0.52856817605E+03 -0.40252715000E+03  0.15667747262E+04  0.00000000000E+00 0.  1.
         22    1    1    2    0    0  0.17536217108E+04 -0.64697554062E+03  0.28417866962E+03  0.18906411534E+04  0.00000000000E+00 0. -1.
<mgrwt>
<rscale>  0 0.38322202E+04</rscale>
<asrwt>0</asrwt>
<pdfrwt beam="1">  1        2 0.31583312E+00 0.38322202E+04</pdfrwt>
<pdfrwt beam="2">  1       -2 0.27514178E+00 0.38322202E+04</pdfrwt>
<totfact> 0.22510125E-01</totfact>
</mgrwt>
</event>
<event>
 6    1  0.4630212E-004  0.8054648E+03  0.7818608E-02  0.9552141E-01
         -2   -1    0    0    0  501 -0.00000000000E+00  0.00000000000E+00  0.11760444861E+03  0.11760444861E+03  0.00000000000E+00 0. -1.
          2   -1    0    0  501    0  0.00000000000E+00 -0.00000000000E+00 -0.13791433524E+04  0.13791433524E+04  0.00000000000E+00 0.  1.
         23    2    1    2    0    0 -0.20950918165E+03 -0.33682927704E+03 -0.58827439804E+03  0.71531760338E+03  0.90909005334E+02 0.  0.
         11    1    3    3    0    0 -0.16767401630E+02 -0.99130706956E+02 -0.13218878831E+03  0.16607804964E+03  0.00000000000E+00 0. -1.
        -11    1    3    3    0    0 -0.19274178002E+03 -0.23769857008E+03 -0.45608560974E+03  0.54923955374E+03  0.00000000000E+00 0.  1.
         22    1    1    2    0    0  0.20950918165E+03  0.33682927704E+03 -0.67326450578E+03  0.78143019766E+03  0.00000000000E+00 0. -1.
<mgrwt>
<rscale>  0 0.80546482E+03</rscale>
<asrwt>0</asrwt>
<pdfrwt beam="1">  1        2 0.21217590E+00 0.80546482E+03</pdfrwt>
<pdfrwt beam="2">  1       -2 0.18092992E-01 0.80546482E+03</pdfrwt>
<totfact> 0.38097154E+02</totfact>
</mgrwt>
</event>
<event>
 6    1  0.4630212E-004  0.7113466E+03  0.7818608E-02  0.9698022E-01
          2   -1    0    0  501    0  0.00000000000E+00  0.00000000000E+00  0.71230141401E+03  0.71230141401E+03  0.00000000000E+00 0.  1.
         -2   -1    0    0    0  501 -0.00000000000E+00 -0.00000000000E+00 -0.17759825205E+03  0.17759825205E+03  0.00000000000E+00 0. -1.
         23    2    1    2    0    0 -0.21231567404E+03  0.25479607327E+03  0.41138716639E+03  0.53605532294E+03  0.90093974185E+02 0.  0.
         11    1    3    3    0    0 -0.36515977868E+02  0.74659326195E+02  0.54686160603E+02  0.99488731970E+02  0.00000000000E+00 0. -1.
        -11    1    3    3    0    0 -0.17579969617E+03  0.18013674708E+03  0.35670100579E+03  0.43656659097E+03  0.00000000000E+00 0.  1.
         22    1    1    2    0    0  0.21231567404E+03 -0.25479607327E+03  0.12331599557E+03  0.35384434312E+03  0.00000000000E+00 0. -1.
<mgrwt>
<rscale>  0 0.71134657E+03</rscale>
<asrwt>0</asrwt>
<pdfrwt beam="1">  1        2 0.10958483E+00 0.71134657E+03</pdfrwt>
<pdfrwt beam="2">  1       -2 0.27322808E-01 0.71134657E+03</pdfrwt>
<totfact> 0.49135125E+02</totfact>
</mgrwt>
</event>
<event>
 6    1  0.4630212E-004  0.3321391E+04  0.7818608E-02  0.8157474E-01
         -2   -1    0    0    0  501 -0.00000000000E+00  0.00000000000E+00  0.11697894071E+04  0.11697894071E+04  0.00000000000E+00 0. -1.
          2   -1    0    0  501    0  0.00000000000E+00 -0.00000000000E+00 -0.23576124558E+04  0.23576124558E+04  0.00000000000E+00 0.  1.
         23    2    1    2    0    0 -0.14184349441E+04  0.11745352913E+03 -0.15005404581E+04  0.20701629667E+04  0.90553964087E+02 0.  0.
         13    1    3    3    0    0 -0.11138425846E+04  0.56219867854E+02 -0.11884923414E+04  0.16298220830E+04  0.00000000000E+00 0. -1.
        -13    1    3    3    0    0 -0.30459235947E+03  0.61233661275E+02 -0.31204811670E+03  0.44034088370E+03  0.00000000000E+00 0.  1.
         22    1    1    2    0    0  0.14184349441E+04 -0.11745352913E+03  0.31271740936E+03  0.14572388961E+04  0.00000000000E+00 0. -1.
<mgrwt>
<rscale>  0 0.33213913E+04</rscale>
<asrwt>0</asrwt>
<pdfrwt beam="1">  1        2 0.36270961E+00 0.33213913E+04</pdfrwt>
<pdfrwt beam="2">  1       -2 0.17996760E+00 0.33213913E+04</pdfrwt>
<totfact> 0.63583418E-01</totfact>
</mgrwt>
</event>
<event>
 6    1  0.4630212E-004  0.2847876E+04  0.7818608E-02  0.8288557E-01
         -2   -1    0    0    0  501 -0.00000000000E+00  0.00000000000E+00  0.10730525100E+04  0.10730525100E+04  0.00000000000E+00 0. -1.
          2   -1    0    0  501    0  0.00000000000E+00 -0.00000000000E+00 -0.18895628016E+04  0.18895628016E+04  0.00000000000E+00 0.  1.
         23    2    1    2    0    0  0.22196715634E+03  0.66752272281E+03 -0.16949559525E+04  0.18372163676E+04  0.87363015778E+02 0.  0.
         13    1    3    3    0    0  0.13779255438E+03  0.53002368161E+03 -0.13119307912E+04  0.14216449247E+04  0.00000000000E+00 0. -1.
        -13    1    3    3    0    0  0.84174601967E+02  0.13749904121E+03 -0.38302516130E+03  0.41557144288E+03  0.00000000000E+00 0.  1.
         22    1    1    2    0    0 -0.22196715634E+03 -0.66752272281E+03  0.87844566085E+03  0.11253989439E+04  0.00000000000E+00 0. -1.
<mgrwt>
<rscale>  0 0.28478765E+04</rscale>
<asrwt>0</asrwt>
<pdfrwt beam="1">  1        2 0.29070196E+00 0.28478765E+04</pdfrwt>
<pdfrwt beam="2">  1       -2 0.16508500E+00 0.28478765E+04</pdfrwt>
<totfact> 0.15422336E+00</totfact>
</mgrwt>
</event>
<event>
 6    1  0.4630212E-004  0.4636981E+04  0.7818608E-02  0.7887085E-01
         -2   -1    0    0    0  501 -0.00000000000E+00  0.00000000000E+00  0.26100187734E+04  0.26100187734E+04  0.00000000000E+00 0. -1.
          2   -1    0    0  501    0  0.00000000000E+00 -0.00000000000E+00 -0.20595246631E+04  0.20595246631E+04  0.00000000000E+00 0.  1.
         23    2    1    2    0    0  0.14693442445E+04 -0.14293427651E+04 -0.81349381934E+03  0.22073378559E+04  0.92601117667E+02 0.  0.
         11    1    3    3    0    0  0.13142042274E+04 -0.12763563338E+04 -0.75708722766E+03  0.19822712510E+04  0.00000000000E+00 0.  1.
        -11    1    3    3    0    0  0.15514001712E+03 -0.15298643134E+03 -0.56406591684E+02  0.22506660496E+03  0.00000000000E+00 0. -1.
         22    1    1    2    0    0 -0.14693442445E+04  0.14293427651E+04  0.13639879296E+04  0.24622055806E+04  0.00000000000E+00 0. -1.
<mgrwt>
<rscale>  0 0.46369809E+04</rscale>
<asrwt>0</asrwt>
<pdfrwt beam="1">  1        2 0.31684995E+00 0.46369809E+04</pdfrwt>
<pdfrwt beam="2">  1       -2 0.40154135E+00 0.46369809E+04</pdfrwt>
<totfact> 0.33649288E-02</totfact>
</mgrwt>
</event>
<event>
 6    1  0.4630212E-004  0.1714717E+04  0.7818608E-02  0.8753015E-01
         -2   -1    0    0    0  501 -0.00000000000E+00  0.00000000000E+00  0.59877163606E+03  0.59877163606E+03  0.00000000000E+00 0. -1.
          2   -1    0    0  501    0  0.00000000000E+00 -0.00000000000E+00 -0.12276193997E+04  0.12276193997E+04  0.00000000000E+00 0.  1.
         23    2    1    2    0    0 -0.14980401252E+02  0.27941194796E+03 -0.11758512592E+04  0.12119740167E+04  0.89215381509E+02 0.  0.
         11    1    3    3    0    0  0.33526852023E+02  0.80334159395E+02 -0.41373007173E+03  0.42278859874E+03  0.00000000000E+00 0.  1.
        -11    1    3    3    0    0 -0.48507253275E+02  0.19907778857E+03 -0.76212118752E+03  0.78918541800E+03  0.00000000000E+00 0. -1.
         22    1    1    2    0    0  0.14980401252E+02 -0.27941194796E+03  0.54700349560E+03  0.61441701904E+03  0.00000000000E+00 0. -1.
<mgrwt>
<rscale>  0 0.17147171E+04</rscale>
<asrwt>0</asrwt>
<pdfrwt beam="1">  1        2 0.18886452E+00 0.17147171E+04</pdfrwt>
<pdfrwt beam="2">  1       -2 0.92118715E-01 0.17147171E+04</pdfrwt>
<totfact> 0.17358891E+01</totfact>
</mgrwt>
</event>
<event>
 6    1  0.4630212E-004  0.2289799E+04  0.7818608E-02  0.8481954E-01
          2   -1    0    0  501    0  0.00000000000E+00  0.00000000000E+00  0.13317162083E+04  0.13317162083E+04  0.00000000000E+00 0.  1.
         -2   -1    0    0    0  501 -0.00000000000E+00 -0.00000000000E+00 -0.98429028326E+03  0.98429028326E+03  0.00000000000E+00 0. -1.
         23    2    1    2    0    0 -0.11356455811E+04 -0.77767204760E+02  0.27849763790E+03  0.11756163246E+04  0.93670616779E+02 0.  0.
         11    1    3    3    0    0 -0.42300280346E+03 -0.21677713236E+02  0.57843813649E+02  0.42748941713E+03  0.00000000000E+00 0.  1.
        -11    1    3    3    0    0 -0.71264277764E+03 -0.56089491525E+02  0.22065382425E+03  0.74812690751E+03  0.00000000000E+00 0. -1.
         22    1    1    2    0    0  0.11356455811E+04  0.77767204760E+02  0.68928287117E+02  0.11403901669E+04  0.00000000000E+00 0.  1.
<mgrwt>
<rscale>  0 0.22897994E+04</rscale>
<asrwt>0</asrwt>
<pdfrwt beam="1">  1        2 0.20487942E+00 0.22897994E+04</pdfrwt>
<pdfrwt beam="2">  1       -2 0.15142927E+00 0.22897994E+04</pdfrwt>
<totfact> 0.42006633E+00</totfact>
</mgrwt>
</event>
<event>
 6    1  0.4630212E-004  0.3728997E+04  0.7818608E-02  0.8061566E-01
          2   -1    0    0  501    0  0.00000000000E+00  0.00000000000E+00  0.40238923952E+04  0.40238923952E+04  0.00000000000E+00 0.  1.
         -2   -1    0    0    0  501 -0.00000000000E+00 -0.00000000000E+00 -0.86392828874E+03  0.86392828874E+03  0.00000000000E+00 0. -1.
         23    2    1    2    0    0  0.83607496360E+03 -0.56276713647E+03 -0.47330690627E+03  0.11173583189E+04  0.93498612488E+02 0.  0.
         11    1    3    3    0    0  0.16591877963E+03 -0.89112114000E+02 -0.12383786740E+03  0.22540148113E+03  0.00000000000E+00 0. -1.
        -11    1    3    3    0    0  0.67015618397E+03 -0.47365502247E+03 -0.34946903887E+03  0.89195683772E+03  0.00000000000E+00 0.  1.
         22    1    1    2    0    0 -0.83607496360E+03  0.56276713647E+03  0.36332710127E+04  0.37704623650E+04  0.00000000000E+00 0.  1.
<mgrwt>
<rscale>  0 0.37289969E+04</rscale>
<asrwt>0</asrwt>
<pdfrwt beam="1">  1        2 0.61906036E+00 0.37289969E+04</pdfrwt>
<pdfrwt beam="2">  1       -2 0.13291205E+00 0.37289969E+04</pdfrwt>
<totfact> 0.10795527E-01</totfact>
</mgrwt>
</event>
<event>
 6    1  0.4630212E-004  0.1789404E+04  0.7818608E-02  0.8711954E-01
         -2   -1    0    0    0  501 -0.00000000000E+00  0.00000000000E+00  0.47338292668E+03  0.47338292668E+03  0.00000000000E+00 0. -1.
          2   -1    0    0  501    0  0.00000000000E+00 -0.00000000000E+00 -0.16910030449E+04  0.16910030449E+04  0.00000000000E+00 0.  1.
         23    2    1    2    0    0  0.71890223934E+03 -0.48976843368E+03 -0.37298560520E+03  0.95190875160E+03  0.10157982735E+03 0.  0.
         13    1    3    3    0    0  0.34196599566E+03 -0.17526175550E+03 -0.18153144257E+03  0.42498363471E+03  0.00000000000E+00 0. -1.
        -13    1    3    3    0    0  0.37693624368E+03 -0.31450667819E+03 -0.19145416263E+03  0.52692511689E+03  0.00000000000E+00 0.  1.
         22    1    1    2    0    0 -0.71890223934E+03  0.48976843368E+03 -0.84463451300E+03  0.12124772200E+04  0.00000000000E+00 0.  1.
<mgrwt>
<rscale>  0 0.17894043E+04</rscale>
<asrwt>0</asrwt>
<pdfrwt beam="1">  1        2 0.26015431E+00 0.17894043E+04</pdfrwt>
<pdfrwt beam="2">  1       -2 0.72828144E-01 0.17894043E+04</pdfrwt>
<totfact> 0.15971935E+01</totfact>
</mgrwt>
</event>
<event>
 6    1  0.4630212E-004  0.2205249E+04  0.7818608E-02  0.8516247E-01
          2   -1    0    0  501    0  0.00000000000E+00  0.00000000000E+00  0.16028678497E+04  0.16028678497E+04  0.00000000000E+00 0.  1.
         -2   -1    0    0    0  501 -0.00000000000E+00 -0.00000000000E+00 -0.75850345171E+03  0.75850345171E+03  0.00000000000E+00 0. -1.
         23    2    1    2    0    0 -0.83355215464E+03 -0.26338455898E+03  0.11391974809E+04  0.14388166054E+04  0.90783825428E+02 0.  0.
         13    1    3    3    0    0 -0.49674214772E+03 -0.19541553767E+03  0.73337703312E+03  0.90707324202E+03  0.00000000000E+00 0. -1.
        -13    1    3    3    0    0 -0.33681000692E+03 -0.67969021305E+02  0.40582044780E+03  0.53174336336E+03  0.00000000000E+00 0.  1.
         22    1    1    2    0    0  0.83355215464E+03  0.26338455898E+03 -0.29483308292E+03  0.92255469605E+03  0.00000000000E+00 0. -1.
<mgrwt>
<rscale>  0 0.22052490E+04</rscale>
<asrwt>0</asrwt>
<pdfrwt beam="1">  1        2 0.24659505E+00 0.22052490E+04</pdfrwt>
<pdfrwt beam="2">  1       -2 0.11669284E+00 0.22052490E+04</pdfrwt>
<totfact> 0.57761952E+00</totfact>
</mgrwt>
</event>
<event>
 6    1  0.4630212E-004  0.8077124E+03  0.7818608E-02  0.9548920E-01
         -1   -1    0    0    0  501 -0.00000000000E+00  0.00000000000E+00  0.28028003495E+03  0.28028003495E+03  0.00000000000E+00 0. -1.
          1   -1    0    0  501    0  0.00000000000E+00 -0.00000000000E+00 -0.58191741456E+03  0.58191741456E+03  0.00000000000E+00 0.  1.
         23    2    1    2    0    0 -0.30354917440E+03 -0.16842625216E+03  0.56687837525E+02  0.36329218303E+03  0.90874614883E+02 0.  0.
         13    1    3    3    0    0 -0.99802542386E+02 -0.92757279719E+02  0.52179706531E+02  0.14590127546E+03  0.00000000000E+00 0. -1.
        -13    1    3    3    0    0 -0.20374663201E+03 -0.75668972440E+02  0.45081309934E+01  0.21739090757E+03  0.00000000000E+00 0.  1.
         22    1    1    2    0    0  0.30354917440E+03  0.16842625216E+03 -0.35832521713E+03  0.49890526649E+03  0.00000000000E+00 0.  1.
<mgrwt>
<rscale>  0 0.80771241E+03</rscale>
<asrwt>0</asrwt>
<pdfrwt beam="1">  1        1 0.89525756E-01 0.80771241E+03</pdfrwt>
<pdfrwt beam="2">  1       -1 0.43120006E-01 0.80771241E+03</pdfrwt>
<totfact> 0.19183418E+02</totfact>
</mgrwt>
</event>
<event>
 6    1  0.6735010E-004  0.3390009E+04  0.7818608E-02  0.8140363E-01
         -2   -1    0    0    0  501 -0.00000000000E+00  0.00000000000E+00  0.98690791514E+03  0.98690791514E+03  0.00000000000E+00 0. -1.
          2   -1    0    0  501    0  0.00000000000E+00 -0.00000000000E+00 -0.29111529034E+04  0.29111529034E+04  0.00000000000E+00 0.  1.
         23    2    1    2    0    0 -0.10798436056E+04 -0.63059487170E+03 -0.22764431108E+04  0.25989243275E+04  0.92208018495E+02 0.  0.
         11    1    3    3    0    0 -0.54348722753E+03 -0.34767589513E+03 -0.10947306986E+04  0.12707053934E+04  0.00000000000E+00 0.  1.
        -11    1    3    3    0    0 -0.53635637809E+03 -0.28291897656E+03 -0.11817124122E+04  0.13282189341E+04  0.00000000000E+00 0. -1.
         22    1    1    2    0    0  0.10798436056E+04  0.63059487170E+03  0.35219812251E+03  0.12991364910E+04  0.00000000000E+00 0. -1.
<mgrwt>
<rscale>  0 0.33900088E+04</rscale>
<asrwt>0</asrwt>
<pdfrwt beam="1">  1        2 0.44786967E+00 0.33900088E+04</pdfrwt>
<pdfrwt beam="2">  1       -2 0.15183199E+00 0.33900088E+04</pdfrwt>
<totfact> 0.47535689E-01</totfact>
</mgrwt>
</event>
<event>
 6    1  0.4630212E-004  0.5014945E+04  0.7818608E-02  0.7826206E-01
         -2   -1    0    0    0  501 -0.00000000000E+00  0.00000000000E+00  0.13689760793E+04  0.13689760793E+04  0.00000000000E+00 0.  1.
          2   -1    0    0  501    0  0.00000000000E+00 -0.00000000000E+00 -0.45927883227E+04  0.45927883227E+04  0.00000000000E+00 0. -1.
         23    2    1    2    0    0  0.18068361853E+04 -0.11584480261E+04 -0.31516989034E+04  0.38142404409E+04  0.92549089860E+02 0.  0.
         13    1    3    3    0    0  0.12803664077E+04 -0.82723930072E+03 -0.23111152004E+04  0.27685585542E+04  0.00000000000E+00 0. -1.
        -13    1    3    3    0    0  0.52646977761E+03 -0.33120872536E+03 -0.84058370299E+03  0.10456818867E+04  0.00000000000E+00 0.  1.
         22    1    1    2    0    0 -0.18068361853E+04  0.11584480261E+04 -0.72113339996E+02  0.21475239611E+04  0.00000000000E+00 0.  1.
<mgrwt>
<rscale>  0 0.50149446E+04</rscale>
<asrwt>0</asrwt>
<pdfrwt beam="1">  1        2 0.70658282E+00 0.50149446E+04</pdfrwt>
<pdfrwt beam="2">  1       -2 0.21061170E+00 0.50149446E+04</pdfrwt>
<totfact> 0.81120386E-03</totfact>
</mgrwt>
</event>
<event>
 6    1  0.4630212E-004  0.1171675E+04  0.7818608E-02  0.9138017E-01
         -4   -1    0    0    0  501 -0.00000000000E+00  0.00000000000E+00  0.88196631816E+03  0.88196631816E+03  0.00000000000E+00 0.  1.
          4   -1    0    0  501    0  0.00000000000E+00 -0.00000000000E+00 -0.38913670905E+03  0.38913670905E+03  0.00000000000E+00 0. -1.
         23    2    1    2    0    0 -0.48533398208E+03 -0.17683864904E+03  0.53961642092E+03  0.75244129957E+03  0.90338505751E+02 0.  0.
         11    1    3    3    0    0 -0.25451163401E+03 -0.13829686571E+03  0.27892995313E+03  0.40212450020E+03  0.00000000000E+00 0. -1.
        -11    1    3    3    0    0 -0.23082234808E+03 -0.38541783326E+02  0.26068646778E+03  0.35031679937E+03  0.00000000000E+00 0.  1.
         22    1    1    2    0    0  0.48533398208E+03  0.17683864904E+03 -0.46786811801E+02  0.51866172764E+03  0.00000000000E+00 0.  1.
<mgrwt>
<rscale>  0 0.11716748E+04</rscale>
<asrwt>0</asrwt>
<pdfrwt beam="1">  1        4 0.59867186E-01 0.11716748E+04</pdfrwt>
<pdfrwt beam="2">  1       -4 0.13568713E+00 0.11716748E+04</pdfrwt>
<totfact> 0.20123153E+00</totfact>
</mgrwt>
</event>
<event>
 6    1  0.4630212E-004  0.2654773E+04  0.7818608E-02  0.8349830E-01
          2   -1    0    0  501    0  0.00000000000E+00  0.00000000000E+00  0.17363421697E+04  0.17363421697E+04  0.00000000000E+00 0.  1.
         -2   -1    0    0    0  501 -0.00000000000E+00 -0.00000000000E+00 -0.10147510521E+04  0.10147510521E+04  0.00000000000E+00 0. -1.
         23    2    1    2    0    0 -0.19355120737E+03 -0.11201159200E+04 -0.34606188206E+03  0.11916046287E+04  0.89671739567E+02 0.  0.
         11    1    3    3    0    0 -0.16361507272E+03 -0.80325875601E+03 -0.21556400665E+03  0.84762159133E+03  0.00000000000E+00 0.  1.
        -11    1    3    3    0    0 -0.29936134656E+02 -0.31685716396E+03 -0.13049787541E+03  0.34398303737E+03  0.00000000000E+00 0. -1.
         22    1    1    2    0    0  0.19355120737E+03  0.11201159200E+04  0.10676529997E+04  0.15594885930E+04  0.00000000000E+00 0.  1.
<mgrwt>
<rscale>  0 0.26547731E+04</rscale>
<asrwt>0</asrwt>
<pdfrwt beam="1">  1        2 0.26712956E+00 0.26547731E+04</pdfrwt>
<pdfrwt beam="2">  1       -2 0.15611555E+00 0.26547731E+04</pdfrwt>
<totfact> 0.22198654E+00</totfact>
</mgrwt>
</event>
<event>
 6    1  0.4630212E-004  0.1518740E+04  0.7818608E-02  0.8872086E-01
          2   -1    0    0  501    0  0.00000000000E+00  0.00000000000E+00  0.19755664813E+04  0.19755664813E+04  0.00000000000E+00 0.  1.
         -2   -1    0    0    0  501 -0.00000000000E+00 -0.00000000000E+00 -0.29188722098E+03  0.29188722098E+03  0.00000000000E+00 0. -1.
         23    2    1    2    0    0 -0.33936601045E+03  0.53408986677E+03  0.14641805181E+04  0.15976768941E+04  0.91244691126E+02 0.  0.
         11    1    3    3    0    0 -0.20419400927E+03  0.32444481217E+03  0.77245614657E+03  0.86235035104E+03  0.00000000000E+00 0. -1.
        -11    1    3    3    0    0 -0.13517200118E+03  0.20964505460E+03  0.69172437154E+03  0.73532654311E+03  0.00000000000E+00 0.  1.
         22    1    1    2    0    0  0.33936601045E+03 -0.53408986677E+03  0.21949874218E+03  0.66977680809E+03  0.00000000000E+00 0. -1.
<mgrwt>
<rscale>  0 0.15187398E+04</rscale>
<asrwt>0</asrwt>
<pdfrwt beam="1">  1        2 0.30393330E+00 0.15187398E+04</pdfrwt>
<pdfrwt beam="2">  1       -2 0.44905727E-01 0.15187398E+04</pdfrwt>
<totfact> 0.31288824E+01</totfact>
</mgrwt>
</event>
<event>
 6    1  0.4630212E-004  0.2001692E+04  0.7818608E-02  0.8605830E-01
         -2   -1    0    0    0  501 -0.00000000000E+00  0.00000000000E+00  0.35994586025E+03  0.35994586025E+03  0.00000000000E+00 0. -1.
          2   -1    0    0  501    0  0.00000000000E+00 -0.00000000000E+00 -0.27828969126E+04  0.27828969126E+04  0.00000000000E+00 0.  1.
         23    2    1    2    0    0  0.37373927022E+03 -0.90046431277E+03 -0.15465483664E+04  0.18318894218E+04  0.11614638798E+03 0.  0.
         13    1    3    3    0    0  0.16884926193E+03 -0.51064047534E+03 -0.92789681134E+03  0.10725000050E+04  0.00000000000E+00 0. -1.
        -13    1    3    3    0    0  0.20489000829E+03 -0.38982383744E+03 -0.61865155509E+03  0.75938941680E+03  0.00000000000E+00 0.  1.
         22    1    1    2    0    0 -0.37373927022E+03  0.90046431277E+03 -0.87640268597E+03  0.13109533511E+04  0.00000000000E+00 0.  1.
<mgrwt>
<rscale>  0 0.20016915E+04</rscale>
<asrwt>0</asrwt>
<pdfrwt beam="1">  1        2 0.42813798E+00 0.20016915E+04</pdfrwt>
<pdfrwt beam="2">  1       -2 0.55376287E-01 0.20016915E+04</pdfrwt>
<totfact> 0.67524968E+00</totfact>
</mgrwt>
</event>
<event>
 6    1  0.4630212E-004  0.6624361E+03  0.7818608E-02  0.9783720E-01
         -2   -1    0    0    0  501 -0.00000000000E+00  0.00000000000E+00  0.19180182395E+03  0.19180182395E+03  0.00000000000E+00 0. -1.
          2   -1    0    0  501    0  0.00000000000E+00 -0.00000000000E+00 -0.57197262598E+03  0.57197262598E+03  0.00000000000E+00 0.  1.
         23    2    1    2    0    0 -0.15110605318E+03 -0.19585616558E+03 -0.43677545670E+03  0.51000927535E+03  0.90244027286E+02 0.  0.
         11    1    3    3    0    0 -0.66435562145E+02 -0.12967165163E+03 -0.31824912401E+03  0.35001560835E+03  0.00000000000E+00 0. -1.
        -11    1    3    3    0    0 -0.84670491035E+02 -0.66184513951E+02 -0.11852633269E+03  0.15999366700E+03  0.00000000000E+00 0.  1.
         22    1    1    2    0    0  0.15110605318E+03  0.19585616558E+03  0.56604654676E+02  0.25376517459E+03  0.00000000000E+00 0. -1.
<mgrwt>
<rscale>  0 0.66243609E+03</rscale>
<asrwt>0</asrwt>
<pdfrwt beam="1">  1        2 0.87995786E-01 0.66243609E+03</pdfrwt>
<pdfrwt beam="2">  1       -2 0.29507974E-01 0.66243609E+03</pdfrwt>
<totfact> 0.55893956E+02</totfact>
</mgrwt>
</event>
<event>
 6    1  0.4630212E-004  0.4278003E+04  0.7818608E-02  0.7950698E-01
          2   -1    0    0  501    0  0.00000000000E+00  0.00000000000E+00  0.17916942580E+04  0.17916942580E+04  0.00000000000E+00 0.  1.
         -2   -1    0    0    0  501 -0.00000000000E+00 -0.00000000000E+00 -0.25536317690E+04  0.25536317690E+04  0.00000000000E+00 0. -1.
         23    2    1    2    0    0 -0.12990912303E+04 -0.11706290612E+04 -0.16305213211E+04  0.23927768576E+04  0.93653020551E+02 0.  0.
         11    1    3    3    0    0 -0.68037333325E+03 -0.55181501394E+03 -0.80071188949E+03  0.11868223170E+04  0.00000000000E+00 0. -1.
        -11    1    3    3    0    0 -0.61871789706E+03 -0.61881404730E+03 -0.82980943157E+03  0.12059545406E+04  0.00000000000E+00 0.  1.
         22    1    1    2    0    0  0.12990912303E+04  0.11706290612E+04  0.86858381006E+03  0.19525491694E+04  0.00000000000E+00 0.  1.
<mgrwt>
<rscale>  0 0.42780030E+04</rscale>
<asrwt>0</asrwt>
<pdfrwt beam="1">  1        2 0.27564527E+00 0.42780030E+04</pdfrwt>
<pdfrwt beam="2">  1       -2 0.39286642E+00 0.42780030E+04</pdfrwt>
<totfact> 0.55574326E-02</totfact>
</mgrwt>
</event>
<event>
 6    1  0.4630212E-004  0.2485346E+04  0.7818608E-02  0.8408225E-01
          2   -1    0    0  501    0  0.00000000000E+00  0.00000000000E+00  0.17348328799E+04  0.17348328799E+04  0.00000000000E+00 0.  1.
         -2   -1    0    0    0  501 -0.00000000000E+00 -0.00000000000E+00 -0.89013507810E+03  0.89013507810E+03  0.00000000000E+00 0. -1.
         23    2    1    2    0    0  0.22893322802E+03 -0.19206671652E+03 -0.85050360497E+03  0.90362898616E+03  0.62361174399E+02 0.  0.
         11    1    3    3    0    0  0.29027283087E+02 -0.45526216460E+01 -0.11565926820E+03  0.11933304592E+03  0.00000000000E+00 0. -1.
        -11    1    3    3    0    0  0.19990594493E+03 -0.18751409488E+03 -0.73484433676E+03  0.78429594024E+03  0.00000000000E+00 0.  1.
         22    1    1    2    0    0 -0.22893322802E+03  0.19206671652E+03  0.16952014067E+04  0.17213389718E+04  0.00000000000E+00 0.  1.
<mgrwt>
<rscale>  0 0.24853455E+04</rscale>
<asrwt>0</asrwt>
<pdfrwt beam="1">  1        2 0.26689737E+00 0.24853455E+04</pdfrwt>
<pdfrwt beam="2">  1       -2 0.13694386E+00 0.24853455E+04</pdfrwt>
<totfact> 0.31855477E+00</totfact>
</mgrwt>
</event>
<event>
 6    1  0.4630212E-004  0.3274003E+04  0.7818608E-02  0.8169542E-01
         -2   -1    0    0    0  501 -0.00000000000E+00  0.00000000000E+00  0.10319272901E+04  0.10319272901E+04  0.00000000000E+00 0. -1.
          2   -1    0    0  501    0  0.00000000000E+00 -0.00000000000E+00 -0.25968628926E+04  0.25968628926E+04  0.00000000000E+00 0.  1.
         23    2    1    2    0    0 -0.91731608317E+03  0.98974760720E+03  0.24196209568E+03  0.13735854439E+04  0.84393089238E+02 0.  0.
         13    1    3    3    0    0 -0.26491900571E+03  0.23148422813E+03  0.60850577991E+02  0.35702915889E+03  0.00000000000E+00 0.  1.
        -13    1    3    3    0    0 -0.65239707746E+03  0.75826337907E+03  0.18111151769E+03  0.10165562850E+04  0.00000000000E+00 0. -1.
         22    1    1    2    0    0  0.91731608317E+03 -0.98974760720E+03 -0.18068976982E+04  0.22552047388E+04  0.00000000000E+00 0.  1.
<mgrwt>
<rscale>  0 0.32740029E+04</rscale>
<asrwt>0</asrwt>
<pdfrwt beam="1">  1        2 0.39951736E+00 0.32740029E+04</pdfrwt>
<pdfrwt beam="2">  1       -2 0.15875805E+00 0.32740029E+04</pdfrwt>
<totfact> 0.65796601E-01</totfact>
</mgrwt>
</event>
<event>
 6    1  0.4630212E-004  0.1800144E+04  0.7818608E-02  0.8706223E-01
         -2   -1    0    0    0  501 -0.00000000000E+00  0.00000000000E+00  0.57839542738E+03  0.57839542738E+03  0.00000000000E+00 0. -1.
          2   -1    0    0  501    0  0.00000000000E+00 -0.00000000000E+00 -0.14006496036E+04  0.14006496036E+04  0.00000000000E+00 0.  1.
         23    2    1    2    0    0  0.67616801141E+03  0.34512015636E+03 -0.93900145694E+03  0.12109688437E+04  0.91709880646E+02 0.  0.
         11    1    3    3    0    0  0.50654435990E+03  0.28438449687E+03 -0.76429038780E+03  0.96000079557E+03  0.00000000000E+00 0. -1.
        -11    1    3    3    0    0  0.16962365151E+03  0.60735659497E+02 -0.17471106914E+03  0.25096804810E+03  0.00000000000E+00 0.  1.
         22    1    1    2    0    0 -0.67616801141E+03 -0.34512015636E+03  0.11674728071E+03  0.76807618733E+03  0.00000000000E+00 0. -1.
<mgrwt>
<rscale>  0 0.18001437E+04</rscale>
<asrwt>0</asrwt>
<pdfrwt beam="1">  1        2 0.21548455E+00 0.18001437E+04</pdfrwt>
<pdfrwt beam="2">  1       -2 0.88983912E-01 0.18001437E+04</pdfrwt>
<totfact> 0.14808785E+01</totfact>
</mgrwt>
</event>
<event>
 6    1  0.4630212E-004  0.3409881E+04  0.7818608E-02  0.8135485E-01
         -2   -1    0    0    0  501 -0.00000000000E+00  0.00000000000E+00  0.12960431112E+04  0.12960431112E+04  0.00000000000E+00 0. -1.
          2   -1    0    0  501    0  0.00000000000E+00 -0.00000000000E+00 -0.22428441280E+04  0.22428441280E+04  0.00000000000E+00 0.  1.
         23    2    1    2    0    0 -0.36772270781E+03 -0.12171509221E+03  0.12482330633E+04  0.13099392437E+04  0.88433523904E+02 0.  0.
         13    1    3    3    0    0 -0.32606454646E+03 -0.10299180005E+03  0.11739722374E+04  0.12227576266E+04  0.00000000000E+00 0.  1.
        -13    1    3    3    0    0 -0.41658161349E+02 -0.18723292158E+02  0.74260825981E+02  0.87181617051E+02  0.00000000000E+00 0. -1.
         22    1    1    2    0    0  0.36772270781E+03  0.12171509221E+03 -0.21950340802E+04  0.22289479955E+04  0.00000000000E+00 0.  1.
<mgrwt>
<rscale>  0 0.34098813E+04</rscale>
<asrwt>0</asrwt>
<pdfrwt beam="1">  1        2 0.34505294E+00 0.34098813E+04</pdfrwt>
<pdfrwt beam="2">  1       -2 0.19939125E+00 0.34098813E+04</pdfrwt>
<totfact> 0.54272313E-01</totfact>
</mgrwt>
</event>
<event>
 6    1  0.4630212E-004  0.4289593E+03  0.7818608E-02  0.1034189E+00
         -2   -1    0    0    0  501 -0.00000000000E+00  0.00000000000E+00  0.41460090236E+02  0.41460090236E+02  0.00000000000E+00 0. -1.
          2   -1    0    0  501    0  0.00000000000E+00 -0.00000000000E+00 -0.11095373269E+04  0.11095373269E+04  0.00000000000E+00 0.  1.
         23    2    1    2    0    0  0.19275187676E+03 -0.66818526509E+02 -0.53455258047E+03  0.57979993793E+03  0.93826996426E+02 0.  0.
         11    1    3    3    0    0  0.18478566095E+03 -0.84940394829E+02 -0.50291651497E+03  0.54248099709E+03  0.00000000000E+00 0.  1.
        -11    1    3    3    0    0  0.79662158143E+01  0.18121868320E+02 -0.31636065497E+02  0.37318940847E+02  0.00000000000E+00 0. -1.
         22    1    1    2    0    0 -0.19275187676E+03  0.66818526509E+02 -0.53352465618E+03  0.57119747919E+03  0.00000000000E+00 0. -1.
<mgrwt>
<rscale>  0 0.42895929E+03</rscale>
<asrwt>0</asrwt>
<pdfrwt beam="1">  1        2 0.17069802E+00 0.42895929E+03</pdfrwt>
<pdfrwt beam="2">  1       -2 0.63784766E-02 0.42895929E+03</pdfrwt>
<totfact> 0.30444548E+03</totfact>
</mgrwt>
</event>
<event>
 6    1  0.4630212E-004  0.2574672E+04  0.7818608E-02  0.8376856E-01
          2   -1    0    0  501    0  0.00000000000E+00  0.00000000000E+00  0.21918571396E+04  0.21918571396E+04  0.00000000000E+00 0.  1.
         -2   -1    0    0    0  501 -0.00000000000E+00 -0.00000000000E+00 -0.75608683249E+03  0.75608683249E+03  0.00000000000E+00 0. -1.
         23    2    1    2    0    0  0.22467975209E+03 -0.42760297459E+03 -0.64552897145E+03  0.81132702424E+03  0.90656452656E+02 0.  0.
         11    1    3    3    0    0  0.19987971693E+03 -0.29479470845E+03 -0.47819348151E+03  0.59625902688E+03  0.00000000000E+00 0. -1.
        -11    1    3    3    0    0  0.24800035163E+02 -0.13280826614E+03 -0.16733548994E+03  0.21506799737E+03  0.00000000000E+00 0.  1.
         22    1    1    2    0    0 -0.22467975209E+03  0.42760297459E+03  0.20812992786E+04  0.21366169479E+04  0.00000000000E+00 0.  1.
<mgrwt>
<rscale>  0 0.25746723E+04</rscale>
<asrwt>0</asrwt>
<pdfrwt beam="1">  1        2 0.33720879E+00 0.25746723E+04</pdfrwt>
<pdfrwt beam="2">  1       -2 0.11632105E+00 0.25746723E+04</pdfrwt>
<totfact> 0.26521858E+00</totfact>
</mgrwt>
</event>
<event>
 6    1  0.4630212E-004  0.2604652E+04  0.7818608E-02  0.8366623E-01
          2   -1    0    0  501    0  0.00000000000E+00  0.00000000000E+00  0.35524929185E+04  0.35524929185E+04  0.00000000000E+00 0.  1.
         -2   -1    0    0    0  501 -0.00000000000E+00 -0.00000000000E+00 -0.47742608722E+03  0.47742608722E+03  0.00000000000E+00 0. -1.
         23    2    1    2    0    0 -0.73121723598E+03  0.96612187812E+03  0.22719279989E+04  0.25762677017E+04  0.86187638476E+02 0.  0.
         13    1    3    3    0    0 -0.15880870097E+03  0.27219637170E+03  0.59554821333E+03  0.67378686739E+03  0.00000000000E+00 0.  1.
        -13    1    3    3    0    0 -0.57240853501E+03  0.69392550642E+03  0.16763797855E+04  0.19024808343E+04  0.00000000000E+00 0. -1.
         22    1    1    2    0    0  0.73121723598E+03 -0.96612187812E+03  0.80313883239E+03  0.14536513040E+04  0.00000000000E+00 0. -1.
<mgrwt>
<rscale>  0 0.26046518E+04</rscale>
<asrwt>0</asrwt>
<pdfrwt beam="1">  1        2 0.54653735E+00 0.26046518E+04</pdfrwt>
<pdfrwt beam="2">  1       -2 0.73450170E-01 0.26046518E+04</pdfrwt>
<totfact> 0.11048488E+00</totfact>
</mgrwt>
</event>
<event>
 6    1  0.4630212E-004  0.1220000E+04  0.7818608E-02  0.9095528E-01
         -2   -1    0    0    0  501 -0.00000000000E+00  0.00000000000E+00  0.65364378600E+03  0.65364378600E+03  0.00000000000E+00 0.  1.
          2   -1    0    0  501    0  0.00000000000E+00 -0.00000000000E+00 -0.56927030415E+03  0.56927030415E+03  0.00000000000E+00 0. -1.
         23    2    1    2    0    0  0.10625631557E+03  0.39634260438E+03  0.49025252211E+03  0.64575236240E+03  0.90943463035E+02 0.  0.
         11    1    3    3    0    0  0.71760267881E+02  0.29169037361E+03  0.41504300269E+03  0.51234119899E+03  0.00000000000E+00 0.  1.
        -11    1    3    3    0    0  0.34496047694E+02  0.10465223077E+03  0.75209519422E+02  0.13341116341E+03  0.00000000000E+00 0. -1.
         22    1    1    2    0    0 -0.10625631557E+03 -0.39634260438E+03 -0.40587904026E+03  0.57716172774E+03  0.00000000000E+00 0. -1.
<mgrwt>
<rscale>  0 0.12200000E+04</rscale>
<asrwt>0</asrwt>
<pdfrwt beam="1">  1        2 0.87580047E-01 0.12200000E+04</pdfrwt>
<pdfrwt beam="2">  1       -2 0.10056058E+00 0.12200000E+04</pdfrwt>
<totfact> 0.42451776E+01</totfact>
</mgrwt>
</event>
<event>
 6    1  0.4630212E-004  0.2245162E+04  0.7818608E-02  0.8499862E-01
         -2   -1    0    0    0  501 -0.00000000000E+00  0.00000000000E+00  0.14632287484E+04  0.14632287484E+04  0.00000000000E+00 0. -1.
          2   -1    0    0  501    0  0.00000000000E+00 -0.00000000000E+00 -0.86123793656E+03  0.86123793656E+03  0.00000000000E+00 0.  1.
         23    2    1    2    0    0 -0.18382541363E+03 -0.65683213523E+03 -0.61823700606E+03  0.92654817369E+03  0.10513936436E+03 0.  0.
         11    1    3    3    0    0 -0.14618238118E+03 -0.32745915921E+03 -0.32253980025E+03  0.48231806131E+03  0.00000000000E+00 0.  1.
        -11    1    3    3    0    0 -0.37643032457E+02 -0.32937297602E+03 -0.29569720581E+03  0.44423011238E+03  0.00000000000E+00 0. -1.
         22    1    1    2    0    0  0.18382541363E+03  0.65683213523E+03  0.12202278179E+04  0.13979185113E+04  0.00000000000E+00 0. -1.
<mgrwt>
<rscale>  0 0.22451620E+04</rscale>
<asrwt>0</asrwt>
<pdfrwt beam="1">  1        2 0.13249814E+00 0.22451620E+04</pdfrwt>
<pdfrwt beam="2">  1       -2 0.22511211E+00 0.22451620E+04</pdfrwt>
<totfact> 0.26038536E+00</totfact>
</mgrwt>
</event>
<event>
 6    1  0.4630212E-004  0.3805345E+04  0.7818608E-02  0.8045009E-01
         -2   -1    0    0    0  501 -0.00000000000E+00  0.00000000000E+00  0.13640961738E+04  0.13640961738E+04  0.00000000000E+00 0. -1.
          2   -1    0    0  501    0  0.00000000000E+00 -0.00000000000E+00 -0.26538911229E+04  0.26538911229E+04  0.00000000000E+00 0.  1.
         23    2    1    2    0    0  0.96896793734E+03 -0.14643640097E+04 -0.14159613967E+04  0.22575388341E+04  0.90962047782E+02 0.  0.
         11    1    3    3    0    0  0.37198559316E+03 -0.63007080414E+03 -0.55795002769E+03  0.92014712582E+03  0.00000000000E+00 0. -1.
        -11    1    3    3    0    0  0.59698234418E+03 -0.83429320560E+03 -0.85801136897E+03  0.13373917083E+04  0.00000000000E+00 0.  1.
         22    1    1    2    0    0 -0.96896793734E+03  0.14643640097E+04  0.12616644756E+03  0.17604484625E+04  0.00000000000E+00 0.  1.
<mgrwt>
<rscale>  0 0.38053450E+04</rscale>
<asrwt>0</asrwt>
<pdfrwt beam="1">  1        2 0.40829094E+00 0.38053450E+04</pdfrwt>
<pdfrwt beam="2">  1       -2 0.20986095E+00 0.38053450E+04</pdfrwt>
<totfact> 0.26007251E-01</totfact>
</mgrwt>
</event>
<event>
 6    1  0.4630212E-004  0.1741622E+04  0.7818608E-02  0.8737975E-01
         -2   -1    0    0    0  501 -0.00000000000E+00  0.00000000000E+00  0.91367467031E+03  0.91367467031E+03  0.00000000000E+00 0. -1.
          2   -1    0    0  501    0  0.00000000000E+00 -0.00000000000E+00 -0.82995817974E+03  0.82995817974E+03  0.00000000000E+00 0.  1.
         23    2    1    2    0    0  0.53124354345E+03 -0.67935979196E+03 -0.66170639893E+02  0.86829544010E+03  0.76216719384E+02 0.  0.
         11    1    3    3    0    0  0.15247644232E+03 -0.18483837623E+03  0.15197491990E+02  0.24009426180E+03  0.00000000000E+00 0.  1.
        -11    1    3    3    0    0  0.37876710113E+03 -0.49452141574E+03 -0.81368131883E+02  0.62820117829E+03  0.00000000000E+00 0. -1.
         22    1    1    2    0    0 -0.53124354345E+03  0.67935979196E+03  0.14988713047E+03  0.87533740996E+03  0.00000000000E+00 0.  1.
<mgrwt>
<rscale>  0 0.17416220E+04</rscale>
<asrwt>0</asrwt>
<pdfrwt beam="1">  1        2 0.12768587E+00 0.17416220E+04</pdfrwt>
<pdfrwt beam="2">  1       -2 0.14056533E+00 0.17416220E+04</pdfrwt>
<totfact> 0.11048989E+01</totfact>
</mgrwt>
</event>
<event>
 6    1  0.4630212E-004  0.3688147E+04  0.7818608E-02  0.8070594E-01
         -2   -1    0    0    0  501 -0.00000000000E+00  0.00000000000E+00  0.99250195149E+03  0.99250195149E+03  0.00000000000E+00 0. -1.
          2   -1    0    0  501    0  0.00000000000E+00 -0.00000000000E+00 -0.34262976347E+04  0.34262976347E+04  0.00000000000E+00 0.  1.
         23    2    1    2    0    0 -0.47489013720E+02 -0.12102994007E+04 -0.28818613917E+04  0.31273497324E+04  0.90063431707E+02 0.  0.
         11    1    3    3    0    0 -0.53236655508E+02 -0.10887078769E+04 -0.25224833717E+04  0.27479158181E+04  0.00000000000E+00 0.  1.
        -11    1    3    3    0    0  0.57476417882E+01 -0.12159152376E+03 -0.35937801998E+03  0.37943391425E+03  0.00000000000E+00 0. -1.
         22    1    1    2    0    0  0.47489013720E+02  0.12102994007E+04  0.44806570852E+03  0.12914498538E+04  0.00000000000E+00 0. -1.
<mgrwt>
<rscale>  0 0.36881470E+04</rscale>
<asrwt>0</asrwt>
<pdfrwt beam="1">  1        2 0.52712272E+00 0.36881470E+04</pdfrwt>
<pdfrwt beam="2">  1       -2 0.15269261E+00 0.36881470E+04</pdfrwt>
<totfact> 0.21116632E-01</totfact>
</mgrwt>
</event>
<event>
 6    1  0.4630212E-004  0.4488481E+04  0.7818608E-02  0.7912656E-01
         -2   -1    0    0    0  501 -0.00000000000E+00  0.00000000000E+00  0.24631821579E+04  0.24631821579E+04  0.00000000000E+00 0. -1.
          2   -1    0    0  501    0  0.00000000000E+00 -0.00000000000E+00 -0.20447599794E+04  0.20447599794E+04  0.00000000000E+00 0.  1.
         23    2    1    2    0    0 -0.19963064083E+02  0.92788308502E+03 -0.18421005313E+04  0.20643119556E+04  0.81755361316E+02 0.  0.
         13    1    3    3    0    0 -0.43679903030E+02  0.69261379131E+03 -0.13263720361E+04  0.14969584417E+04  0.00000000000E+00 0.  1.
        -13    1    3    3    0    0  0.23716838948E+02  0.23526929372E+03 -0.51572849517E+03  0.56735351391E+03  0.00000000000E+00 0. -1.
         22    1    1    2    0    0  0.19963064083E+02 -0.92788308502E+03  0.22605227098E+04  0.24436301817E+04  0.00000000000E+00 0. -1.
<mgrwt>
<rscale>  0 0.44884814E+04</rscale>
<asrwt>0</asrwt>
<pdfrwt beam="1">  1        2 0.31457846E+00 0.44884814E+04</pdfrwt>
<pdfrwt beam="2">  1       -2 0.37895110E+00 0.44884814E+04</pdfrwt>
<totfact> 0.48653926E-02</totfact>
</mgrwt>
</event>
<event>
 6    1  0.5417806E-004  0.3814140E+04  0.7818608E-02  0.8043127E-01
          2   -1    0    0  501    0  0.00000000000E+00  0.00000000000E+00  0.13415988254E+04  0.13415988254E+04  0.00000000000E+00 0.  1.
         -2   -1    0    0    0  501 -0.00000000000E+00 -0.00000000000E+00 -0.27108813859E+04  0.27108813859E+04  0.00000000000E+00 0. -1.
         23    2    1    2    0    0 -0.15052407634E+04 -0.57568094611E+01 -0.19272480158E+04  0.24471427558E+04  0.91868688398E+02 0.  0.
         13    1    3    3    0    0 -0.90165428428E+03  0.41582137033E+02 -0.11536513340E+04  0.14647938158E+04  0.00000000000E+00 0. -1.
        -13    1    3    3    0    0 -0.60358647915E+03 -0.47338946494E+02 -0.77359668186E+03  0.98234893996E+03  0.00000000000E+00 0.  1.
         22    1    1    2    0    0  0.15052407634E+04  0.57568094611E+01  0.55796545534E+03  0.16053374555E+04  0.00000000000E+00 0.  1.
<mgrwt>
<rscale>  0 0.38141396E+04</rscale>
<asrwt>0</asrwt>
<pdfrwt beam="1">  1        2 0.20639982E+00 0.38141396E+04</pdfrwt>
<pdfrwt beam="2">  1       -2 0.41705867E+00 0.38141396E+04</pdfrwt>
<totfact> 0.71752637E-02</totfact>
</mgrwt>
</event>
<event>
 6    1  0.4630212E-004  0.2270519E+04  0.7818608E-02  0.8489637E-01
          2   -1    0    0  501    0  0.00000000000E+00  0.00000000000E+00  0.31754561860E+04  0.31754561860E+04  0.00000000000E+00 0.  1.
         -2   -1    0    0    0  501 -0.00000000000E+00 -0.00000000000E+00 -0.40586722212E+03  0.40586722212E+03  0.00000000000E+00 0. -1.
         23    2    1    2    0    0 -0.13644342055E+03  0.37854430330E+03  0.30583672536E+04  0.30860401587E+04  0.90116627662E+02 0.  0.
         13    1    3    3    0    0 -0.68839975469E+02  0.30003911498E+03  0.21956591311E+04  0.22171336073E+04  0.00000000000E+00 0. -1.
        -13    1    3    3    0    0 -0.67603445082E+02  0.78505188324E+02  0.86270812253E+03  0.86890655139E+03  0.00000000000E+00 0.  1.
         22    1    1    2    0    0  0.13644342055E+03 -0.37854430330E+03 -0.28877828970E+03  0.49528324944E+03  0.00000000000E+00 0. -1.
<mgrwt>
<rscale>  0 0.22705185E+04</rscale>
<asrwt>0</asrwt>
<pdfrwt beam="1">  1        2 0.48853171E+00 0.22705185E+04</pdfrwt>
<pdfrwt beam="2">  1       -2 0.62441113E-01 0.22705185E+04</pdfrwt>
<totfact> 0.29136338E+00</totfact>
</mgrwt>
</event>
<event>
 6    1  0.4630212E-004  0.3560683E+04  0.7818608E-02  0.8099557E-01
         -2   -1    0    0    0  501 -0.00000000000E+00  0.00000000000E+00  0.22762662202E+04  0.22762662202E+04  0.00000000000E+00 0. -1.
          2   -1    0    0  501    0  0.00000000000E+00 -0.00000000000E+00 -0.13924629795E+04  0.13924629795E+04  0.00000000000E+00 0.  1.
         23    2    1    2    0    0  0.11748950193E+04  0.23483958843E+03 -0.91251394514E+03  0.15094970743E+04  0.10184192943E+03 0.  0.
         13    1    3    3    0    0  0.56179012218E+03  0.71035091243E+02 -0.39170957430E+03  0.68854231254E+03  0.00000000000E+00 0. -1.
        -13    1    3    3    0    0  0.61310489717E+03  0.16380449719E+03 -0.52080437084E+03  0.82095476180E+03  0.00000000000E+00 0.  1.
         22    1    1    2    0    0 -0.11748950193E+04 -0.23483958843E+03  0.17963171859E+04  0.21592321254E+04  0.00000000000E+00 0. -1.
<mgrwt>
<rscale>  0 0.35606833E+04</rscale>
<asrwt>0</asrwt>
<pdfrwt beam="1">  1        2 0.21422507E+00 0.35606833E+04</pdfrwt>
<pdfrwt beam="2">  1       -2 0.35019480E+00 0.35606833E+04</pdfrwt>
<totfact> 0.18532126E-01</totfact>
</mgrwt>
</event>
<event>
 6    1  0.4630212E-004  0.4243744E+04  0.7818608E-02  0.7957103E-01
         -2   -1    0    0    0  501 -0.00000000000E+00  0.00000000000E+00  0.13487890074E+04  0.13487890074E+04  0.00000000000E+00 0. -1.
          2   -1    0    0  501    0  0.00000000000E+00 -0.00000000000E+00 -0.33380609067E+04  0.33380609067E+04  0.00000000000E+00 0.  1.
         23    2    1    2    0    0  0.10408328975E+04  0.75512088774E+03 -0.28578100321E+04  0.31351092259E+04  0.91054945149E+02 0.  0.
         13    1    3    3    0    0  0.29755421753E+03  0.22595987802E+03 -0.73453528747E+03  0.82409857868E+03  0.00000000000E+00 0.  1.
        -13    1    3    3    0    0  0.74327867993E+03  0.52916100972E+03 -0.21232747446E+04  0.23110106472E+04  0.00000000000E+00 0. -1.
         22    1    1    2    0    0 -0.10408328975E+04 -0.75512088774E+03  0.86853813270E+03  0.15517406882E+04  0.00000000000E+00 0. -1.
<mgrwt>
<rscale>  0 0.42437436E+04</rscale>
<asrwt>0</asrwt>
<pdfrwt beam="1">  1        2 0.51354783E+00 0.42437436E+04</pdfrwt>
<pdfrwt beam="2">  1       -2 0.20750600E+00 0.42437436E+04</pdfrwt>
<totfact> 0.96409728E-02</totfact>
</mgrwt>
</event>
<event>
 6    1  0.4630212E-004  0.2243342E+04  0.7818608E-02  0.8500602E-01
         -3   -1    0    0    0  501 -0.00000000000E+00  0.00000000000E+00  0.15072104742E+04  0.15072104742E+04  0.00000000000E+00 0. -1.
          3   -1    0    0  501    0  0.00000000000E+00 -0.00000000000E+00 -0.83475156498E+03  0.83475156498E+03  0.00000000000E+00 0.  1.
         23    2    1    2    0    0  0.55022925503E+02  0.10317660057E+04  0.78918257899E+03  0.13021577173E+04  0.72366877473E+02 0.  0.
         13    1    3    3    0    0  0.25347998060E+02  0.86571076919E+03  0.68112146942E+03  0.11018276240E+04  0.00000000000E+00 0. -1.
        -13    1    3    3    0    0  0.29674927442E+02  0.16605523649E+03  0.10806110957E+03  0.20033009331E+03  0.00000000000E+00 0.  1.
         22    1    1    2    0    0 -0.55022925503E+02 -0.10317660057E+04 -0.11672366972E+03  0.10398043219E+04  0.00000000000E+00 0.  1.
<mgrwt>
<rscale>  0 0.22433424E+04</rscale>
<asrwt>0</asrwt>
<pdfrwt beam="1">  1        3 0.12842332E+00 0.22433424E+04</pdfrwt>
<pdfrwt beam="2">  1       -3 0.23187853E+00 0.22433424E+04</pdfrwt>
<totfact> 0.10642330E-01</totfact>
</mgrwt>
</event>
<event>
 6    1  0.4630212E-004  0.2147435E+04  0.7818608E-02  0.8540631E-01
          1   -1    0    0  501    0  0.00000000000E+00  0.00000000000E+00  0.11815058702E+04  0.11815058702E+04  0.00000000000E+00 0.  1.
         -1   -1    0    0    0  501 -0.00000000000E+00 -0.00000000000E+00 -0.97576273737E+03  0.97576273737E+03  0.00000000000E+00 0. -1.
         23    2    1    2    0    0 -0.54921479076E+03 -0.27651455599E+03  0.98498107442E+03  0.11646413081E+04  0.90024849998E+02 0.  0.
         13    1    3    3    0    0 -0.33599179851E+03 -0.21611279421E+03  0.65195092866E+03  0.76461444001E+03  0.00000000000E+00 0.  1.
        -13    1    3    3    0    0 -0.21322299225E+03 -0.60401761785E+02  0.33303014576E+03  0.40002686814E+03  0.00000000000E+00 0. -1.
         22    1    1    2    0    0  0.54921479076E+03  0.27651455599E+03 -0.77923794155E+03  0.99262729945E+03  0.00000000000E+00 0. -1.
<mgrwt>
<rscale>  0 0.21474351E+04</rscale>
<asrwt>0</asrwt>
<pdfrwt beam="1">  1        1 0.18177013E+00 0.21474351E+04</pdfrwt>
<pdfrwt beam="2">  1       -1 0.15011734E+00 0.21474351E+04</pdfrwt>
<totfact> 0.35159922E+00</totfact>
</mgrwt>
</event>
<event>
 6    1  0.4630212E-004  0.2571299E+04  0.7818608E-02  0.8378016E-01
         -2   -1    0    0    0  501 -0.00000000000E+00  0.00000000000E+00  0.71961589954E+03  0.71961589954E+03  0.00000000000E+00 0. -1.
          2   -1    0    0  501    0  0.00000000000E+00 -0.00000000000E+00 -0.22969117037E+04  0.22969117037E+04  0.00000000000E+00 0.  1.
         23    2    1    2    0    0 -0.36655362283E+03  0.53825279519E+03  0.50873767111E+03  0.83120993985E+03  0.89545050993E+02 0.  0.
         11    1    3    3    0    0 -0.24745046771E+03  0.32761008095E+03  0.27068989880E+03  0.49176531031E+03  0.00000000000E+00 0.  1.
        -11    1    3    3    0    0 -0.11910315512E+03  0.21064271424E+03  0.23804777231E+03  0.33944462954E+03  0.00000000000E+00 0. -1.
         22    1    1    2    0    0  0.36655362283E+03 -0.53825279519E+03 -0.20860334753E+04  0.21853176634E+04  0.00000000000E+00 0.  1.
<mgrwt>
<rscale>  0 0.25712986E+04</rscale>
<asrwt>0</asrwt>
<pdfrwt beam="1">  1        2 0.35337103E+00 0.25712986E+04</pdfrwt>
<pdfrwt beam="2">  1       -2 0.11071014E+00 0.25712986E+04</pdfrwt>
<totfact> 0.26102688E+00</totfact>
</mgrwt>
</event>
<event>
 6    1  0.4630212E-004  0.3488865E+03  0.7818608E-02  0.1063073E+00
         -2   -1    0    0    0  501 -0.00000000000E+00  0.00000000000E+00  0.20734183437E+03  0.20734183437E+03  0.00000000000E+00 0. -1.
          2   -1    0    0  501    0  0.00000000000E+00 -0.00000000000E+00 -0.14676463923E+03  0.14676463923E+03  0.00000000000E+00 0.  1.
         23    2    1    2    0    0  0.15788929466E+03  0.22354560316E+02  0.16024997164E+01  0.18408656172E+03  0.91959439253E+02 0.  0.
         13    1    3    3    0    0  0.32116582105E+01  0.24302086818E+02 -0.14630169376E+02  0.28547294585E+02  0.00000000000E+00 0. -1.
        -13    1    3    3    0    0  0.15467763644E+03 -0.19475265019E+01  0.16232669092E+02  0.15553926714E+03  0.00000000000E+00 0.  1.
         22    1    1    2    0    0 -0.15788929466E+03 -0.22354560316E+02  0.58974695430E+02  0.17001991188E+03  0.00000000000E+00 0.  1.
<mgrwt>
<rscale>  0 0.34888651E+03</rscale>
<asrwt>0</asrwt>
<pdfrwt beam="1">  1        2 0.22579175E-01 0.34888651E+03</pdfrwt>
<pdfrwt beam="2">  1       -2 0.31898744E-01 0.34888651E+03</pdfrwt>
<totfact> 0.22157441E+03</totfact>
</mgrwt>
</event>
<event>
 6    1  0.4630212E-004  0.1857066E+04  0.7818608E-02  0.8676528E-01
          2   -1    0    0  501    0  0.00000000000E+00  0.00000000000E+00  0.87767792829E+03  0.87767792829E+03  0.00000000000E+00 0.  1.
         -2   -1    0    0    0  501 -0.00000000000E+00 -0.00000000000E+00 -0.98233449917E+03  0.98233449917E+03  0.00000000000E+00 0. -1.
         23    2    1    2    0    0 -0.67062363571E+03  0.12269765250E+03  0.57699582846E+03  0.89593734313E+03  0.70631169218E+02 0.  0.
         11    1    3    3    0    0 -0.20242482838E+03  0.35282767074E+02  0.21746071347E+03  0.29918196252E+03  0.00000000000E+00 0.  1.
        -11    1    3    3    0    0 -0.46819880733E+03  0.87414885424E+02  0.35953511499E+03  0.59675538062E+03  0.00000000000E+00 0. -1.
         22    1    1    2    0    0  0.67062363571E+03 -0.12269765250E+03 -0.68165239934E+03  0.96407508433E+03  0.00000000000E+00 0. -1.
<mgrwt>
<rscale>  0 0.18570658E+04</rscale>
<asrwt>0</asrwt>
<pdfrwt beam="1">  1        2 0.13502737E+00 0.18570658E+04</pdfrwt>
<pdfrwt beam="2">  1       -2 0.15112838E+00 0.18570658E+04</pdfrwt>
<totfact> 0.83799631E+00</totfact>
</mgrwt>
</event>
<event>
 6    1  0.4630212E-004  0.5786681E+04  0.7818608E-02  0.7717428E-01
         -2   -1    0    0    0  501 -0.00000000000E+00  0.00000000000E+00  0.18603785563E+04  0.18603785563E+04  0.00000000000E+00 0. -1.
          2   -1    0    0  501    0  0.00000000000E+00 -0.00000000000E+00 -0.44998478550E+04  0.44998478550E+04  0.00000000000E+00 0.  1.
         23    2    1    2    0    0 -0.31063984638E+03  0.12059516162E+04 -0.41896592676E+04  0.43717834641E+04  0.91812114020E+02 0.  0.
         11    1    3    3    0    0 -0.19376900004E+03  0.62135746321E+03 -0.20737211399E+04  0.21734651800E+04  0.00000000000E+00 0. -1.
        -11    1    3    3    0    0 -0.11687084635E+03  0.58459415301E+03 -0.21159381276E+04  0.21983182841E+04  0.00000000000E+00 0.  1.
         22    1    1    2    0    0  0.31063984638E+03 -0.12059516162E+04  0.15501899688E+04  0.19884429472E+04  0.00000000000E+00 0. -1.
<mgrwt>
<rscale>  0 0.57866814E+04</rscale>
<asrwt>0</asrwt>
<pdfrwt beam="1">  1        2 0.69228428E+00 0.57866814E+04</pdfrwt>
<pdfrwt beam="2">  1       -2 0.28621209E+00 0.57866814E+04</pdfrwt>
<totfact> 0.32143334E-03</totfact>
</mgrwt>
</event>
<event>
 6    1  0.4630212E-004  0.7578776E+03  0.7818608E-02  0.9623072E-01
          2   -1    0    0  501    0  0.00000000000E+00  0.00000000000E+00  0.36252942671E+03  0.36252942671E+03  0.00000000000E+00 0.  1.
         -2   -1    0    0    0  501 -0.00000000000E+00 -0.00000000000E+00 -0.39609093287E+03  0.39609093287E+03  0.00000000000E+00 0. -1.
         23    2    1    2    0    0  0.26818716847E+03 -0.89678878824E+02  0.22732728408E+03  0.37387418414E+03  0.90208385644E+02 0.  0.
         13    1    3    3    0    0  0.12534780215E+03 -0.85559769376E+02  0.13953518368E+03  0.20616161894E+03  0.00000000000E+00 0. -1.
        -13    1    3    3    0    0  0.14283936632E+03 -0.41191094474E+01  0.87792100405E+02  0.16771256521E+03  0.00000000000E+00 0.  1.
         22    1    1    2    0    0 -0.26818716847E+03  0.89678878824E+02 -0.26088879024E+03  0.38474617544E+03  0.00000000000E+00 0. -1.
<mgrwt>
<rscale>  0 0.75787761E+03</rscale>
<asrwt>0</asrwt>
<pdfrwt beam="1">  1        2 0.55773758E-01 0.75787761E+03</pdfrwt>
<pdfrwt beam="2">  1       -2 0.60937067E-01 0.75787761E+03</pdfrwt>
<totfact> 0.22458825E+02</totfact>
</mgrwt>
</event>
<event>
 6    1  0.4630212E-004  0.6251233E+03  0.7818608E-02  0.9854612E-01
         -1   -1    0    0    0  501 -0.00000000000E+00  0.00000000000E+00  0.75132315391E+03  0.75132315391E+03  0.00000000000E+00 0. -1.
          1   -1    0    0  501    0  0.00000000000E+00 -0.00000000000E+00 -0.13003031356E+03  0.13003031356E+03  0.00000000000E+00 0.  1.
         23    2    1    2    0    0 -0.17610809380E+03  0.13249996845E+03  0.61624649896E+03  0.66090898942E+03  0.92036093338E+02 0.  0.
         11    1    3    3    0    0 -0.10241882772E+03  0.11073761946E+03  0.49404782741E+03  0.51656141204E+03  0.00000000000E+00 0.  1.
        -11    1    3    3    0    0 -0.73689266077E+02  0.21762348988E+02  0.12219867155E+03  0.14434757738E+03  0.00000000000E+00 0. -1.
         22    1    1    2    0    0  0.17610809380E+03 -0.13249996845E+03  0.50463413873E+01  0.22044447805E+03  0.00000000000E+00 0.  1.
<mgrwt>
<rscale>  0 0.62512330E+03</rscale>
<asrwt>0</asrwt>
<pdfrwt beam="1">  1        1 0.20004664E-01 0.62512330E+03</pdfrwt>
<pdfrwt beam="2">  1       -1 0.11558817E+00 0.62512330E+03</pdfrwt>
<totfact> 0.18114369E+02</totfact>
</mgrwt>
</event>
<event>
 6    1  0.4630212E-004  0.3013911E+04  0.7818608E-02  0.8239770E-01
          2   -1    0    0  501    0  0.00000000000E+00  0.00000000000E+00  0.24931646886E+04  0.24931646886E+04  0.00000000000E+00 0.  1.
         -2   -1    0    0    0  501 -0.00000000000E+00 -0.00000000000E+00 -0.91085617135E+03  0.91085617135E+03  0.00000000000E+00 0. -1.
         23    2    1    2    0    0 -0.11780991058E+04  0.54406052059E+03 -0.70583281831E+02  0.13025997568E+04  0.88683558216E+02 0.  0.
         13    1    3    3    0    0 -0.82982776234E+03  0.42448762024E+03 -0.36717106130E+02  0.93281938271E+03  0.00000000000E+00 0.  1.
        -13    1    3    3    0    0 -0.34827134351E+03  0.11957290035E+03 -0.33866175701E+02  0.36978037410E+03  0.00000000000E+00 0. -1.
         22    1    1    2    0    0  0.11780991058E+04 -0.54406052059E+03  0.16528917991E+04  0.21014211032E+04  0.00000000000E+00 0.  1.
<mgrwt>
<rscale>  0 0.30139107E+04</rscale>
<asrwt>0</asrwt>
<pdfrwt beam="1">  1        2 0.38356380E+00 0.30139107E+04</pdfrwt>
<pdfrwt beam="2">  1       -2 0.14013172E+00 0.30139107E+04</pdfrwt>
<totfact> 0.10759850E+00</totfact>
</mgrwt>
</event>
<event>
 6    1  0.4630212E-004  0.2358042E+04  0.7818608E-02  0.8455381E-01
         -2   -1    0    0    0  501 -0.00000000000E+00  0.00000000000E+00  0.17445588054E+04  0.17445588054E+04  0.00000000000E+00 0. -1.
          2   -1    0    0  501    0  0.00000000000E+00 -0.00000000000E+00 -0.79681519144E+03  0.79681519144E+03  0.00000000000E+00 0.  1.
         23    2    1    2    0    0  0.23831776416E+02 -0.10345847496E+04  0.10793963998E+04  0.14981741053E+04  0.92171058642E+02 0.  0.
         13    1    3    3    0    0  0.33540265758E+02 -0.70619684121E+03  0.79229760171E+03  0.10618730704E+04  0.00000000000E+00 0. -1.
        -13    1    3    3    0    0 -0.97084893419E+01 -0.32838790842E+03  0.28709879811E+03  0.43630103488E+03  0.00000000000E+00 0.  1.
         22    1    1    2    0    0 -0.23831776416E+02  0.10345847496E+04 -0.13165278585E+03  0.10431998916E+04  0.00000000000E+00 0.  1.
<mgrwt>
<rscale>  0 0.23580424E+04</rscale>
<asrwt>0</asrwt>
<pdfrwt beam="1">  1        2 0.12258695E+00 0.23580424E+04</pdfrwt>
<pdfrwt beam="2">  1       -2 0.26839366E+00 0.23580424E+04</pdfrwt>
<totfact> 0.15490288E+00</totfact>
</mgrwt>
</event>
<event>
 6    1  0.4630212E-004  0.2308279E+04  0.7818608E-02  0.8474664E-01
         -2   -1    0    0    0  501 -0.00000000000E+00  0.00000000000E+00  0.42017519602E+03  0.42017519602E+03  0.00000000000E+00 0.  1.
          2   -1    0    0  501    0  0.00000000000E+00 -0.00000000000E+00 -0.31701954127E+04  0.31701954127E+04  0.00000000000E+00 0. -1.
         23    2    1    2    0    0  0.10594447660E+04  0.29140213433E+03 -0.19163142974E+04  0.22110939954E+04  0.96632053726E+02 0.  0.
         11    1    3    3    0    0  0.50309137112E+03  0.10830973048E+03 -0.97378646137E+03  0.11014045568E+04  0.00000000000E+00 0. -1.
        -11    1    3    3    0    0  0.55635339493E+03  0.18309240385E+03 -0.94252783605E+03  0.11096894386E+04  0.00000000000E+00 0.  1.
         22    1    1    2    0    0 -0.10594447660E+04 -0.29140213433E+03 -0.83370591925E+03  0.13792766133E+04  0.00000000000E+00 0.  1.
<mgrwt>
<rscale>  0 0.23082786E+04</rscale>
<asrwt>0</asrwt>
<pdfrwt beam="1">  1        2 0.48772237E+00 0.23082786E+04</pdfrwt>
<pdfrwt beam="2">  1       -2 0.64642338E-01 0.23082786E+04</pdfrwt>
<totfact> 0.27176291E+00</totfact>
</mgrwt>
</event>
<event>
 6    1  0.4630212E-004  0.3100880E+04  0.7818608E-02  0.8215497E-01
          2   -1    0    0  501    0  0.00000000000E+00  0.00000000000E+00  0.57824330551E+03  0.57824330551E+03  0.00000000000E+00 0.  1.
         -2   -1    0    0    0  501 -0.00000000000E+00 -0.00000000000E+00 -0.41571833974E+04  0.41571833974E+04  0.00000000000E+00 0. -1.
         23    2    1    2    0    0  0.15058681522E+04  0.26770545481E+03 -0.21668896254E+04  0.26537947416E+04  0.88942562046E+02 0.  0.
         11    1    3    3    0    0  0.39524297458E+03  0.58862207700E+02 -0.50280033064E+03  0.64225379792E+03  0.00000000000E+00 0.  1.
        -11    1    3    3    0    0  0.11106251776E+04  0.20884324711E+03 -0.16640892948E+04  0.20115409437E+04  0.00000000000E+00 0. -1.
         22    1    1    2    0    0 -0.15058681522E+04 -0.26770545481E+03 -0.14120504665E+04  0.20816319613E+04  0.00000000000E+00 0.  1.
<mgrwt>
<rscale>  0 0.31008795E+04</rscale>
<asrwt>0</asrwt>
<pdfrwt beam="1">  1        2 0.88960509E-01 0.31008795E+04</pdfrwt>
<pdfrwt beam="2">  1       -2 0.63956667E+00 0.31008795E+04</pdfrwt>
<totfact> 0.15857538E-02</totfact>
</mgrwt>
</event>
<event>
 6    1  0.4630212E-004  0.1187632E+04  0.7818608E-02  0.9123752E-01
         -2   -1    0    0    0  501 -0.00000000000E+00  0.00000000000E+00  0.21443760802E+03  0.21443760802E+03  0.00000000000E+00 0. -1.
          2   -1    0    0  501    0  0.00000000000E+00 -0.00000000000E+00 -0.16443821830E+04  0.16443821830E+04  0.00000000000E+00 0.  1.
         23    2    1    2    0    0 -0.33424598061E+02 -0.56135807154E+03 -0.43779664533E+03  0.71838232998E+03  0.90372457786E+02 0.  0.
         11    1    3    3    0    0  0.16233357748E+02 -0.33025181955E+03 -0.28835777538E+03  0.43872541850E+03  0.00000000000E+00 0. -1.
        -11    1    3    3    0    0 -0.49657955809E+02 -0.23110625199E+03 -0.14943886995E+03  0.27965691147E+03  0.00000000000E+00 0.  1.
         22    1    1    2    0    0  0.33424598061E+02  0.56135807154E+03 -0.99214792968E+03  0.11404374611E+04  0.00000000000E+00 0.  1.
<mgrwt>
<rscale>  0 0.11876319E+04</rscale>
<asrwt>0</asrwt>
<pdfrwt beam="1">  1        2 0.25298186E+00 0.11876319E+04</pdfrwt>
<pdfrwt beam="2">  1       -2 0.32990403E-01 0.11876319E+04</pdfrwt>
<totfact> 0.89161600E+01</totfact>
</mgrwt>
</event>
<event>
 6    1  0.4630212E-004  0.3460339E+04  0.7818608E-02  0.8123254E-01
         -2   -1    0    0    0  501 -0.00000000000E+00  0.00000000000E+00  0.19633888408E+04  0.19633888408E+04  0.00000000000E+00 0. -1.
          2   -1    0    0  501    0  0.00000000000E+00 -0.00000000000E+00 -0.15246529556E+04  0.15246529556E+04  0.00000000000E+00 0.  1.
         23    2    1    2    0    0 -0.12857600402E+04 -0.76600447720E+03 -0.65311012710E+03  0.16354572626E+04  0.90696636274E+02 0.  0.
         11    1    3    3    0    0 -0.99045624145E+03 -0.62640764236E+03 -0.48801079693E+03  0.12694662810E+04  0.00000000000E+00 0.  1.
        -11    1    3    3    0    0 -0.29530379872E+03 -0.13959683485E+03 -0.16509933017E+03  0.36599098166E+03  0.00000000000E+00 0. -1.
         22    1    1    2    0    0  0.12857600402E+04  0.76600447720E+03  0.10918460124E+04  0.18525845338E+04  0.00000000000E+00 0. -1.
<mgrwt>
<rscale>  0 0.34603391E+04</rscale>
<asrwt>0</asrwt>
<pdfrwt beam="1">  1        2 0.23456199E+00 0.34603391E+04</pdfrwt>
<pdfrwt beam="2">  1       -2 0.30205982E+00 0.34603391E+04</pdfrwt>
<totfact> 0.31285298E-01</totfact>
</mgrwt>
</event>
<event>
 6    1  0.4630212E-004  0.2434255E+04  0.7818608E-02  0.8426789E-01
          2   -1    0    0  501    0  0.00000000000E+00  0.00000000000E+00  0.23753219905E+04  0.23753219905E+04  0.00000000000E+00 0.  1.
         -2   -1    0    0    0  501 -0.00000000000E+00 -0.00000000000E+00 -0.62366234959E+03  0.62366234959E+03  0.00000000000E+00 0. -1.
         23    2    1    2    0    0  0.56406187339E+03  0.84313466960E+03  0.17018887443E+04  0.19833470967E+04  0.90545788925E+02 0.  0.
         13    1    3    3    0    0  0.14987442309E+03  0.16298958084E+03  0.40110718841E+03  0.45816473320E+03  0.00000000000E+00 0. -1.
        -13    1    3    3    0    0  0.41418745030E+03  0.68014508876E+03  0.13007815559E+04  0.15251823635E+04  0.00000000000E+00 0.  1.
         22    1    1    2    0    0 -0.56406187339E+03 -0.84313466960E+03  0.49770896647E+02  0.10156372434E+04  0.00000000000E+00 0. -1.
<mgrwt>
<rscale>  0 0.24342546E+04</rscale>
<asrwt>0</asrwt>
<pdfrwt beam="1">  1        2 0.36543415E+00 0.24342546E+04</pdfrwt>
<pdfrwt beam="2">  1       -2 0.95948055E-01 0.24342546E+04</pdfrwt>
<totfact> 0.33529665E+00</totfact>
</mgrwt>
</event>
<event>
 6    1  0.4630212E-004  0.1242625E+04  0.7818608E-02  0.9076344E-01
         -4   -1    0    0    0  501 -0.00000000000E+00  0.00000000000E+00  0.10863962013E+04  0.10863962013E+04  0.00000000000E+00 0. -1.
          4   -1    0    0  501    0  0.00000000000E+00 -0.00000000000E+00 -0.35532982733E+03  0.35532982733E+03  0.00000000000E+00 0.  1.
         23    2    1    2    0    0  0.41247441238E+03 -0.43178640016E+03  0.55187690760E+03  0.81828116253E+03  0.91876567090E+02 0.  0.
         13    1    3    3    0    0  0.44644469227E+02 -0.56875096253E+02  0.11138777593E+03  0.13279737133E+03  0.00000000000E+00 0. -1.
        -13    1    3    3    0    0  0.36782994315E+03 -0.37491130391E+03  0.44048913167E+03  0.68548379120E+03  0.00000000000E+00 0.  1.
         22    1    1    2    0    0 -0.41247441238E+03  0.43178640016E+03  0.17918946640E+03  0.62344486612E+03  0.00000000000E+00 0. -1.
<mgrwt>
<rscale>  0 0.12426246E+04</rscale>
<asrwt>0</asrwt>
<pdfrwt beam="1">  1        4 0.54666128E-01 0.12426246E+04</pdfrwt>
<pdfrwt beam="2">  1       -4 0.16713787E+00 0.12426246E+04</pdfrwt>
<totfact> 0.13932786E+00</totfact>
</mgrwt>
</event>
<event>
 6    1  0.4630212E-004  0.2065424E+04  0.7818608E-02  0.8576629E-01
         -2   -1    0    0    0  501 -0.00000000000E+00  0.00000000000E+00  0.67300747969E+03  0.67300747969E+03  0.00000000000E+00 0. -1.
          2   -1    0    0  501    0  0.00000000000E+00 -0.00000000000E+00 -0.15846687446E+04  0.15846687446E+04  0.00000000000E+00 0.  1.
         23    2    1    2    0    0  0.98892895162E+03 -0.13744007803E+03 -0.73700039123E+03  0.12440803151E+04  0.87726890003E+02 0.  0.
         11    1    3    3    0    0  0.27423255107E+03  0.12404111426E+01 -0.19831612564E+03  0.33842918961E+03  0.00000000000E+00 0.  1.
        -11    1    3    3    0    0  0.71469640055E+03 -0.13868048918E+03 -0.53868426559E+03  0.90565112545E+03  0.00000000000E+00 0. -1.
         22    1    1    2    0    0 -0.98892895162E+03  0.13744007803E+03 -0.17466087369E+03  0.10135959092E+04  0.00000000000E+00 0.  1.
<mgrwt>
<rscale>  0 0.20654238E+04</rscale>
<asrwt>0</asrwt>
<pdfrwt beam="1">  1        2 0.24379519E+00 0.20654238E+04</pdfrwt>
<pdfrwt beam="2">  1       -2 0.10353961E+00 0.20654238E+04</pdfrwt>
<totfact> 0.79919573E+00</totfact>
</mgrwt>
</event>
<event>
 6    1  0.4630212E-004  0.3616252E+04  0.7818608E-02  0.8086779E-01
         -2   -1    0    0    0  501 -0.00000000000E+00  0.00000000000E+00  0.19036330309E+04  0.19036330309E+04  0.00000000000E+00 0. -1.
          2   -1    0    0  501    0  0.00000000000E+00 -0.00000000000E+00 -0.17174103157E+04  0.17174103157E+04  0.00000000000E+00 0.  1.
         23    2    1    2    0    0 -0.90502293810E+03 -0.48086963697E+03  0.15833895323E+04  0.18883064245E+04  0.90975905331E+02 0.  0.
         13    1    3    3    0    0 -0.51895547868E+03 -0.30275058275E+03  0.85682356771E+03  0.10464794935E+04  0.00000000000E+00 0. -1.
        -13    1    3    3    0    0 -0.38606745942E+03 -0.17811905422E+03  0.72656596464E+03  0.84182693095E+03  0.00000000000E+00 0.  1.
         22    1    1    2    0    0  0.90502293810E+03  0.48086963697E+03 -0.13971668172E+04  0.17327369221E+04  0.00000000000E+00 0.  1.
<mgrwt>
<rscale>  0 0.36162517E+04</rscale>
<asrwt>0</asrwt>
<pdfrwt beam="1">  1        2 0.26421697E+00 0.36162517E+04</pdfrwt>
<pdfrwt beam="2">  1       -2 0.29286662E+00 0.36162517E+04</pdfrwt>
<totfact> 0.27432489E-01</totfact>
</mgrwt>
</event>
<event>
 6    1  0.4630212E-004  0.5903984E+04  0.7818608E-02  0.7702422E-01
         -2   -1    0    0    0  501 -0.00000000000E+00  0.00000000000E+00  0.24894297019E+04  0.24894297019E+04  0.00000000000E+00 0. -1.
          2   -1    0    0  501    0  0.00000000000E+00 -0.00000000000E+00 -0.35005029086E+04  0.35005029086E+04  0.00000000000E+00 0.  1.
         23    2    1    2    0    0  0.28234997137E+04  0.77783860424E+03 -0.13561034477E+03  0.29331992642E+04  0.89912348618E+02 0.  0.
         11    1    3    3    0    0  0.17061321569E+04  0.50797074010E+03 -0.10668330345E+03  0.17833402751E+04  0.00000000000E+00 0. -1.
        -11    1    3    3    0    0  0.11173675568E+04  0.26986786415E+03 -0.28927041323E+02  0.11498589891E+04  0.00000000000E+00 0.  1.
         22    1    1    2    0    0 -0.28234997137E+04 -0.77783860424E+03 -0.87546286198E+03  0.30567333463E+04  0.00000000000E+00 0.  1.
<mgrwt>
<rscale>  0 0.59039837E+04</rscale>
<asrwt>0</asrwt>
<pdfrwt beam="1">  1        2 0.53853891E+00 0.59039837E+04</pdfrwt>
<pdfrwt beam="2">  1       -2 0.38298918E+00 0.59039837E+04</pdfrwt>
<totfact> 0.52676535E-03</totfact>
</mgrwt>
</event>
<event>
 6    1  0.4630212E-004  0.1455703E+04  0.7818608E-02  0.8914456E-01
          2   -1    0    0  501    0  0.00000000000E+00  0.00000000000E+00  0.75262336177E+03  0.75262336177E+03  0.00000000000E+00 0.  1.
         -2   -1    0    0    0  501 -0.00000000000E+00 -0.00000000000E+00 -0.70389528288E+03  0.70389528288E+03  0.00000000000E+00 0. -1.
         23    2    1    2    0    0  0.26384110418E+03 -0.64335912820E+03 -0.18046011757E+03  0.72436406705E+03  0.92813530869E+02 0.  0.
         11    1    3    3    0    0  0.89882801149E+02 -0.33671300521E+03 -0.10295309191E+03  0.36339221917E+03  0.00000000000E+00 0. -1.
        -11    1    3    3    0    0  0.17395830303E+03 -0.30664612300E+03 -0.77507025661E+02  0.36097184789E+03  0.00000000000E+00 0.  1.
         22    1    1    2    0    0 -0.26384110418E+03  0.64335912820E+03  0.22918819646E+03  0.73215457759E+03  0.00000000000E+00 0. -1.
<mgrwt>
<rscale>  0 0.14557033E+04</rscale>
<asrwt>0</asrwt>
<pdfrwt beam="1">  1        2 0.11578821E+00 0.14557033E+04</pdfrwt>
<pdfrwt beam="2">  1       -2 0.10829158E+00 0.14557033E+04</pdfrwt>
<totfact> 0.24695986E+01</totfact>
</mgrwt>
</event>
<event>
 6    1  0.4630212E-004  0.4636508E+04  0.7818608E-02  0.7887165E-01
          2   -1    0    0  501    0  0.00000000000E+00  0.00000000000E+00  0.34722989957E+04  0.34722989957E+04  0.00000000000E+00 0.  1.
         -2   -1    0    0    0  501 -0.00000000000E+00 -0.00000000000E+00 -0.15477646072E+04  0.15477646072E+04  0.00000000000E+00 0. -1.
         23    2    1    2    0    0 -0.22298976692E+04 -0.60814765496E+02  0.16421636123E+04  0.27715362390E+04  0.92572909929E+02 0.  0.
         13    1    3    3    0    0 -0.15195712002E+04 -0.61772439221E+02  0.11661736128E+04  0.19164742007E+04  0.00000000000E+00 0.  1.
        -13    1    3    3    0    0 -0.71032646907E+03  0.95767372504E+00  0.47598999942E+03  0.85506203830E+03  0.00000000000E+00 0. -1.
         22    1    1    2    0    0  0.22298976692E+04  0.60814765496E+02  0.28237077618E+03  0.22485273639E+04  0.00000000000E+00 0. -1.
<mgrwt>
<rscale>  0 0.46365079E+04</rscale>
<asrwt>0</asrwt>
<pdfrwt beam="1">  1        2 0.53419984E+00 0.46365079E+04</pdfrwt>
<pdfrwt beam="2">  1       -2 0.23811763E+00 0.46365079E+04</pdfrwt>
<totfact> 0.48382590E-02</totfact>
</mgrwt>
</event>
<event>
 6    1  0.4630212E-004  0.1055819E+04  0.7818608E-02  0.9249357E-01
         -2   -1    0    0    0  501 -0.00000000000E+00  0.00000000000E+00  0.22553762526E+03  0.22553762526E+03  0.00000000000E+00 0. -1.
          2   -1    0    0  501    0  0.00000000000E+00 -0.00000000000E+00 -0.12356633640E+04  0.12356633640E+04  0.00000000000E+00 0.  1.
         23    2    1    2    0    0 -0.48631638464E+03 -0.14042682825E+03 -0.32162961947E+03  0.60665419339E+03  0.91435103645E+02 0.  0.
         11    1    3    3    0    0 -0.10241420926E+03 -0.57090907963E+02 -0.42393574288E+02  0.12468062067E+03  0.00000000000E+00 0. -1.
        -11    1    3    3    0    0 -0.38390217537E+03 -0.83335920285E+02 -0.27923604518E+03  0.48197357271E+03  0.00000000000E+00 0.  1.
         22    1    1    2    0    0  0.48631638464E+03  0.14042682825E+03 -0.68849611925E+03  0.85454679584E+03  0.00000000000E+00 0.  1.
<mgrwt>
<rscale>  0 0.10558193E+04</rscale>
<asrwt>0</asrwt>
<pdfrwt beam="1">  1        2 0.19010205E+00 0.10558193E+04</pdfrwt>
<pdfrwt beam="2">  1       -2 0.34698096E-01 0.10558193E+04</pdfrwt>
<totfact> 0.13968029E+02</totfact>
</mgrwt>
</event>
<event>
 6    1  0.4630212E-004  0.1874396E+04  0.7818608E-02  0.8667707E-01
          4   -1    0    0  501    0  0.00000000000E+00  0.00000000000E+00  0.11356210921E+04  0.11356210921E+04  0.00000000000E+00 0.  1.
         -4   -1    0    0    0  501 -0.00000000000E+00 -0.00000000000E+00 -0.77344487131E+03  0.77344487131E+03  0.00000000000E+00 0. -1.
         23    2    1    2    0    0 -0.16723047373E+03 -0.91533760295E+03  0.88051095664E+02  0.93903836436E+03  0.90725385566E+02 0.  0.
         11    1    3    3    0    0 -0.76042865389E+02 -0.45082496978E+03  0.88393216614E+02  0.46565978084E+03  0.00000000000E+00 0. -1.
        -11    1    3    3    0    0 -0.91187608342E+02 -0.46451263317E+03 -0.34212094968E+00  0.47337858352E+03  0.00000000000E+00 0.  1.
         22    1    1    2    0    0  0.16723047373E+03  0.91533760295E+03  0.27412512514E+03  0.97002759907E+03  0.00000000000E+00 0.  1.
<mgrwt>
<rscale>  0 0.18743962E+04</rscale>
<asrwt>0</asrwt>
<pdfrwt beam="1">  1        4 0.17471094E+00 0.18743962E+04</pdfrwt>
<pdfrwt beam="2">  1       -4 0.11899152E+00 0.18743962E+04</pdfrwt>
<totfact> 0.19879114E-01</totfact>
</mgrwt>
</event>
<event>
 6    1  0.4630212E-004  0.1480762E+04  0.7818608E-02  0.8897348E-01
          2   -1    0    0  501    0  0.00000000000E+00  0.00000000000E+00  0.14141437164E+04  0.14141437164E+04  0.00000000000E+00 0.  1.
         -2   -1    0    0    0  501 -0.00000000000E+00 -0.00000000000E+00 -0.38762958170E+03  0.38762958170E+03  0.00000000000E+00 0. -1.
         23    2    1    2    0    0 -0.58308305563E+03 -0.17223936027E+03  0.72294274442E+01  0.61493145461E+03  0.91848692215E+02 0.  0.
         11    1    3    3    0    0 -0.35289978389E+03 -0.69508074897E+02  0.34805355817E+02  0.36135999051E+03  0.00000000000E+00 0.  1.
        -11    1    3    3    0    0 -0.23018327174E+03 -0.10273128537E+03 -0.27575928372E+02  0.25357146410E+03  0.00000000000E+00 0. -1.
         22    1    1    2    0    0  0.58308305563E+03  0.17223936027E+03  0.10192847072E+04  0.11868418434E+04  0.00000000000E+00 0.  1.
<mgrwt>
<rscale>  0 0.14807619E+04</rscale>
<asrwt>0</asrwt>
<pdfrwt beam="1">  1        2 0.21756057E+00 0.14807619E+04</pdfrwt>
<pdfrwt beam="2">  1       -2 0.59635321E-01 0.14807619E+04</pdfrwt>
<totfact> 0.36051240E+01</totfact>
</mgrwt>
</event>
<event>
 6    1  0.4630212E-004  0.2791861E+04  0.7818608E-02  0.8305799E-01
         -2   -1    0    0    0  501 -0.00000000000E+00  0.00000000000E+00  0.15245381823E+04  0.15245381823E+04  0.00000000000E+00 0. -1.
          2   -1    0    0  501    0  0.00000000000E+00 -0.00000000000E+00 -0.12781724127E+04  0.12781724127E+04  0.00000000000E+00 0.  1.
         23    2    1    2    0    0  0.44391387970E+03 -0.11839207139E+04  0.71359490713E+03  0.14547377258E+04  0.91194134003E+02 0.  0.
         11    1    3    3    0    0  0.46703435111E+02 -0.63047524362E+02  0.40848817023E+02  0.88458052384E+02  0.00000000000E+00 0.  1.
        -11    1    3    3    0    0  0.39721044459E+03 -0.11208731895E+04  0.67274609011E+03  0.13662796734E+04  0.00000000000E+00 0. -1.
         22    1    1    2    0    0 -0.44391387970E+03  0.11839207139E+04 -0.46722913751E+03  0.13479728693E+04  0.00000000000E+00 0.  1.
<mgrwt>
<rscale>  0 0.27918615E+04</rscale>
<asrwt>0</asrwt>
<pdfrwt beam="1">  1        2 0.19664191E+00 0.27918615E+04</pdfrwt>
<pdfrwt beam="2">  1       -2 0.23454433E+00 0.27918615E+04</pdfrwt>
<totfact> 0.11872613E+00</totfact>
</mgrwt>
</event>
<event>
 6    1  0.4630212E-004  0.2151017E+04  0.7818608E-02  0.8539097E-01
          2   -1    0    0  501    0  0.00000000000E+00  0.00000000000E+00  0.22993137981E+04  0.22993137981E+04  0.00000000000E+00 0.  1.
         -2   -1    0    0    0  501 -0.00000000000E+00 -0.00000000000E+00 -0.50307107943E+03  0.50307107943E+03  0.00000000000E+00 0. -1.
         23    2    1    2    0    0  0.15560735921E+03  0.75245479313E+03  0.18765523822E+04  0.20298232244E+04  0.91277669388E+02 0.  0.
         11    1    3    3    0    0  0.12103086574E+03  0.46824589296E+03  0.12740089457E+04  0.13627184157E+04  0.00000000000E+00 0.  1.
        -11    1    3    3    0    0  0.34576493472E+02  0.28420890017E+03  0.60254343650E+03  0.66710480864E+03  0.00000000000E+00 0. -1.
         22    1    1    2    0    0 -0.15560735921E+03 -0.75245479313E+03 -0.80309663536E+02  0.77256165321E+03  0.00000000000E+00 0. -1.
<mgrwt>
<rscale>  0 0.21510168E+04</rscale>
<asrwt>0</asrwt>
<pdfrwt beam="1">  1        2 0.35374058E+00 0.21510168E+04</pdfrwt>
<pdfrwt beam="2">  1       -2 0.77395552E-01 0.21510168E+04</pdfrwt>
<totfact> 0.61996742E+00</totfact>
</mgrwt>
</event>
<event>
 6    1  0.4630212E-004  0.1552265E+04  0.7818608E-02  0.8850422E-01
          2   -1    0    0  501    0  0.00000000000E+00  0.00000000000E+00  0.10172776520E+04  0.10172776520E+04  0.00000000000E+00 0.  1.
         -2   -1    0    0    0  501 -0.00000000000E+00 -0.00000000000E+00 -0.59215093152E+03  0.59215093152E+03  0.00000000000E+00 0. -1.
         23    2    1    2    0    0  0.47696780511E+03 -0.59512439577E+03  0.34564068988E+03  0.84262393915E+03  0.94214026424E+02 0.  0.
         11    1    3    3    0    0  0.90877816806E+02 -0.90905857883E+02  0.24017976154E+02  0.13076511677E+03  0.00000000000E+00 0.  1.
        -11    1    3    3    0    0  0.38608998830E+03 -0.50421853788E+03  0.32162271372E+03  0.71185882238E+03  0.00000000000E+00 0. -1.
         22    1    1    2    0    0 -0.47696780511E+03  0.59512439577E+03  0.79486030584E+02  0.76680464435E+03  0.00000000000E+00 0.  1.
<mgrwt>
<rscale>  0 0.15522653E+04</rscale>
<asrwt>0</asrwt>
<pdfrwt beam="1">  1        2 0.15650425E+00 0.15522653E+04</pdfrwt>
<pdfrwt beam="2">  1       -2 0.91100143E-01 0.15522653E+04</pdfrwt>
<totfact> 0.24287081E+01</totfact>
</mgrwt>
</event>
<event>
 6    1  0.4630212E-004  0.1933719E+04  0.7818608E-02  0.8638252E-01
          2   -1    0    0  501    0  0.00000000000E+00  0.00000000000E+00  0.10108172119E+04  0.10108172119E+04  0.00000000000E+00 0.  1.
         -2   -1    0    0    0  501 -0.00000000000E+00 -0.00000000000E+00 -0.92481347125E+03  0.92481347125E+03  0.00000000000E+00 0. -1.
         23    2    1    2    0    0 -0.26368471753E+03  0.62845506046E+03  0.72655746670E+03  0.10003262036E+04  0.91002021871E+02 0.  0.
         11    1    3    3    0    0 -0.41903690759E+02  0.11134662240E+03  0.18103618372E+03  0.21662892105E+03  0.00000000000E+00 0. -1.
        -11    1    3    3    0    0 -0.22178102677E+03  0.51710843806E+03  0.54552128298E+03  0.78369728259E+03  0.00000000000E+00 0.  1.
         22    1    1    2    0    0  0.26368471753E+03 -0.62845506046E+03 -0.64055372610E+03  0.93530447946E+03  0.00000000000E+00 0. -1.
<mgrwt>
<rscale>  0 0.19337191E+04</rscale>
<asrwt>0</asrwt>
<pdfrwt beam="1">  1        2 0.15551034E+00 0.19337191E+04</pdfrwt>
<pdfrwt beam="2">  1       -2 0.14227900E+00 0.19337191E+04</pdfrwt>
<totfact> 0.79726172E+00</totfact>
</mgrwt>
</event>
<event>
 6    1  0.4630212E-004  0.8217381E+03  0.7818608E-02  0.9529074E-01
         -2   -1    0    0    0  501 -0.00000000000E+00  0.00000000000E+00  0.18656746065E+03  0.18656746065E+03  0.00000000000E+00 0. -1.
          2   -1    0    0  501    0  0.00000000000E+00 -0.00000000000E+00 -0.90483828448E+03  0.90483828448E+03  0.00000000000E+00 0.  1.
         23    2    1    2    0    0  0.48291280104E+02 -0.39632110193E+03 -0.45942453595E+03  0.61558659428E+03  0.92051546703E+02 0.  0.
         11    1    3    3    0    0  0.39984837546E+00 -0.77553459068E+02 -0.14949579556E+03  0.16841523620E+03  0.00000000000E+00 0. -1.
        -11    1    3    3    0    0  0.47891431729E+02 -0.31876764286E+03 -0.30992874039E+03  0.44717135808E+03  0.00000000000E+00 0.  1.
         22    1    1    2    0    0 -0.48291280104E+02  0.39632110193E+03 -0.25884628788E+03  0.47581915085E+03  0.00000000000E+00 0.  1.
<mgrwt>
<rscale>  0 0.82173811E+03</rscale>
<asrwt>0</asrwt>
<pdfrwt beam="1">  1        2 0.13920589E+00 0.82173811E+03</pdfrwt>
<pdfrwt beam="2">  1       -2 0.28702686E-01 0.82173811E+03</pdfrwt>
<totfact> 0.32516425E+02</totfact>
</mgrwt>
</event>
<event>
 6    1  0.4630212E-004  0.1935733E+04  0.7818608E-02  0.8637271E-01
          2   -1    0    0  501    0  0.00000000000E+00  0.00000000000E+00  0.15084782814E+04  0.15084782814E+04  0.00000000000E+00 0.  1.
         -2   -1    0    0    0  501 -0.00000000000E+00 -0.00000000000E+00 -0.62100048205E+03  0.62100048205E+03  0.00000000000E+00 0. -1.
         23    2    1    2    0    0  0.38829801466E+03 -0.56102991920E+03 -0.30719303336E+03  0.75369959623E+03  0.90363727162E+02 0.  0.
         11    1    3    3    0    0  0.19114208616E+03 -0.30307115304E+03 -0.11455772987E+03  0.37617933805E+03  0.00000000000E+00 0. -1.
        -11    1    3    3    0    0  0.19715592849E+03 -0.25795876616E+03 -0.19263530350E+03  0.37752025818E+03  0.00000000000E+00 0.  1.
         22    1    1    2    0    0 -0.38829801466E+03  0.56102991920E+03  0.11946708327E+04  0.13757791672E+04  0.00000000000E+00 0.  1.
<mgrwt>
<rscale>  0 0.19357332E+04</rscale>
<asrwt>0</asrwt>
<pdfrwt beam="1">  1        2 0.23207358E+00 0.19357332E+04</pdfrwt>
<pdfrwt beam="2">  1       -2 0.95538536E-01 0.19357332E+04</pdfrwt>
<totfact> 0.10784605E+01</totfact>
</mgrwt>
</event>
<event>
 6    1  0.4630212E-004  0.2964016E+04  0.7818608E-02  0.8254082E-01
          2   -1    0    0  501    0  0.00000000000E+00  0.00000000000E+00  0.17058609995E+04  0.17058609995E+04  0.00000000000E+00 0. -1.
         -2   -1    0    0    0  501 -0.00000000000E+00 -0.00000000000E+00 -0.12875302164E+04  0.12875302164E+04  0.00000000000E+00 0.  1.
         23    2    1    2    0    0  0.83721782031E+03  0.99542251461E+02 -0.10198222781E+04  0.13263199619E+04  0.90801013038E+02 0.  0.
         13    1    3    3    0    0  0.45929693054E+03  0.68759782698E+02 -0.49375893958E+03  0.67784914881E+03  0.00000000000E+00 0. -1.
        -13    1    3    3    0    0  0.37792088977E+03  0.30782468763E+02 -0.52606333854E+03  0.64847081312E+03  0.00000000000E+00 0.  1.
         22    1    1    2    0    0 -0.83721782031E+03 -0.99542251461E+02  0.14381530612E+04  0.16670712540E+04  0.00000000000E+00 0. -1.
<mgrwt>
<rscale>  0 0.29640159E+04</rscale>
<asrwt>0</asrwt>
<pdfrwt beam="1">  1        2 0.26244015E+00 0.29640159E+04</pdfrwt>
<pdfrwt beam="2">  1       -2 0.19808157E+00 0.29640159E+04</pdfrwt>
<totfact> 0.11443878E+00</totfact>
</mgrwt>
</event>
<event>
 6    1  0.4630212E-004  0.7855697E+03  0.7818608E-02  0.9581143E-01
          2   -1    0    0  501    0  0.00000000000E+00  0.00000000000E+00  0.50913957074E+03  0.50913957074E+03  0.00000000000E+00 0.  1.
         -2   -1    0    0    0  501 -0.00000000000E+00 -0.00000000000E+00 -0.30302088663E+03  0.30302088663E+03  0.00000000000E+00 0. -1.
         23    2    1    2    0    0 -0.19361006578E+03  0.30603098884E+03  0.24701594176E+03  0.44772608826E+03  0.91115042225E+02 0.  0.
         11    1    3    3    0    0 -0.63120275625E+02  0.79778673883E+02  0.24575415621E+02  0.10465542057E+03  0.00000000000E+00 0. -1.
        -11    1    3    3    0    0 -0.13048979016E+03  0.22625231496E+03  0.22244052614E+03  0.34307066769E+03  0.00000000000E+00 0.  1.
         22    1    1    2    0    0  0.19361006578E+03 -0.30603098884E+03 -0.40897257647E+02  0.36443436911E+03  0.00000000000E+00 0. -1.
<mgrwt>
<rscale>  0 0.78556966E+03</rscale>
<asrwt>0</asrwt>
<pdfrwt beam="1">  1        2 0.78329164E-01 0.78556966E+03</pdfrwt>
<pdfrwt beam="2">  1       -2 0.46618598E-01 0.78556966E+03</pdfrwt>
<totfact> 0.26488999E+02</totfact>
</mgrwt>
</event>
<event>
 6    1  0.4630212E-004  0.1929800E+04  0.7818608E-02  0.8640164E-01
          2   -1    0    0  501    0  0.00000000000E+00  0.00000000000E+00  0.15233218813E+04  0.15233218813E+04  0.00000000000E+00 0.  1.
         -2   -1    0    0    0  501 -0.00000000000E+00 -0.00000000000E+00 -0.61118522454E+03  0.61118522454E+03  0.00000000000E+00 0. -1.
         23    2    1    2    0    0  0.76222493663E+03 -0.42129460401E+03  0.33607988122E+01  0.87579762491E+03  0.92380665954E+02 0.  0.
         11    1    3    3    0    0  0.60114084907E+03 -0.31903765632E+03 -0.33877654752E+02  0.68139785886E+03  0.00000000000E+00 0. -1.
        -11    1    3    3    0    0  0.16108408756E+03 -0.10225694769E+03  0.37238453564E+02  0.19439976604E+03  0.00000000000E+00 0.  1.
         22    1    1    2    0    0 -0.76222493663E+03  0.42129460401E+03  0.90877585793E+03  0.12587094809E+04  0.00000000000E+00 0.  1.
<mgrwt>
<rscale>  0 0.19297998E+04</rscale>
<asrwt>0</asrwt>
<pdfrwt beam="1">  1        2 0.23435721E+00 0.19297998E+04</pdfrwt>
<pdfrwt beam="2">  1       -2 0.94028497E-01 0.19297998E+04</pdfrwt>
<totfact> 0.10985143E+01</totfact>
</mgrwt>
</event>
<event>
 6    1  0.4630212E-004  0.1666288E+04  0.7818608E-02  0.8780829E-01
          2   -1    0    0  501    0  0.00000000000E+00  0.00000000000E+00  0.31225927976E+04  0.31225927976E+04  0.00000000000E+00 0.  1.
         -2   -1    0    0    0  501 -0.00000000000E+00 -0.00000000000E+00 -0.22229244266E+03  0.22229244266E+03  0.00000000000E+00 0. -1.
         23    2    1    2    0    0  0.74379658924E+03 -0.13188330334E+03  0.21513491290E+04  0.22811397300E+04  0.68328770577E+02 0.  0.
         11    1    3    3    0    0  0.27704497769E+03 -0.59684041075E+02  0.90322390564E+03  0.94664118236E+03  0.00000000000E+00 0. -1.
        -11    1    3    3    0    0  0.46675161155E+03 -0.72199262266E+02  0.12481252234E+04  0.13344985476E+04  0.00000000000E+00 0.  1.
         22    1    1    2    0    0 -0.74379658924E+03  0.13188330334E+03  0.74895122593E+03  0.10637455103E+04  0.00000000000E+00 0. -1.
<mgrwt>
<rscale>  0 0.16662878E+04</rscale>
<asrwt>0</asrwt>
<pdfrwt beam="1">  1        2 0.48039886E+00 0.16662878E+04</pdfrwt>
<pdfrwt beam="2">  1       -2 0.34198840E-01 0.16662878E+04</pdfrwt>
<totfact> 0.11190099E+01</totfact>
</mgrwt>
</event>
<event>
 6    1  0.4630212E-004  0.1494733E+04  0.7818608E-02  0.8887963E-01
         -2   -1    0    0    0  501 -0.00000000000E+00  0.00000000000E+00  0.92856206509E+03  0.92856206509E+03  0.00000000000E+00 0. -1.
          2   -1    0    0  501    0  0.00000000000E+00 -0.00000000000E+00 -0.60152834103E+03  0.60152834103E+03  0.00000000000E+00 0.  1.
         23    2    1    2    0    0 -0.49612262002E+03  0.27527805021E+03  0.65784293004E+03  0.87331769827E+03  0.89503198179E+02 0.  0.
         11    1    3    3    0    0 -0.41486028871E+03  0.24865808270E+03  0.51257508878E+03  0.70475039758E+03  0.00000000000E+00 0. -1.
        -11    1    3    3    0    0 -0.81262331304E+02  0.26619967512E+02  0.14526784125E+03  0.16856730069E+03  0.00000000000E+00 0.  1.
         22    1    1    2    0    0  0.49612262002E+03 -0.27527805021E+03 -0.33080920597E+03  0.65677270785E+03  0.00000000000E+00 0.  1.
<mgrwt>
<rscale>  0 0.14947326E+04</rscale>
<asrwt>0</asrwt>
<pdfrwt beam="1">  1        2 0.92542822E-01 0.14947326E+04</pdfrwt>
<pdfrwt beam="2">  1       -2 0.14285570E+00 0.14947326E+04</pdfrwt>
<totfact> 0.16273578E+01</totfact>
</mgrwt>
</event>
<event>
 6    1  0.4630212E-004  0.1342540E+04  0.7818608E-02  0.8996495E-01
         -2   -1    0    0    0  501 -0.00000000000E+00  0.00000000000E+00  0.32903859669E+03  0.32903859669E+03  0.00000000000E+00 0. -1.
          2   -1    0    0  501    0  0.00000000000E+00 -0.00000000000E+00 -0.13694538448E+04  0.13694538448E+04  0.00000000000E+00 0.  1.
         23    2    1    2    0    0  0.52065984678E+03  0.35017422952E+03 -0.81303160127E+03  0.10311005102E+04  0.91865175541E+02 0.  0.
         13    1    3    3    0    0  0.22180388431E+03  0.14207899376E+03 -0.26948311958E+03  0.37683491784E+03  0.00000000000E+00 0. -1.
        -13    1    3    3    0    0  0.29885596247E+03  0.20809523576E+03 -0.54354848169E+03  0.65426559239E+03  0.00000000000E+00 0.  1.
         22    1    1    2    0    0 -0.52065984678E+03 -0.35017422952E+03 -0.22738364685E+03  0.66739193127E+03  0.00000000000E+00 0.  1.
<mgrwt>
<rscale>  0 0.13425396E+04</rscale>
<asrwt>0</asrwt>
<pdfrwt beam="1">  1        2 0.21068520E+00 0.13425396E+04</pdfrwt>
<pdfrwt beam="2">  1       -2 0.50621324E-01 0.13425396E+04</pdfrwt>
<totfact> 0.54320024E+01</totfact>
</mgrwt>
</event>
<event>
 6    1  0.4630212E-004  0.2913259E+04  0.7818608E-02  0.8268944E-01
          2   -1    0    0  501    0  0.00000000000E+00  0.00000000000E+00  0.31994860159E+04  0.31994860159E+04  0.00000000000E+00 0.  1.
         -2   -1    0    0    0  501 -0.00000000000E+00 -0.00000000000E+00 -0.66315938095E+03  0.66315938095E+03  0.00000000000E+00 0. -1.
         23    2    1    2    0    0  0.18707659089E+02 -0.12698117253E+04  0.22115542752E+04  0.25518254703E+04  0.89828304958E+02 0.  0.
         11    1    3    3    0    0 -0.33911105571E+02 -0.30791341615E+03  0.53358996891E+03  0.61699180695E+03  0.00000000000E+00 0.  1.
        -11    1    3    3    0    0  0.52618764660E+02 -0.96189830916E+03  0.16779643063E+04  0.19348336633E+04  0.00000000000E+00 0. -1.
         22    1    1    2    0    0 -0.18707659089E+02  0.12698117253E+04  0.32477235976E+03  0.13108199266E+04  0.00000000000E+00 0. -1.
<mgrwt>
<rscale>  0 0.29132588E+04</rscale>
<asrwt>0</asrwt>
<pdfrwt beam="1">  1        2 0.49222861E+00 0.29132588E+04</pdfrwt>
<pdfrwt beam="2">  1       -2 0.10202452E+00 0.29132588E+04</pdfrwt>
<totfact> 0.88056160E-01</totfact>
</mgrwt>
</event>
<event>
 6    1  0.4630212E-004  0.4262252E+04  0.7818608E-02  0.7953635E-01
          2   -1    0    0  501    0  0.00000000000E+00  0.00000000000E+00  0.13756121336E+04  0.13756121336E+04  0.00000000000E+00 0.  1.
         -2   -1    0    0    0  501 -0.00000000000E+00 -0.00000000000E+00 -0.33015840193E+04  0.33015840193E+04  0.00000000000E+00 0. -1.
         23    2    1    2    0    0  0.67765261546E+03  0.59547543266E+03 -0.30809931951E+04  0.32116320010E+04  0.90867948164E+02 0.  0.
         11    1    3    3    0    0  0.38652331217E+03  0.38585266789E+03 -0.19566434197E+04  0.20314369358E+04  0.00000000000E+00 0. -1.
        -11    1    3    3    0    0  0.29112930330E+03  0.20962276477E+03 -0.11243497753E+04  0.11801950653E+04  0.00000000000E+00 0.  1.
         22    1    1    2    0    0 -0.67765261546E+03 -0.59547543266E+03  0.11550213094E+04  0.14655641519E+04  0.00000000000E+00 0.  1.
<mgrwt>
<rscale>  0 0.42622525E+04</rscale>
<asrwt>0</asrwt>
<pdfrwt beam="1">  1        2 0.21163264E+00 0.42622525E+04</pdfrwt>
<pdfrwt beam="2">  1       -2 0.50793600E+00 0.42622525E+04</pdfrwt>
<totfact> 0.17069201E-02</totfact>
</mgrwt>
</event>
<event>
 6    1  0.4630212E-004  0.2189381E+04  0.7818608E-02  0.8522861E-01
          2   -1    0    0  501    0  0.00000000000E+00  0.00000000000E+00  0.24487577436E+04  0.24487577436E+04  0.00000000000E+00 0. -1.
         -2   -1    0    0    0  501 -0.00000000000E+00 -0.00000000000E+00 -0.48936955400E+03  0.48936955400E+03  0.00000000000E+00 0.  1.
         23    2    1    2    0    0 -0.68297239500E+03  0.54456649590E+03  0.10004862688E+03  0.88382752146E+03  0.90207533815E+02 0.  0.
         11    1    3    3    0    0 -0.40236015665E+03  0.35404953841E+03  0.25514321342E+02  0.53655917837E+03  0.00000000000E+00 0.  1.
        -11    1    3    3    0    0 -0.28061223835E+03  0.19051695749E+03  0.74534305542E+02  0.34726834308E+03  0.00000000000E+00 0. -1.
         22    1    1    2    0    0  0.68297239500E+03 -0.54456649590E+03  0.18593395627E+04  0.20542997761E+04  0.00000000000E+00 0. -1.
<mgrwt>
<rscale>  0 0.21893812E+04</rscale>
<asrwt>0</asrwt>
<pdfrwt beam="1">  1        2 0.37673195E+00 0.21893812E+04</pdfrwt>
<pdfrwt beam="2">  1       -2 0.75287625E-01 0.21893812E+04</pdfrwt>
<totfact> 0.53986419E+00</totfact>
</mgrwt>
</event>
<event>
 6    1  0.4630212E-004  0.1063824E+04  0.7818608E-02  0.9241187E-01
          1   -1    0    0  501    0  0.00000000000E+00  0.00000000000E+00  0.75622344731E+03  0.75622344731E+03  0.00000000000E+00 0. -1.
         -1   -1    0    0    0  501 -0.00000000000E+00 -0.00000000000E+00 -0.37413561431E+03  0.37413561431E+03  0.00000000000E+00 0.  1.
         23    2    1    2    0    0  0.44482208755E+03 -0.19371420523E+03 -0.29118918925E+02  0.49436937954E+03  0.90339853383E+02 0.  0.
         11    1    3    3    0    0  0.24313516149E+03 -0.79750159698E+02 -0.53559360391E+02  0.26142570610E+03  0.00000000000E+00 0. -1.
        -11    1    3    3    0    0  0.20168692606E+03 -0.11396404553E+03  0.24440441466E+02  0.23294367344E+03  0.00000000000E+00 0.  1.
         22    1    1    2    0    0 -0.44482208755E+03  0.19371420523E+03  0.41120675193E+03  0.63598968208E+03  0.00000000000E+00 0. -1.
<mgrwt>
<rscale>  0 0.10638235E+04</rscale>
<asrwt>0</asrwt>
<pdfrwt beam="1">  1        1 0.11634207E+00 0.10638235E+04</pdfrwt>
<pdfrwt beam="2">  1       -1 0.57559326E-01 0.10638235E+04</pdfrwt>
<totfact> 0.73823163E+01</totfact>
</mgrwt>
</event>
<event>
 6    1  0.4630212E-004  0.3346376E+04  0.7818608E-02  0.8151194E-01
         -2   -1    0    0    0  501 -0.00000000000E+00  0.00000000000E+00  0.16169980218E+04  0.16169980218E+04  0.00000000000E+00 0. -1.
          2   -1    0    0  501    0  0.00000000000E+00 -0.00000000000E+00 -0.17313302190E+04  0.17313302190E+04  0.00000000000E+00 0.  1.
         23    2    1    2    0    0 -0.96823562909E+03 -0.10692711579E+04 -0.90306563892E+03  0.17042718292E+04  0.90520036401E+02 0.  0.
         11    1    3    3    0    0 -0.84073953976E+03 -0.88755244275E+03 -0.74318076876E+03  0.14307026132E+04  0.00000000000E+00 0. -1.
        -11    1    3    3    0    0 -0.12749608933E+03 -0.18171871513E+03 -0.15988487016E+03  0.27356921597E+03  0.00000000000E+00 0.  1.
         22    1    1    2    0    0  0.96823562909E+03  0.10692711579E+04  0.78873344171E+03  0.16440564116E+04  0.00000000000E+00 0. -1.
<mgrwt>
<rscale>  0 0.33463757E+04</rscale>
<asrwt>0</asrwt>
<pdfrwt beam="1">  1        2 0.26635850E+00 0.33463757E+04</pdfrwt>
<pdfrwt beam="2">  1       -2 0.24876893E+00 0.33463757E+04</pdfrwt>
<totfact> 0.51263753E-01</totfact>
</mgrwt>
</event>
<event>
 6    1  0.4630212E-004  0.3318155E+04  0.7818608E-02  0.8158291E-01
          2   -1    0    0  501    0  0.00000000000E+00  0.00000000000E+00  0.21092023542E+04  0.21092023542E+04  0.00000000000E+00 0.  1.
         -2   -1    0    0    0  501 -0.00000000000E+00 -0.00000000000E+00 -0.13050135740E+04  0.13050135740E+04  0.00000000000E+00 0. -1.
         23    2    1    2    0    0  0.73233189451E+03  0.38435230410E+03 -0.10759721353E+04  0.13601853136E+04  0.91385743453E+02 0.  0.
         11    1    3    3    0    0  0.29659390377E+03  0.10755473117E+03 -0.38821755897E+03  0.50024877515E+03  0.00000000000E+00 0.  1.
        -11    1    3    3    0    0  0.43573799074E+03  0.27679757294E+03 -0.68775457629E+03  0.85993653846E+03  0.00000000000E+00 0. -1.
         22    1    1    2    0    0 -0.73233189451E+03 -0.38435230410E+03  0.18801609155E+04  0.20540306145E+04  0.00000000000E+00 0.  1.
<mgrwt>
<rscale>  0 0.33181547E+04</rscale>
<asrwt>0</asrwt>
<pdfrwt beam="1">  1        2 0.32449267E+00 0.33181547E+04</pdfrwt>
<pdfrwt beam="2">  1       -2 0.20077132E+00 0.33181547E+04</pdfrwt>
<totfact> 0.63662598E-01</totfact>
</mgrwt>
</event>
<event>
 6    1  0.4630212E-004  0.1299055E+04  0.7818608E-02  0.9030315E-01
          2   -1    0    0  501    0  0.00000000000E+00  0.00000000000E+00  0.38235244623E+04  0.38235244623E+04  0.00000000000E+00 0.  1.
         -2   -1    0    0    0  501 -0.00000000000E+00 -0.00000000000E+00 -0.11033951114E+03  0.11033951114E+03  0.00000000000E+00 0. -1.
         23    2    1    2    0    0 -0.40703767638E+03 -0.34718396792E+03  0.76773788882E+03  0.94022492127E+03  0.91569968211E+02 0.  0.
         11    1    3    3    0    0 -0.31237061723E+03 -0.22252810723E+03  0.50094607087E+03  0.63090500627E+03  0.00000000000E+00 0.  1.
        -11    1    3    3    0    0 -0.94667059152E+02 -0.12465586069E+03  0.26679181795E+03  0.30931991500E+03  0.00000000000E+00 0. -1.
         22    1    1    2    0    0  0.40703767638E+03  0.34718396792E+03  0.29454470623E+04  0.29936390522E+04  0.00000000000E+00 0.  1.
<mgrwt>
<rscale>  0 0.12990548E+04</rscale>
<asrwt>0</asrwt>
<pdfrwt beam="1">  1        2 0.58823443E+00 0.12990548E+04</pdfrwt>
<pdfrwt beam="2">  1       -2 0.16975312E-01 0.12990548E+04</pdfrwt>
<totfact> 0.13514865E+01</totfact>
</mgrwt>
</event>
<event>
 6    1  0.4630212E-004  0.3740012E+04  0.7818608E-02  0.8059152E-01
          2   -1    0    0  501    0  0.00000000000E+00  0.00000000000E+00  0.21480388491E+04  0.21480388491E+04  0.00000000000E+00 0.  1.
         -2   -1    0    0    0  501 -0.00000000000E+00 -0.00000000000E+00 -0.16279601993E+04  0.16279601993E+04  0.00000000000E+00 0. -1.
         23    2    1    2    0    0  0.15878056368E+04  0.76953058278E+03  0.88217852157E+03  0.19747715849E+04  0.90442306059E+02 0.  0.
         13    1    3    3    0    0  0.26757477015E+03  0.11424370800E+03  0.18024650715E+03  0.34225237147E+03  0.00000000000E+00 0. -1.
        -13    1    3    3    0    0  0.13202308666E+04  0.65528687478E+03  0.70193201442E+03  0.16325192134E+04  0.00000000000E+00 0.  1.
         22    1    1    2    0    0 -0.15878056368E+04 -0.76953058278E+03 -0.36209987180E+03  0.18012274635E+04  0.00000000000E+00 0. -1.
<mgrwt>
<rscale>  0 0.37400116E+04</rscale>
<asrwt>0</asrwt>
<pdfrwt beam="1">  1        2 0.33046751E+00 0.37400116E+04</pdfrwt>
<pdfrwt beam="2">  1       -2 0.25045542E+00 0.37400116E+04</pdfrwt>
<totfact> 0.28415321E-01</totfact>
</mgrwt>
</event>
<event>
 6    1  0.4630212E-004  0.2175138E+04  0.7818608E-02  0.8528848E-01
         -2   -1    0    0    0  501 -0.00000000000E+00  0.00000000000E+00  0.13210337957E+04  0.13210337957E+04  0.00000000000E+00 0. -1.
          2   -1    0    0  501    0  0.00000000000E+00 -0.00000000000E+00 -0.89536428555E+03  0.89536428555E+03  0.00000000000E+00 0.  1.
         23    2    1    2    0    0 -0.10481871805E+04  0.10846693421E+03 -0.52984039108E+02  0.10589998518E+04  0.90619736017E+02 0.  0.
         13    1    3    3    0    0 -0.85123785070E+03  0.98677519973E+02 -0.91156320710E+01  0.85698671294E+03  0.00000000000E+00 0.  1.
        -13    1    3    3    0    0 -0.19694932982E+03  0.97894142319E+01 -0.43868407037E+02  0.20201313889E+03  0.00000000000E+00 0. -1.
         22    1    1    2    0    0  0.10481871805E+04 -0.10846693421E+03  0.47865354924E+03  0.11573982294E+04  0.00000000000E+00 0. -1.
<mgrwt>
<rscale>  0 0.21751381E+04</rscale>
<asrwt>0</asrwt>
<pdfrwt beam="1">  1        2 0.13774835E+00 0.21751381E+04</pdfrwt>
<pdfrwt beam="2">  1       -2 0.20323597E+00 0.21751381E+04</pdfrwt>
<totfact> 0.34252415E+00</totfact>
</mgrwt>
</event>
<event>
 6    1  0.4630212E-004  0.2444386E+04  0.7818608E-02  0.8423071E-01
          2   -1    0    0  501    0  0.00000000000E+00  0.00000000000E+00  0.22277130167E+04  0.22277130167E+04  0.00000000000E+00 0.  1.
         -2   -1    0    0    0  501 -0.00000000000E+00 -0.00000000000E+00 -0.67053305479E+03  0.67053305479E+03  0.00000000000E+00 0. -1.
         23    2    1    2    0    0  0.35600057012E+03  0.98744389584E+03  0.15180987630E+04  0.18478608120E+04  0.90464760909E+02 0.  0.
         13    1    3    3    0    0  0.24240034837E+03  0.55703345002E+03  0.91383258794E+03  0.10973304845E+04  0.00000000000E+00 0.  1.
        -13    1    3    3    0    0  0.11360022175E+03  0.43041044582E+03  0.60426617503E+03  0.75053032752E+03  0.00000000000E+00 0. -1.
         22    1    1    2    0    0 -0.35600057012E+03 -0.98744389584E+03  0.39081198977E+02  0.10503852595E+04  0.00000000000E+00 0. -1.
<mgrwt>
<rscale>  0 0.24443856E+04</rscale>
<asrwt>0</asrwt>
<pdfrwt beam="1">  1        2 0.34272508E+00 0.24443856E+04</pdfrwt>
<pdfrwt beam="2">  1       -2 0.10315893E+00 0.24443856E+04</pdfrwt>
<totfact> 0.34225289E+00</totfact>
</mgrwt>
</event>
<event>
 6    1  0.4630212E-004  0.7728931E+03  0.7818608E-02  0.9600104E-01
         -2   -1    0    0    0  501 -0.00000000000E+00  0.00000000000E+00  0.42896144525E+03  0.42896144525E+03  0.00000000000E+00 0. -1.
          2   -1    0    0  501    0  0.00000000000E+00 -0.00000000000E+00 -0.34814532917E+03  0.34814532917E+03  0.00000000000E+00 0.  1.
         23    2    1    2    0    0  0.41514162672E+02 -0.36322023782E+03  0.15037122720E+03  0.40496395191E+03  0.87931390922E+02 0.  0.
         11    1    3    3    0    0 -0.16790715197E+01 -0.29661947415E+03  0.11769277479E+03  0.31911991628E+03  0.00000000000E+00 0.  1.
        -11    1    3    3    0    0  0.43193234191E+02 -0.66600763670E+02  0.32678452417E+02  0.85844035633E+02  0.00000000000E+00 0. -1.
         22    1    1    2    0    0 -0.41514162672E+02  0.36322023782E+03 -0.69555111124E+02  0.37214282252E+03  0.00000000000E+00 0.  1.
<mgrwt>
<rscale>  0 0.77289307E+03</rscale>
<asrwt>0</asrwt>
<pdfrwt beam="1">  1        2 0.53560820E-01 0.77289307E+03</pdfrwt>
<pdfrwt beam="2">  1       -2 0.65994069E-01 0.77289307E+03</pdfrwt>
<totfact> 0.19808265E+02</totfact>
</mgrwt>
</event>
<event>
 6    1  0.4630212E-004  0.3161317E+04  0.7818608E-02  0.8199109E-01
         -2   -1    0    0    0  501 -0.00000000000E+00  0.00000000000E+00  0.15911831497E+04  0.15911831497E+04  0.00000000000E+00 0. -1.
          2   -1    0    0  501    0  0.00000000000E+00 -0.00000000000E+00 -0.15702031701E+04  0.15702031701E+04  0.00000000000E+00 0.  1.
         23    2    1    2    0    0  0.84869753514E+03 -0.13298771864E+04  0.82223785313E+02  0.15825856229E+04  0.94634380962E+02 0.  0.
         13    1    3    3    0    0  0.61262331521E+03 -0.87776434964E+03  0.56825359055E+02  0.10719173015E+04  0.00000000000E+00 0. -1.
        -13    1    3    3    0    0  0.23607421993E+03 -0.45211283671E+03  0.25398426258E+02  0.51066832141E+03  0.00000000000E+00 0.  1.
         22    1    1    2    0    0 -0.84869753514E+03  0.13298771864E+04 -0.61243805746E+02  0.15788006969E+04  0.00000000000E+00 0.  1.
<mgrwt>
<rscale>  0 0.31613167E+04</rscale>
<asrwt>0</asrwt>
<pdfrwt beam="1">  1        2 0.24156972E+00 0.31613167E+04</pdfrwt>
<pdfrwt beam="2">  1       -2 0.24479741E+00 0.31613167E+04</pdfrwt>
<totfact> 0.67735109E-01</totfact>
</mgrwt>
</event>
<event>
 6    1  0.4630212E-004  0.1170087E+04  0.7818608E-02  0.9139450E-01
          2   -1    0    0  501    0  0.00000000000E+00  0.00000000000E+00  0.51274636433E+03  0.51274636433E+03  0.00000000000E+00 0.  1.
         -2   -1    0    0    0  501 -0.00000000000E+00 -0.00000000000E+00 -0.66753456500E+03  0.66753456500E+03  0.00000000000E+00 0. -1.
         23    2    1    2    0    0  0.19628021607E+03 -0.50494713614E+03  0.13529070945E+03  0.56575403194E+03  0.90975354231E+02 0.  0.
         11    1    3    3    0    0 -0.14420017843E+01 -0.54483999288E+02 -0.34672844604E+01  0.54613254885E+02  0.00000000000E+00 0. -1.
        -11    1    3    3    0    0  0.19772221785E+03 -0.45046313685E+03  0.13875799391E+03  0.51114077706E+03  0.00000000000E+00 0.  1.
         22    1    1    2    0    0 -0.19628021607E+03  0.50494713614E+03 -0.29007891012E+03  0.61452689739E+03  0.00000000000E+00 0. -1.
<mgrwt>
<rscale>  0 0.11700870E+04</rscale>
<asrwt>0</asrwt>
<pdfrwt beam="1">  1        2 0.78884056E-01 0.11700870E+04</pdfrwt>
<pdfrwt beam="2">  1       -2 0.10269763E+00 0.11700870E+04</pdfrwt>
<totfact> 0.45835283E+01</totfact>
</mgrwt>
</event>
<event>
 6    1  0.4630212E-004  0.2866082E+04  0.7818608E-02  0.8283041E-01
          2   -1    0    0  501    0  0.00000000000E+00  0.00000000000E+00  0.33260898970E+04  0.33260898970E+04  0.00000000000E+00 0.  1.
         -2   -1    0    0    0  501 -0.00000000000E+00 -0.00000000000E+00 -0.61742348103E+03  0.61742348103E+03  0.00000000000E+00 0. -1.
         23    2    1    2    0    0 -0.12293231188E+04 -0.59048902291E+03  0.19546727751E+04  0.23851748310E+04  0.91655333455E+02 0.  0.
         13    1    3    3    0    0 -0.84952330126E+03 -0.37165111486E+03  0.12786955642E+04  0.15795178810E+04  0.00000000000E+00 0. -1.
        -13    1    3    3    0    0 -0.37979981758E+03 -0.21883790805E+03  0.67597721093E+03  0.80565695003E+03  0.00000000000E+00 0.  1.
         22    1    1    2    0    0  0.12293231188E+04  0.59048902291E+03  0.75399364093E+03  0.15583385471E+04  0.00000000000E+00 0.  1.
<mgrwt>
<rscale>  0 0.28660816E+04</rscale>
<asrwt>0</asrwt>
<pdfrwt beam="1">  1        2 0.51170613E+00 0.28660816E+04</pdfrwt>
<pdfrwt beam="2">  1       -2 0.94988229E-01 0.28660816E+04</pdfrwt>
<totfact> 0.86286406E-01</totfact>
</mgrwt>
</event>
<event>
 6    1  0.4630212E-004  0.1912545E+04  0.7818608E-02  0.8648637E-01
         -2   -1    0    0    0  501 -0.00000000000E+00  0.00000000000E+00  0.67585056870E+03  0.67585056870E+03  0.00000000000E+00 0. -1.
          2   -1    0    0  501    0  0.00000000000E+00 -0.00000000000E+00 -0.13530456038E+04  0.13530456038E+04  0.00000000000E+00 0.  1.
         23    2    1    2    0    0  0.73631783066E+03  0.75536531817E+02  0.29897494989E+03  0.80383390673E+03  0.94303836413E+02 0.  0.
         11    1    3    3    0    0  0.64368863973E+03  0.34786840378E+02  0.24998156096E+03  0.69140145357E+03  0.00000000000E+00 0.  1.
        -11    1    3    3    0    0  0.92629190935E+02  0.40749691439E+02  0.48993388931E+02  0.11243245316E+03  0.00000000000E+00 0. -1.
         22    1    1    2    0    0 -0.73631783066E+03 -0.75536531817E+02 -0.97616998499E+03  0.12250622658E+04  0.00000000000E+00 0.  1.
<mgrwt>
<rscale>  0 0.19125445E+04</rscale>
<asrwt>0</asrwt>
<pdfrwt beam="1">  1        2 0.20816086E+00 0.19125445E+04</pdfrwt>
<pdfrwt beam="2">  1       -2 0.10397701E+00 0.19125445E+04</pdfrwt>
<totfact> 0.10844660E+01</totfact>
</mgrwt>
</event>
<event>
 6    1  0.4630212E-004  0.3831996E+04  0.7818608E-02  0.8039323E-01
         -2   -1    0    0    0  501 -0.00000000000E+00  0.00000000000E+00  0.97131691929E+03  0.97131691929E+03  0.00000000000E+00 0. -1.
          2   -1    0    0  501    0  0.00000000000E+00 -0.00000000000E+00 -0.37794546241E+04  0.37794546241E+04  0.00000000000E+00 0.  1.
         23    2    1    2    0    0  0.11473428659E+04  0.10003362056E+03  0.49183333679E+03  0.12556018404E+04  0.90739039916E+02 0.  0.
         11    1    3    3    0    0  0.20260674960E+03  0.43544297059E+02  0.63341943113E+02  0.21669749086E+03  0.00000000000E+00 0.  1.
        -11    1    3    3    0    0  0.94473611629E+03  0.56489323502E+02  0.42849139367E+03  0.10389043496E+04  0.00000000000E+00 0. -1.
         22    1    1    2    0    0 -0.11473428659E+04 -0.10003362056E+03 -0.32999710416E+04  0.34951697030E+04  0.00000000000E+00 0.  1.
<mgrwt>
<rscale>  0 0.38319959E+04</rscale>
<asrwt>0</asrwt>
<pdfrwt beam="1">  1        2 0.58145454E+00 0.38319959E+04</pdfrwt>
<pdfrwt beam="2">  1       -2 0.14943338E+00 0.38319959E+04</pdfrwt>
<totfact> 0.12288482E-01</totfact>
</mgrwt>
</event>
<event>
 6    1  0.4630212E-004  0.5129700E+03  0.7818608E-02  0.1010448E+00
          2   -1    0    0  501    0  0.00000000000E+00  0.00000000000E+00  0.52289773803E+03  0.52289773803E+03  0.00000000000E+00 0.  1.
         -2   -1    0    0    0  501 -0.00000000000E+00 -0.00000000000E+00 -0.12580768791E+03  0.12580768791E+03  0.00000000000E+00 0. -1.
         23    2    1    2    0    0 -0.82373221282E+02 -0.94949087473E+01 -0.92105898110E+02  0.15253189113E+03  0.88921203706E+02 0.  0.
         11    1    3    3    0    0 -0.82608419183E+02 -0.28896761404E+02 -0.38664644533E+02  0.95677209807E+02  0.00000000000E+00 0.  1.
        -11    1    3    3    0    0  0.23519790092E+00  0.19401852656E+02 -0.53441253576E+02  0.56854681323E+02  0.00000000000E+00 0. -1.
         22    1    1    2    0    0  0.82373221282E+02  0.94949087473E+01  0.48919594823E+03  0.49617353480E+03  0.00000000000E+00 0.  1.
<mgrwt>
<rscale>  0 0.51297000E+03</rscale>
<asrwt>0</asrwt>
<pdfrwt beam="1">  1        2 0.80445804E-01 0.51297000E+03</pdfrwt>
<pdfrwt beam="2">  1       -2 0.19355029E-01 0.51297000E+03</pdfrwt>
<totfact> 0.13212415E+03</totfact>
</mgrwt>
</event>
<event>
 6    1  0.4630212E-004  0.2552047E+04  0.7818608E-02  0.8384675E-01
          2   -1    0    0  501    0  0.00000000000E+00  0.00000000000E+00  0.16579653900E+04  0.16579653900E+04  0.00000000000E+00 0.  1.
         -2   -1    0    0    0  501 -0.00000000000E+00 -0.00000000000E+00 -0.98206846402E+03  0.98206846402E+03  0.00000000000E+00 0. -1.
         23    2    1    2    0    0  0.69320200409E+03  0.82763713417E+03 -0.36220217809E+03  0.11423149237E+04  0.90447347885E+02 0.  0.
         11    1    3    3    0    0  0.39385864591E+03  0.40222240525E+03 -0.17602048936E+03  0.58982260801E+03  0.00000000000E+00 0.  1.
        -11    1    3    3    0    0  0.29934335818E+03  0.42541472892E+03 -0.18618168873E+03  0.55249231568E+03  0.00000000000E+00 0. -1.
         22    1    1    2    0    0 -0.69320200409E+03 -0.82763713417E+03  0.10380991040E+04  0.14977189303E+04  0.00000000000E+00 0.  1.
<mgrwt>
<rscale>  0 0.25520466E+04</rscale>
<asrwt>0</asrwt>
<pdfrwt beam="1">  1        2 0.25507160E+00 0.25520466E+04</pdfrwt>
<pdfrwt beam="2">  1       -2 0.15108746E+00 0.25520466E+04</pdfrwt>
<totfact> 0.27021279E+00</totfact>
</mgrwt>
</event>
<event>
 6    1  0.4630212E-004  0.3924305E+04  0.7818608E-02  0.8019993E-01
          2   -1    0    0  501    0  0.00000000000E+00  0.00000000000E+00  0.16320264373E+04  0.16320264373E+04  0.00000000000E+00 0.  1.
         -2   -1    0    0    0  501 -0.00000000000E+00 -0.00000000000E+00 -0.23590567494E+04  0.23590567494E+04  0.00000000000E+00 0. -1.
         23    2    1    2    0    0  0.23640702498E+03 -0.58854840763E+03 -0.22510777100E+04  0.23403263965E+04  0.86598360181E+02 0.  0.
         13    1    3    3    0    0  0.12701788513E+03 -0.33688040961E+03 -0.11204080706E+04  0.11768331225E+04  0.00000000000E+00 0.  1.
        -13    1    3    3    0    0  0.10938913985E+03 -0.25166799802E+03 -0.11306696394E+04  0.11634932740E+04  0.00000000000E+00 0. -1.
         22    1    1    2    0    0 -0.23640702498E+03  0.58854840763E+03  0.15240473978E+04  0.16507567902E+04  0.00000000000E+00 0.  1.
<mgrwt>
<rscale>  0 0.39243053E+04</rscale>
<asrwt>0</asrwt>
<pdfrwt beam="1">  1        2 0.25108099E+00 0.39243053E+04</pdfrwt>
<pdfrwt beam="2">  1       -2 0.36293181E+00 0.39243053E+04</pdfrwt>
<totfact> 0.10937442E-01</totfact>
</mgrwt>
</event>
<event>
 6    1  0.4630212E-004  0.1295305E+04  0.7818608E-02  0.9033297E-01
         -2   -1    0    0    0  501 -0.00000000000E+00  0.00000000000E+00  0.38917810475E+03  0.38917810475E+03  0.00000000000E+00 0. -1.
          2   -1    0    0  501    0  0.00000000000E+00 -0.00000000000E+00 -0.10777933554E+04  0.10777933554E+04  0.00000000000E+00 0.  1.
         23    2    1    2    0    0  0.27467026719E+03  0.56521246117E+03 -0.18390290505E+03  0.66096684864E+03  0.90266353460E+02 0.  0.
         13    1    3    3    0    0  0.22386708755E+03  0.39111113798E+03 -0.10241942556E+03  0.46214081606E+03  0.00000000000E+00 0. -1.
        -13    1    3    3    0    0  0.50803179642E+02  0.17410132320E+03 -0.81483479485E+02  0.19882603258E+03  0.00000000000E+00 0.  1.
         22    1    1    2    0    0 -0.27467026719E+03 -0.56521246117E+03 -0.50471234558E+03  0.80600461148E+03  0.00000000000E+00 0.  1.
<mgrwt>
<rscale>  0 0.12953047E+04</rscale>
<asrwt>0</asrwt>
<pdfrwt beam="1">  1        2 0.16581436E+00 0.12953047E+04</pdfrwt>
<pdfrwt beam="2">  1       -2 0.59873555E-01 0.12953047E+04</pdfrwt>
<totfact> 0.57366526E+01</totfact>
</mgrwt>
</event>
<event>
 6    1  0.4630212E-004  0.4036156E+04  0.7818608E-02  0.7997292E-01
          1   -1    0    0  501    0  0.00000000000E+00  0.00000000000E+00  0.38677409712E+04  0.38677409712E+04  0.00000000000E+00 0.  1.
         -1   -1    0    0    0  501 -0.00000000000E+00 -0.00000000000E+00 -0.10529759775E+04  0.10529759775E+04  0.00000000000E+00 0. -1.
         23    2    1    2    0    0 -0.71965882295E+03  0.17356228172E+04  0.23022738434E+04  0.29731691152E+04  0.94733058700E+02 0.  0.
         11    1    3    3    0    0 -0.35323622965E+03  0.86171474520E+03  0.12157861063E+04  0.15314907745E+04  0.00000000000E+00 0. -1.
        -11    1    3    3    0    0 -0.36642259330E+03  0.87390807195E+03  0.10864877371E+04  0.14416783407E+04  0.00000000000E+00 0.  1.
         22    1    1    2    0    0  0.71965882295E+03 -0.17356228172E+04  0.51249115024E+03  0.19475478335E+04  0.00000000000E+00 0. -1.
<mgrwt>
<rscale>  0 0.40361558E+04</rscale>
<asrwt>0</asrwt>
<pdfrwt beam="1">  1        1 0.59503707E+00 0.40361558E+04</pdfrwt>
<pdfrwt beam="2">  1       -1 0.16199631E+00 0.40361558E+04</pdfrwt>
<totfact> 0.27437284E-02</totfact>
</mgrwt>
</event>
<event>
 6    1  0.4630212E-004  0.1468349E+04  0.7818608E-02  0.8905777E-01
         -2   -1    0    0    0  501 -0.00000000000E+00  0.00000000000E+00  0.75211390250E+03  0.75211390250E+03  0.00000000000E+00 0. -1.
          2   -1    0    0  501    0  0.00000000000E+00 -0.00000000000E+00 -0.71666322221E+03  0.71666322221E+03  0.00000000000E+00 0.  1.
         23    2    1    2    0    0  0.20703576659E+03  0.40275472407E+03  0.59222443471E+03  0.75109182458E+03  0.91290588109E+02 0.  0.
         11    1    3    3    0    0  0.10157497304E+03  0.22337163818E+03  0.39102479894E+03  0.46164137302E+03  0.00000000000E+00 0.  1.
        -11    1    3    3    0    0  0.10546079355E+03  0.17938308588E+03  0.20119963577E+03  0.28945045157E+03  0.00000000000E+00 0. -1.
         22    1    1    2    0    0 -0.20703576659E+03 -0.40275472407E+03 -0.55677375442E+03  0.71768530013E+03  0.00000000000E+00 0.  1.
<mgrwt>
<rscale>  0 0.14683492E+04</rscale>
<asrwt>0</asrwt>
<pdfrwt beam="1">  1        2 0.11025588E+00 0.14683492E+04</pdfrwt>
<pdfrwt beam="2">  1       -2 0.11570983E+00 0.14683492E+04</pdfrwt>
<totfact> 0.22367182E+01</totfact>
</mgrwt>
</event>
<event>
 6    1  0.4630212E-004  0.2168756E+04  0.7818608E-02  0.8531546E-01
         -2   -1    0    0    0  501 -0.00000000000E+00  0.00000000000E+00  0.82323599385E+03  0.82323599385E+03  0.00000000000E+00 0.  1.
          2   -1    0    0  501    0  0.00000000000E+00 -0.00000000000E+00 -0.14283575345E+04  0.14283575345E+04  0.00000000000E+00 0. -1.
         23    2    1    2    0    0  0.48374314519E+03  0.14983833437E+03 -0.12956324839E+04  0.13952849859E+04  0.10815591325E+03 0.  0.
         13    1    3    3    0    0  0.37787228532E+03  0.13737652050E+03 -0.90357482152E+03  0.98899303865E+03  0.00000000000E+00 0. -1.
        -13    1    3    3    0    0  0.10587085987E+03  0.12461813869E+02 -0.39205766238E+03  0.40629194726E+03  0.00000000000E+00 0.  1.
         22    1    1    2    0    0 -0.48374314519E+03 -0.14983833437E+03  0.69051094331E+03  0.85630854240E+03  0.00000000000E+00 0.  1.
<mgrwt>
<rscale>  0 0.21687557E+04</rscale>
<asrwt>0</asrwt>
<pdfrwt beam="1">  1        2 0.21974731E+00 0.21687557E+04</pdfrwt>
<pdfrwt beam="2">  1       -2 0.12665169E+00 0.21687557E+04</pdfrwt>
<totfact> 0.59273220E+00</totfact>
</mgrwt>
</event>
<event>
 6    1  0.5045821E-004  0.3520560E+04  0.7818608E-02  0.8108935E-01
         -2   -1    0    0    0  501 -0.00000000000E+00  0.00000000000E+00  0.10756765050E+04  0.10756765050E+04  0.00000000000E+00 0. -1.
          2   -1    0    0  501    0  0.00000000000E+00 -0.00000000000E+00 -0.28805930579E+04  0.28805930579E+04  0.00000000000E+00 0.  1.
         23    2    1    2    0    0 -0.38960470974E+03  0.56094656634E+02 -0.28297436045E+04  0.28584494838E+04  0.91357231371E+02 0.  0.
         11    1    3    3    0    0 -0.21554574320E+03  0.51786139743E+02 -0.12919382918E+04  0.13108189507E+04  0.00000000000E+00 0. -1.
        -11    1    3    3    0    0 -0.17405896655E+03  0.43085168912E+01 -0.15378053127E+04  0.15476305331E+04  0.00000000000E+00 0.  1.
         22    1    1    2    0    0  0.38960470974E+03 -0.56094656634E+02  0.10248270516E+04  0.10978200791E+04  0.00000000000E+00 0. -1.
<mgrwt>
<rscale>  0 0.35205603E+04</rscale>
<asrwt>0</asrwt>
<pdfrwt beam="1">  1        2 0.44316816E+00 0.35205603E+04</pdfrwt>
<pdfrwt beam="2">  1       -2 0.16548869E+00 0.35205603E+04</pdfrwt>
<totfact> 0.38880475E-01</totfact>
</mgrwt>
</event>
<event>
 6    1  0.4630212E-004  0.1852795E+04  0.7818608E-02  0.8678717E-01
         -2   -1    0    0    0  501 -0.00000000000E+00  0.00000000000E+00  0.46176559228E+03  0.46176559228E+03  0.00000000000E+00 0. -1.
          2   -1    0    0  501    0  0.00000000000E+00 -0.00000000000E+00 -0.18585446892E+04  0.18585446892E+04  0.00000000000E+00 0.  1.
         23    2    1    2    0    0 -0.10352516549E+03 -0.69724979450E+03 -0.14486525664E+04  0.16135107394E+04  0.89151064884E+02 0.  0.
         13    1    3    3    0    0 -0.92537075746E+02 -0.56359670965E+03 -0.12438331351E+04  0.13686947174E+04  0.00000000000E+00 0.  1.
        -13    1    3    3    0    0 -0.10988089742E+02 -0.13365308485E+03 -0.20481943129E+03  0.24481602202E+03  0.00000000000E+00 0. -1.
         22    1    1    2    0    0  0.10352516549E+03  0.69724979450E+03  0.51873469451E+02  0.70679954206E+03  0.00000000000E+00 0. -1.
<mgrwt>
<rscale>  0 0.18527946E+04</rscale>
<asrwt>0</asrwt>
<pdfrwt beam="1">  1        2 0.28592995E+00 0.18527946E+04</pdfrwt>
<pdfrwt beam="2">  1       -2 0.71040861E-01 0.18527946E+04</pdfrwt>
<totfact> 0.13545702E+01</totfact>
</mgrwt>
</event>
<event>
 6    1  0.4630212E-004  0.3936319E+04  0.7818608E-02  0.8017518E-01
         -2   -1    0    0    0  501 -0.00000000000E+00  0.00000000000E+00  0.10774963975E+04  0.10774963975E+04  0.00000000000E+00 0. -1.
          2   -1    0    0  501    0  0.00000000000E+00 -0.00000000000E+00 -0.35950491270E+04  0.35950491270E+04  0.00000000000E+00 0.  1.
         23    2    1    2    0    0  0.14699677771E+04 -0.11038062863E+04 -0.42841479224E+03  0.18897967208E+04  0.92729866625E+02 0.  0.
         13    1    3    3    0    0  0.12869476969E+03 -0.94315232614E+02 -0.10822399890E+02  0.15992132812E+03  0.00000000000E+00 0. -1.
        -13    1    3    3    0    0  0.13412730074E+04 -0.10094910537E+04 -0.41759239235E+03  0.17298753926E+04  0.00000000000E+00 0.  1.
         22    1    1    2    0    0 -0.14699677771E+04  0.11038062863E+04 -0.20891379373E+04  0.27827488037E+04  0.00000000000E+00 0.  1.
<mgrwt>
<rscale>  0 0.39363193E+04</rscale>
<asrwt>0</asrwt>
<pdfrwt beam="1">  1        2 0.55308448E+00 0.39363193E+04</pdfrwt>
<pdfrwt beam="2">  1       -2 0.16576868E+00 0.39363193E+04</pdfrwt>
<totfact> 0.12589204E-01</totfact>
</mgrwt>
</event>
<event>
 6    1  0.4630212E-004  0.9613074E+03  0.7818608E-02  0.9352031E-01
          2   -1    0    0  501    0  0.00000000000E+00  0.00000000000E+00  0.12762249104E+04  0.12762249104E+04  0.00000000000E+00 0.  1.
         -2   -1    0    0    0  501 -0.00000000000E+00 -0.00000000000E+00 -0.18102451585E+03  0.18102451585E+03  0.00000000000E+00 0. -1.
         23    2    1    2    0    0 -0.10072963518E+03  0.14144905670E+03  0.12248327519E+04  0.12405495344E+04  0.92701575851E+02 0.  0.
         13    1    3    3    0    0 -0.36177489036E+02  0.10198493157E+03  0.48860749424E+03  0.50044682076E+03  0.00000000000E+00 0. -1.
        -13    1    3    3    0    0 -0.64552146143E+02  0.39464125130E+02  0.73622525766E+03  0.74010271365E+03  0.00000000000E+00 0.  1.
         22    1    1    2    0    0  0.10072963518E+03 -0.14144905670E+03 -0.12963235735E+03  0.21669989183E+03  0.00000000000E+00 0. -1.
<mgrwt>
<rscale>  0 0.96130744E+03</rscale>
<asrwt>0</asrwt>
<pdfrwt beam="1">  1        2 0.19634229E+00 0.96130744E+03</pdfrwt>
<pdfrwt beam="2">  1       -2 0.27849926E-01 0.96130744E+03</pdfrwt>
<totfact> 0.20071295E+02</totfact>
</mgrwt>
</event>
<event>
 6    1  0.4630212E-004  0.1100586E+04  0.7818608E-02  0.9204621E-01
         -2   -1    0    0    0  501 -0.00000000000E+00  0.00000000000E+00  0.51669123343E+03  0.51669123343E+03  0.00000000000E+00 0. -1.
          2   -1    0    0  501    0  0.00000000000E+00 -0.00000000000E+00 -0.58607945605E+03  0.58607945605E+03  0.00000000000E+00 0.  1.
         23    2    1    2    0    0 -0.12856134174E+03  0.52959266548E+03  0.33267988242E+01  0.55296719343E+03  0.93622857791E+02 0.  0.
         13    1    3    3    0    0 -0.10589192703E+03  0.30681578601E+03 -0.32475760132E+02  0.32619580278E+03  0.00000000000E+00 0.  1.
        -13    1    3    3    0    0 -0.22669414705E+02  0.22277687948E+03  0.35802558956E+02  0.22677139066E+03  0.00000000000E+00 0. -1.
         22    1    1    2    0    0  0.12856134174E+03 -0.52959266548E+03 -0.72715021446E+02  0.54980349605E+03  0.00000000000E+00 0.  1.
<mgrwt>
<rscale>  0 0.11005855E+04</rscale>
<asrwt>0</asrwt>
<pdfrwt beam="1">  1        2 0.90166070E-01 0.11005855E+04</pdfrwt>
<pdfrwt beam="2">  1       -2 0.79490959E-01 0.11005855E+04</pdfrwt>
<totfact> 0.71081630E+01</totfact>
</mgrwt>
</event>
<event>
 6    1  0.4630212E-004  0.5558656E+03  0.7818608E-02  0.1000145E+00
          2   -1    0    0  501    0  0.00000000000E+00  0.00000000000E+00  0.13873737566E+03  0.13873737566E+03  0.00000000000E+00 0.  1.
         -2   -1    0    0    0  501 -0.00000000000E+00 -0.00000000000E+00 -0.55678323690E+03  0.55678323690E+03  0.00000000000E+00 0. -1.
         23    2    1    2    0    0 -0.25166297555E+03 -0.52738863372E+02 -0.11060103163E+03  0.29472395062E+03  0.92271219242E+02 0.  0.
         11    1    3    3    0    0 -0.12014906959E+03 -0.65606306001E+02 -0.81826981898E+02  0.15948555194E+03  0.00000000000E+00 0. -1.
        -11    1    3    3    0    0 -0.13151390596E+03  0.12867442629E+02 -0.28774049728E+02  0.13523839868E+03  0.00000000000E+00 0.  1.
         22    1    1    2    0    0  0.25166297555E+03  0.52738863372E+02 -0.30744482961E+03  0.40079666194E+03  0.00000000000E+00 0. -1.
<mgrwt>
<rscale>  0 0.55586561E+03</rscale>
<asrwt>0</asrwt>
<pdfrwt beam="1">  1        2 0.21344211E-01 0.55586561E+03</pdfrwt>
<pdfrwt beam="2">  1       -2 0.85658961E-01 0.55586561E+03</pdfrwt>
<totfact> 0.31515437E+02</totfact>
</mgrwt>
</event>
<event>
 6    1  0.4630212E-004  0.1838359E+04  0.7818608E-02  0.8686162E-01
         -2   -1    0    0    0  501 -0.00000000000E+00  0.00000000000E+00  0.38470306364E+03  0.38470306364E+03  0.00000000000E+00 0. -1.
          2   -1    0    0  501    0  0.00000000000E+00 -0.00000000000E+00 -0.21962163770E+04  0.21962163770E+04  0.00000000000E+00 0.  1.
         23    2    1    2    0    0  0.48151388405E+02  0.50602359726E+03  0.16323796319E+03  0.54179682504E+03  0.92296965332E+02 0.  0.
         11    1    3    3    0    0 -0.15286550266E+02  0.30687203875E+03  0.10701566968E+03  0.32535592871E+03  0.00000000000E+00 0. -1.
        -11    1    3    3    0    0  0.63437938672E+02  0.19915155851E+03  0.56222293503E+02  0.21644089633E+03  0.00000000000E+00 0.  1.
         22    1    1    2    0    0 -0.48151388405E+02 -0.50602359726E+03 -0.19747512765E+04  0.20391226156E+04  0.00000000000E+00 0.  1.
<mgrwt>
<rscale>  0 0.18383592E+04</rscale>
<asrwt>0</asrwt>
<pdfrwt beam="1">  1        2 0.33787946E+00 0.18383592E+04</pdfrwt>
<pdfrwt beam="2">  1       -2 0.59185084E-01 0.18383592E+04</pdfrwt>
<totfact> 0.13022973E+01</totfact>
</mgrwt>
</event>
<event>
 6    1  0.4630212E-004  0.1745517E+04  0.7818608E-02  0.8735822E-01
          2   -1    0    0  501    0  0.00000000000E+00  0.00000000000E+00  0.84843784586E+03  0.84843784586E+03  0.00000000000E+00 0.  1.
         -2   -1    0    0    0  501 -0.00000000000E+00 -0.00000000000E+00 -0.89777681049E+03  0.89777681049E+03  0.00000000000E+00 0. -1.
         23    2    1    2    0    0 -0.51819426789E+03  0.26035038315E+03  0.62449776342E+03  0.85719072115E+03  0.92037245884E+02 0.  0.
         11    1    3    3    0    0 -0.31015046181E+03  0.17787365981E+03  0.32391860019E+03  0.48244751773E+03  0.00000000000E+00 0.  1.
        -11    1    3    3    0    0 -0.20804380607E+03  0.82476723342E+02  0.30057916323E+03  0.37474320342E+03  0.00000000000E+00 0. -1.
         22    1    1    2    0    0  0.51819426789E+03 -0.26035038315E+03 -0.67383672805E+03  0.88902393520E+03  0.00000000000E+00 0. -1.
<mgrwt>
<rscale>  0 0.17455175E+04</rscale>
<asrwt>0</asrwt>
<pdfrwt beam="1">  1        2 0.13052890E+00 0.17455175E+04</pdfrwt>
<pdfrwt beam="2">  1       -2 0.13811951E+00 0.17455175E+04</pdfrwt>
<totfact> 0.11220194E+01</totfact>
</mgrwt>
</event>
<event>
 6    1  0.4630212E-004  0.2049526E+04  0.7818608E-02  0.8583809E-01
          2   -1    0    0  501    0  0.00000000000E+00  0.00000000000E+00  0.93104057014E+03  0.93104057014E+03  0.00000000000E+00 0.  1.
         -2   -1    0    0    0  501 -0.00000000000E+00 -0.00000000000E+00 -0.11279201963E+04  0.11279201963E+04  0.00000000000E+00 0. -1.
         23    2    1    2    0    0  0.32523533189E+03 -0.85264576567E+03  0.36557665489E+03  0.98698133991E+03  0.87767032027E+02 0.  0.
         13    1    3    3    0    0  0.21034195422E+02 -0.50563208237E+02  0.68380108222E+00  0.54768083664E+02  0.00000000000E+00 0. -1.
        -13    1    3    3    0    0  0.30420113646E+03 -0.80208255743E+03  0.36489285380E+03  0.93221325625E+03  0.00000000000E+00 0.  1.
         22    1    1    2    0    0 -0.32523533189E+03  0.85264576567E+03 -0.56245628107E+03  0.10719794265E+04  0.00000000000E+00 0.  1.
<mgrwt>
<rscale>  0 0.20495263E+04</rscale>
<asrwt>0</asrwt>
<pdfrwt beam="1">  1        2 0.14323701E+00 0.20495263E+04</pdfrwt>
<pdfrwt beam="2">  1       -2 0.17352618E+00 0.20495263E+04</pdfrwt>
<totfact> 0.52023956E+00</totfact>
</mgrwt>
</event>
<event>
 6    1  0.4630212E-004  0.9698547E+03  0.7818608E-02  0.9342240E-01
         -2   -1    0    0    0  501 -0.00000000000E+00  0.00000000000E+00  0.19541178246E+03  0.19541178246E+03  0.00000000000E+00 0. -1.
          2   -1    0    0  501    0  0.00000000000E+00 -0.00000000000E+00 -0.12033796255E+04  0.12033796255E+04  0.00000000000E+00 0.  1.
         23    2    1    2    0    0 -0.12475761437E+03 -0.38514957660E+03 -0.88241750142E+03  0.97491931996E+03  0.88895303187E+02 0.  0.
         11    1    3    3    0    0 -0.37817717168E+02 -0.23060523245E+03 -0.56324012098E+03  0.60979372484E+03  0.00000000000E+00 0.  1.
        -11    1    3    3    0    0 -0.86939897207E+02 -0.15454434415E+03 -0.31917738043E+03  0.36512559512E+03  0.00000000000E+00 0. -1.
         22    1    1    2    0    0  0.12475761437E+03  0.38514957660E+03 -0.12555034161E+03  0.42387208799E+03  0.00000000000E+00 0. -1.
<mgrwt>
<rscale>  0 0.96985475E+03</rscale>
<asrwt>0</asrwt>
<pdfrwt beam="1">  1        2 0.18513533E+00 0.96985475E+03</pdfrwt>
<pdfrwt beam="2">  1       -2 0.30063351E-01 0.96985475E+03</pdfrwt>
<totfact> 0.19223913E+02</totfact>
</mgrwt>
</event>
<event>
 6    1  0.4630212E-004  0.8684541E+03  0.7818608E-02  0.9465898E-01
          2   -1    0    0  501    0  0.00000000000E+00  0.00000000000E+00  0.37123557817E+03  0.37123557817E+03  0.00000000000E+00 0.  1.
         -2   -1    0    0    0  501 -0.00000000000E+00 -0.00000000000E+00 -0.50790690298E+03  0.50790690298E+03  0.00000000000E+00 0. -1.
         23    2    1    2    0    0 -0.55789825422E+02  0.17293509124E+03 -0.46291718503E+03  0.50570518827E+03  0.91795244109E+02 0.  0.
         11    1    3    3    0    0 -0.20804017325E+02  0.14952785409E+03 -0.28105448323E+03  0.31903449473E+03  0.00000000000E+00 0.  1.
        -11    1    3    3    0    0 -0.34985808097E+02  0.23407237157E+02 -0.18186270180E+03  0.18667069354E+03  0.00000000000E+00 0. -1.
         22    1    1    2    0    0  0.55789825422E+02 -0.17293509124E+03  0.32624586022E+03  0.37343729288E+03  0.00000000000E+00 0.  1.
<mgrwt>
<rscale>  0 0.86845406E+03</rscale>
<asrwt>0</asrwt>
<pdfrwt beam="1">  1        2 0.57113166E-01 0.86845406E+03</pdfrwt>
<pdfrwt beam="2">  1       -2 0.78139523E-01 0.86845406E+03</pdfrwt>
<totfact> 0.12671347E+02</totfact>
</mgrwt>
</event>
<event>
 6    1  0.4630212E-004  0.3812786E+04  0.7818608E-02  0.8043417E-01
          2   -1    0    0  501    0  0.00000000000E+00  0.00000000000E+00  0.43456200119E+04  0.43456200119E+04  0.00000000000E+00 0.  1.
         -2   -1    0    0    0  501 -0.00000000000E+00 -0.00000000000E+00 -0.83632120301E+03  0.83632120301E+03  0.00000000000E+00 0. -1.
         23    2    1    2    0    0 -0.50164817568E+01 -0.14413023740E+04  0.34492213105E+04  0.37393785632E+04  0.91905885270E+02 0.  0.
         13    1    3    3    0    0 -0.12827768503E+02 -0.94446173048E+03  0.21477389220E+04  0.23462640493E+04  0.00000000000E+00 0. -1.
        -13    1    3    3    0    0  0.78112867460E+01 -0.49684064349E+03  0.13014823885E+04  0.13931145139E+04  0.00000000000E+00 0.  1.
         22    1    1    2    0    0  0.50164817568E+01  0.14413023740E+04  0.60077498375E+02  0.14425626517E+04  0.00000000000E+00 0. -1.
<mgrwt>
<rscale>  0 0.38127859E+04</rscale>
<asrwt>0</asrwt>
<pdfrwt beam="1">  1        2 0.66855691E+00 0.38127859E+04</pdfrwt>
<pdfrwt beam="2">  1       -2 0.12866480E+00 0.38127859E+04</pdfrwt>
<totfact> 0.61231396E-02</totfact>
</mgrwt>
</event>
<event>
 6    1  0.4630212E-004  0.1098854E+04  0.7818608E-02  0.9206310E-01
         -2   -1    0    0    0  501 -0.00000000000E+00  0.00000000000E+00  0.46395951676E+03  0.46395951676E+03  0.00000000000E+00 0. -1.
          2   -1    0    0  501    0  0.00000000000E+00 -0.00000000000E+00 -0.65063820500E+03  0.65063820500E+03  0.00000000000E+00 0.  1.
         23    2    1    2    0    0 -0.17751574151E+03 -0.30924596346E+03  0.32480245216E+03  0.49109322188E+03  0.92363495181E+02 0.  0.
         11    1    3    3    0    0 -0.16066014706E+03 -0.31061617875E+03  0.29826842204E+03  0.45962826821E+03  0.00000000000E+00 0. -1.
        -11    1    3    3    0    0 -0.16855594453E+02  0.13702152946E+01  0.26534030126E+02  0.31464953663E+02  0.00000000000E+00 0.  1.
         22    1    1    2    0    0  0.17751574151E+03  0.30924596346E+03 -0.51148114040E+03  0.62350449989E+03  0.00000000000E+00 0.  1.
<mgrwt>
<rscale>  0 0.10988536E+04</rscale>
<asrwt>0</asrwt>
<pdfrwt beam="1">  1        2 0.10009818E+00 0.10988536E+04</pdfrwt>
<pdfrwt beam="2">  1       -2 0.71378388E-01 0.10988536E+04</pdfrwt>
<totfact> 0.79473052E+01</totfact>
</mgrwt>
</event>
<event>
 6    1  0.4630212E-004  0.2388470E+04  0.7818608E-02  0.8443833E-01
          4   -1    0    0  501    0  0.00000000000E+00  0.00000000000E+00  0.20390704364E+04  0.20390704364E+04  0.00000000000E+00 0.  1.
         -4   -1    0    0    0  501 -0.00000000000E+00 -0.00000000000E+00 -0.69943500640E+03  0.69943500640E+03  0.00000000000E+00 0. -1.
         23    2    1    2    0    0  0.78858972495E+03 -0.85482414677E+03  0.36856065469E+03  0.12233868681E+04  0.90776630152E+02 0.  0.
         13    1    3    3    0    0  0.21129153135E+03 -0.22473678448E+03  0.56322406152E+02  0.31356490070E+03  0.00000000000E+00 0.  1.
        -13    1    3    3    0    0  0.57729819360E+03 -0.63008736229E+03  0.31223824854E+03  0.90982196737E+03  0.00000000000E+00 0. -1.
         22    1    1    2    0    0 -0.78858972495E+03  0.85482414677E+03  0.97107477529E+03  0.15151185747E+04  0.00000000000E+00 0. -1.
<mgrwt>
<rscale>  0 0.23884700E+04</rscale>
<asrwt>0</asrwt>
<pdfrwt beam="1">  1        4 0.31370314E+00 0.23884700E+04</pdfrwt>
<pdfrwt beam="2">  1       -4 0.10760539E+00 0.23884700E+04</pdfrwt>
<totfact> 0.31519866E-02</totfact>
</mgrwt>
</event>
<event>
 6    1  0.4630212E-004  0.5240991E+04  0.7818608E-02  0.7792370E-01
          2   -1    0    0  501    0  0.00000000000E+00  0.00000000000E+00  0.35944828880E+04  0.35944828880E+04  0.00000000000E+00 0.  1.
         -2   -1    0    0    0  501 -0.00000000000E+00 -0.00000000000E+00 -0.19104271043E+04  0.19104271043E+04  0.00000000000E+00 0. -1.
         23    2    1    2    0    0 -0.18428739176E+04  0.88743629839E+03  0.25615006473E+04  0.32792332529E+04  0.91420461603E+02 0.  0.
         11    1    3    3    0    0 -0.33283996751E+03  0.14827873592E+03  0.51106745175E+03  0.62766150729E+03  0.00000000000E+00 0. -1.
        -11    1    3    3    0    0 -0.15100339501E+04  0.73915756248E+03  0.20504331956E+04  0.26515717456E+04  0.00000000000E+00 0.  1.
         22    1    1    2    0    0  0.18428739176E+04 -0.88743629839E+03 -0.87744486362E+03  0.22256767395E+04  0.00000000000E+00 0. -1.
<mgrwt>
<rscale>  0 0.52409913E+04</rscale>
<asrwt>0</asrwt>
<pdfrwt beam="1">  1        2 0.55299737E+00 0.52409913E+04</pdfrwt>
<pdfrwt beam="2">  1       -2 0.29391186E+00 0.52409913E+04</pdfrwt>
<totfact> 0.17191297E-02</totfact>
</mgrwt>
</event>
<event>
 6    1  0.4630212E-004  0.1981448E+04  0.7818608E-02  0.8615344E-01
          2   -1    0    0  501    0  0.00000000000E+00  0.00000000000E+00  0.29343490913E+04  0.29343490913E+04  0.00000000000E+00 0.  1.
         -2   -1    0    0    0  501 -0.00000000000E+00 -0.00000000000E+00 -0.33449795959E+03  0.33449795959E+03  0.00000000000E+00 0. -1.
         23    2    1    2    0    0 -0.39701888187E+03 -0.21937747684E+03  0.27518759107E+04  0.27904518133E+04  0.89720812707E+02 0.  0.
         13    1    3    3    0    0 -0.17257619808E+03 -0.45534719463E+02  0.10537721788E+04  0.10687805011E+04  0.00000000000E+00 0. -1.
        -13    1    3    3    0    0 -0.22444268380E+03 -0.17384275738E+03  0.16981037320E+04  0.17216713122E+04  0.00000000000E+00 0.  1.
         22    1    1    2    0    0  0.39701888187E+03  0.21937747684E+03 -0.15202477904E+03  0.47839523759E+03  0.00000000000E+00 0. -1.
<mgrwt>
<rscale>  0 0.19814477E+04</rscale>
<asrwt>0</asrwt>
<pdfrwt beam="1">  1        2 0.45143830E+00 0.19814477E+04</pdfrwt>
<pdfrwt beam="2">  1       -2 0.51461227E-01 0.19814477E+04</pdfrwt>
<totfact> 0.63645024E+00</totfact>
</mgrwt>
</event>
<event>
 6    1  0.4713857E-004  0.3150318E+04  0.7818608E-02  0.8202063E-01
          2   -1    0    0  501    0  0.00000000000E+00  0.00000000000E+00  0.21709027862E+04  0.21709027862E+04  0.00000000000E+00 0.  1.
         -2   -1    0    0    0  501 -0.00000000000E+00 -0.00000000000E+00 -0.11429005651E+04  0.11429005651E+04  0.00000000000E+00 0. -1.
         23    2    1    2    0    0 -0.72368191875E+03 -0.13612149730E+04  0.18132607391E+03  0.15549735641E+04  0.91879908334E+02 0.  0.
         13    1    3    3    0    0 -0.36475745015E+03 -0.78281559054E+03  0.10581782179E+03  0.87008370726E+03  0.00000000000E+00 0.  1.
        -13    1    3    3    0    0 -0.35892446860E+03 -0.57839938250E+03  0.75508252128E+02  0.68488985682E+03  0.00000000000E+00 0. -1.
         22    1    1    2    0    0  0.72368191875E+03  0.13612149730E+04  0.84667614715E+03  0.17588297872E+04  0.00000000000E+00 0. -1.
<mgrwt>
<rscale>  0 0.31503181E+04</rscale>
<asrwt>0</asrwt>
<pdfrwt beam="1">  1        2 0.33398504E+00 0.31503181E+04</pdfrwt>
<pdfrwt beam="2">  1       -2 0.17583086E+00 0.31503181E+04</pdfrwt>
<totfact> 0.87891230E-01</totfact>
</mgrwt>
</event>
<event>
 6    1  0.4630212E-004  0.1458093E+04  0.7818608E-02  0.8912809E-01
         -2   -1    0    0    0  501 -0.00000000000E+00  0.00000000000E+00  0.80701184651E+03  0.80701184651E+03  0.00000000000E+00 0. -1.
          2   -1    0    0  501    0  0.00000000000E+00 -0.00000000000E+00 -0.65861374020E+03  0.65861374020E+03  0.00000000000E+00 0.  1.
         23    2    1    2    0    0  0.56773381382E+03 -0.45183369022E+03  0.10468236510E+03  0.73872364490E+03  0.90988235483E+02 0.  0.
         13    1    3    3    0    0  0.22155697258E+03 -0.23398922516E+03  0.48277117161E+02  0.32583604716E+03  0.00000000000E+00 0.  1.
        -13    1    3    3    0    0  0.34617684124E+03 -0.21784446506E+03  0.56405247942E+02  0.41288759773E+03  0.00000000000E+00 0. -1.
         22    1    1    2    0    0 -0.56773381382E+03  0.45183369022E+03  0.43715741210E+02  0.72690194181E+03  0.00000000000E+00 0.  1.
<mgrwt>
<rscale>  0 0.14580934E+04</rscale>
<asrwt>0</asrwt>
<pdfrwt beam="1">  1        2 0.10132519E+00 0.14580934E+04</pdfrwt>
<pdfrwt beam="2">  1       -2 0.12415567E+00 0.14580934E+04</pdfrwt>
<totfact> 0.20903551E+01</totfact>
</mgrwt>
</event>
<event>
 6    1  0.4630212E-004  0.7922195E+03  0.7818608E-02  0.9571348E-01
         -2   -1    0    0    0  501 -0.00000000000E+00  0.00000000000E+00  0.30690861188E+03  0.30690861188E+03  0.00000000000E+00 0.  1.
          2   -1    0    0  501    0  0.00000000000E+00 -0.00000000000E+00 -0.51123668317E+03  0.51123668317E+03  0.00000000000E+00 0. -1.
         23    2    1    2    0    0 -0.77669765475E+02 -0.18117775028E+03 -0.45207046291E+03  0.50154734453E+03  0.91236317889E+02 0.  0.
         11    1    3    3    0    0 -0.28299271382E+02 -0.11252116117E+02 -0.13547901286E+03  0.13885971987E+03  0.00000000000E+00 0. -1.
        -11    1    3    3    0    0 -0.49370494093E+02 -0.16992563416E+03 -0.31659145005E+03  0.36268762465E+03  0.00000000000E+00 0.  1.
         22    1    1    2    0    0  0.77669765475E+02  0.18117775028E+03  0.24774239162E+03  0.31659795052E+03  0.00000000000E+00 0.  1.
<mgrwt>
<rscale>  0 0.79221952E+03</rscale>
<asrwt>0</asrwt>
<pdfrwt beam="1">  1        2 0.78651798E-01 0.79221952E+03</pdfrwt>
<pdfrwt beam="2">  1       -2 0.47216709E-01 0.79221952E+03</pdfrwt>
<totfact> 0.25688996E+02</totfact>
</mgrwt>
</event>
<event>
 6    1  0.4630212E-004  0.2298176E+04  0.7818608E-02  0.8478641E-01
          2   -1    0    0  501    0  0.00000000000E+00  0.00000000000E+00  0.49266746841E+04  0.49266746841E+04  0.00000000000E+00 0.  1.
         -2   -1    0    0    0  501 -0.00000000000E+00 -0.00000000000E+00 -0.26801108794E+03  0.26801108794E+03  0.00000000000E+00 0. -1.
         23    2    1    2    0    0 -0.11681733170E+03 -0.11408276376E+04  0.24017634422E+04  0.26631383614E+04  0.93296900410E+02 0.  0.
         11    1    3    3    0    0 -0.63379611955E+02 -0.25253002710E+03  0.57012717407E+03  0.62676421756E+03  0.00000000000E+00 0. -1.
        -11    1    3    3    0    0 -0.53437719748E+02 -0.88829761051E+03  0.18316362682E+04  0.20363741438E+04  0.00000000000E+00 0.  1.
         22    1    1    2    0    0  0.11681733170E+03  0.11408276376E+04  0.22569001539E+04  0.25315474107E+04  0.00000000000E+00 0.  1.
<mgrwt>
<rscale>  0 0.22981762E+04</rscale>
<asrwt>0</asrwt>
<pdfrwt beam="1">  1        2 0.75794989E+00 0.22981762E+04</pdfrwt>
<pdfrwt beam="2">  1       -2 0.41232479E-01 0.22981762E+04</pdfrwt>
<totfact> 0.21681727E-01</totfact>
</mgrwt>
</event>
<event>
 6    1  0.4630212E-004  0.2894275E+04  0.7818608E-02  0.8274583E-01
         -2   -1    0    0    0  501 -0.00000000000E+00  0.00000000000E+00  0.18162567501E+04  0.18162567501E+04  0.00000000000E+00 0.  1.
          2   -1    0    0  501    0  0.00000000000E+00 -0.00000000000E+00 -0.11530347601E+04  0.11530347601E+04  0.00000000000E+00 0. -1.
         23    2    1    2    0    0  0.65832139358E+03 -0.12846897763E+04  0.41240663879E+03  0.15041214795E+04  0.92126601903E+02 0.  0.
         13    1    3    3    0    0  0.11510774423E+03 -0.21550767718E+03  0.10605917221E+03  0.26634920633E+03  0.00000000000E+00 0. -1.
        -13    1    3    3    0    0  0.54321364935E+03 -0.10691820991E+04  0.30634746658E+03  0.12377722731E+04  0.00000000000E+00 0.  1.
         22    1    1    2    0    0 -0.65832139358E+03  0.12846897763E+04  0.25081535116E+03  0.14651700307E+04  0.00000000000E+00 0. -1.
<mgrwt>
<rscale>  0 0.28942752E+04</rscale>
<asrwt>0</asrwt>
<pdfrwt beam="1">  1        2 0.17738996E+00 0.28942752E+04</pdfrwt>
<pdfrwt beam="2">  1       -2 0.27942411E+00 0.28942752E+04</pdfrwt>
<totfact> 0.74107314E-01</totfact>
</mgrwt>
</event>
<event>
 6    1  0.4630212E-004  0.2972280E+04  0.7818608E-02  0.8251691E-01
          2   -1    0    0  501    0  0.00000000000E+00  0.00000000000E+00  0.14919604772E+04  0.14919604772E+04  0.00000000000E+00 0.  1.
         -2   -1    0    0    0  501 -0.00000000000E+00 -0.00000000000E+00 -0.14803421220E+04  0.14803421220E+04  0.00000000000E+00 0. -1.
         23    2    1    2    0    0  0.90464061606E+03  0.92078096530E+03  0.73917837609E+03  0.14905617938E+04  0.95799578452E+02 0.  0.
         13    1    3    3    0    0  0.59798232544E+03  0.62029561835E+03  0.54382399574E+03  0.10188690073E+04  0.00000000000E+00 0.  1.
        -13    1    3    3    0    0  0.30665829062E+03  0.30048534695E+03  0.19535438035E+03  0.47169278652E+03  0.00000000000E+00 0. -1.
         22    1    1    2    0    0 -0.90464061606E+03 -0.92078096530E+03 -0.72756002095E+03  0.14817408054E+04  0.00000000000E+00 0. -1.
<mgrwt>
<rscale>  0 0.29722799E+04</rscale>
<asrwt>0</asrwt>
<pdfrwt beam="1">  1        2 0.22953238E+00 0.29722799E+04</pdfrwt>
<pdfrwt beam="2">  1       -2 0.22774494E+00 0.29722799E+04</pdfrwt>
<totfact> 0.97213914E-01</totfact>
</mgrwt>
</event>
<event>
 6    1  0.8905785E-004  0.4037179E+04  0.7818608E-02  0.7997088E-01
          2   -1    0    0  501    0  0.00000000000E+00  0.00000000000E+00  0.30285343983E+04  0.30285343983E+04  0.00000000000E+00 0.  1.
         -2   -1    0    0    0  501 -0.00000000000E+00 -0.00000000000E+00 -0.13454373778E+04  0.13454373778E+04  0.00000000000E+00 0. -1.
         23    2    1    2    0    0 -0.19054610614E+04  0.28529755675E+03  0.19346076738E+03  0.19385677605E+04  0.91876773008E+02 0.  0.
         13    1    3    3    0    0 -0.10044347367E+04  0.12794543513E+03  0.61281697585E+02  0.10144035791E+04  0.00000000000E+00 0. -1.
        -13    1    3    3    0    0 -0.90102632463E+03  0.15735212162E+03  0.13217906980E+03  0.92416418149E+03  0.00000000000E+00 0.  1.
         22    1    1    2    0    0  0.19054610614E+04 -0.28529755675E+03  0.14896362532E+04  0.24354040156E+04  0.00000000000E+00 0.  1.
<mgrwt>
<rscale>  0 0.40371789E+04</rscale>
<asrwt>0</asrwt>
<pdfrwt beam="1">  1        2 0.46592837E+00 0.40371789E+04</pdfrwt>
<pdfrwt beam="2">  1       -2 0.20699037E+00 0.40371789E+04</pdfrwt>
<totfact> 0.15724683E-01</totfact>
</mgrwt>
</event>
<event>
 6    1  0.4630212E-004  0.2205249E+04  0.7818608E-02  0.8516247E-01
         -2   -1    0    0    0  501 -0.00000000000E+00  0.00000000000E+00  0.96014237926E+03  0.96014237926E+03  0.00000000000E+00 0. -1.
          2   -1    0    0  501    0  0.00000000000E+00 -0.00000000000E+00 -0.12662505300E+04  0.12662505300E+04  0.00000000000E+00 0.  1.
         23    2    1    2    0    0 -0.75134797351E+03 -0.77278348413E+03  0.73600344811E+02  0.10836345655E+04  0.84432044785E+02 0.  0.
         11    1    3    3    0    0 -0.16892028012E+03 -0.15880755988E+03  0.49155237895E+02  0.23700240404E+03  0.00000000000E+00 0. -1.
        -11    1    3    3    0    0 -0.58242769339E+03 -0.61397592426E+03  0.24445106916E+02  0.84663216148E+03  0.00000000000E+00 0.  1.
         22    1    1    2    0    0  0.75134797351E+03  0.77278348413E+03 -0.37970849558E+03  0.11427583438E+04  0.00000000000E+00 0.  1.
<mgrwt>
<rscale>  0 0.22052490E+04</rscale>
<asrwt>0</asrwt>
<pdfrwt beam="1">  1        2 0.19480777E+00 0.22052490E+04</pdfrwt>
<pdfrwt beam="2">  1       -2 0.14771421E+00 0.22052490E+04</pdfrwt>
<totfact> 0.49334500E+00</totfact>
</mgrwt>
</event>
<event>
 6    1  0.4630212E-004  0.3729044E+04  0.7818608E-02  0.8061556E-01
          2   -1    0    0  501    0  0.00000000000E+00  0.00000000000E+00  0.16114242027E+04  0.16114242027E+04  0.00000000000E+00 0.  1.
         -2   -1    0    0    0  501 -0.00000000000E+00 -0.00000000000E+00 -0.21573726801E+04  0.21573726801E+04  0.00000000000E+00 0. -1.
         23    2    1    2    0    0 -0.70932297435E+03 -0.16836397371E+04 -0.64380518770E+03  0.19392183024E+04  0.91107948875E+02 0.  0.
         13    1    3    3    0    0 -0.40831027232E+03 -0.97741254862E+03 -0.42070305652E+03  0.11397559521E+04  0.00000000000E+00 0. -1.
        -13    1    3    3    0    0 -0.30101270203E+03 -0.70622718846E+03 -0.22310213118E+03  0.79946235024E+03  0.00000000000E+00 0.  1.
         22    1    1    2    0    0  0.70932297435E+03  0.16836397371E+04  0.97856710230E+02  0.18295785804E+04  0.00000000000E+00 0.  1.
<mgrwt>
<rscale>  0 0.37290441E+04</rscale>
<asrwt>0</asrwt>
<pdfrwt beam="1">  1        2 0.24791142E+00 0.37290441E+04</pdfrwt>
<pdfrwt beam="2">  1       -2 0.33190349E+00 0.37290441E+04</pdfrwt>
<totfact> 0.17897850E-01</totfact>
</mgrwt>
</event>
<event>
 6    1  0.4630212E-004  0.3795536E+04  0.7818608E-02  0.8047114E-01
          2   -1    0    0  501    0  0.00000000000E+00  0.00000000000E+00  0.38801701754E+04  0.38801701754E+04  0.00000000000E+00 0. -1.
         -2   -1    0    0    0  501 -0.00000000000E+00 -0.00000000000E+00 -0.92818676606E+03  0.92818676606E+03  0.00000000000E+00 0.  1.
         23    2    1    2    0    0  0.13310164987E+04 -0.12641806105E+04  0.20813054903E+04  0.27766488979E+04  0.90493219914E+02 0.  0.
         13    1    3    3    0    0  0.66133900948E+03 -0.56884874233E+03  0.10090371438E+04  0.13338343730E+04  0.00000000000E+00 0.  1.
        -13    1    3    3    0    0  0.66967748918E+03 -0.69533186812E+03  0.10722683465E+04  0.14428145249E+04  0.00000000000E+00 0. -1.
         22    1    1    2    0    0 -0.13310164987E+04  0.12641806105E+04  0.87067791911E+03  0.20317080436E+04  0.00000000000E+00 0.  1.
<mgrwt>
<rscale>  0 0.37955356E+04</rscale>
<asrwt>0</asrwt>
<pdfrwt beam="1">  1        2 0.59694925E+00 0.37955356E+04</pdfrwt>
<pdfrwt beam="2">  1       -2 0.14279797E+00 0.37955356E+04</pdfrwt>
<totfact> 0.11621565E-01</totfact>
</mgrwt>
</event>
<event>
 6    1  0.4630212E-004  0.1716511E+04  0.7818608E-02  0.8752003E-01
          2   -1    0    0  501    0  0.00000000000E+00  0.00000000000E+00  0.61356291740E+03  0.61356291740E+03  0.00000000000E+00 0.  1.
         -2   -1    0    0    0  501 -0.00000000000E+00 -0.00000000000E+00 -0.12005329494E+04  0.12005329494E+04  0.00000000000E+00 0. -1.
         23    2    1    2    0    0  0.76011183582E+03  0.51947298172E+02 -0.70631130080E+03  0.10429208782E+04  0.91322394445E+02 0.  0.
         11    1    3    3    0    0  0.23766631772E+03 -0.25960890871E+02 -0.22476466844E+03  0.32814387487E+03  0.00000000000E+00 0.  1.
        -11    1    3    3    0    0  0.52244551810E+03  0.77908189043E+02 -0.48154663236E+03  0.71477700330E+03  0.00000000000E+00 0. -1.
         22    1    1    2    0    0 -0.76011183582E+03 -0.51947298172E+02  0.11934126875E+03  0.77117498868E+03  0.00000000000E+00 0.  1.
<mgrwt>
<rscale>  0 0.17165110E+04</rscale>
<asrwt>0</asrwt>
<pdfrwt beam="1">  1        2 0.94394295E-01 0.17165110E+04</pdfrwt>
<pdfrwt beam="2">  1       -2 0.18469738E+00 0.17165110E+04</pdfrwt>
<totfact> 0.77151250E+00</totfact>
</mgrwt>
</event>
<event>
 6    1  0.4630212E-004  0.2190565E+04  0.7818608E-02  0.8522365E-01
         -2   -1    0    0    0  501 -0.00000000000E+00  0.00000000000E+00  0.49159208088E+03  0.49159208088E+03  0.00000000000E+00 0. -1.
          2   -1    0    0  501    0  0.00000000000E+00 -0.00000000000E+00 -0.24403237190E+04  0.24403237190E+04  0.00000000000E+00 0.  1.
         23    2    1    2    0    0  0.22991968945E+03  0.77355094630E+03 -0.19634174305E+04  0.21247852017E+04  0.91978348953E+02 0.  0.
         11    1    3    3    0    0  0.17505861823E+03  0.43010161956E+03 -0.11348669686E+04  0.12261957263E+04  0.00000000000E+00 0. -1.
        -11    1    3    3    0    0  0.54861071226E+02  0.34344932673E+03 -0.82855046194E+03  0.89858947531E+03  0.00000000000E+00 0.  1.
         22    1    1    2    0    0 -0.22991968945E+03 -0.77355094630E+03  0.14685792359E+02  0.80713059824E+03  0.00000000000E+00 0. -1.
<mgrwt>
<rscale>  0 0.21905651E+04</rscale>
<asrwt>0</asrwt>
<pdfrwt beam="1">  1        2 0.37543442E+00 0.21905651E+04</pdfrwt>
<pdfrwt beam="2">  1       -2 0.75629550E-01 0.21905651E+04</pdfrwt>
<totfact> 0.54041120E+00</totfact>
</mgrwt>
</event>
<event>
 6    1  0.4630212E-004  0.1871974E+04  0.7818608E-02  0.8668934E-01
         -2   -1    0    0    0  501 -0.00000000000E+00  0.00000000000E+00  0.18329885071E+04  0.18329885071E+04  0.00000000000E+00 0. -1.
          2   -1    0    0  501    0  0.00000000000E+00 -0.00000000000E+00 -0.47794721224E+03  0.47794721224E+03  0.00000000000E+00 0.  1.
         23    2    1    2    0    0  0.35775806112E+03  0.42633797048E+03 -0.24668168803E+03  0.61527319121E+03  0.89187158496E+02 0.  0.
         11    1    3    3    0    0  0.16860580558E+03  0.15976535785E+03 -0.64494986855E+02  0.24106532429E+03  0.00000000000E+00 0. -1.
        -11    1    3    3    0    0  0.18915225554E+03  0.26657261263E+03 -0.18218670118E+03  0.37420786692E+03  0.00000000000E+00 0.  1.
         22    1    1    2    0    0 -0.35775806112E+03 -0.42633797048E+03  0.16017229829E+04  0.16956625282E+04  0.00000000000E+00 0. -1.
<mgrwt>
<rscale>  0 0.18719741E+04</rscale>
<asrwt>0</asrwt>
<pdfrwt beam="1">  1        2 0.73530341E-01 0.18719741E+04</pdfrwt>
<pdfrwt beam="2">  1       -2 0.28199823E+00 0.18719741E+04</pdfrwt>
<totfact> 0.24960192E+00</totfact>
</mgrwt>
</event>
<event>
 6    1  0.4630212E-004  0.4548130E+04  0.7818608E-02  0.7902264E-01
          2   -1    0    0  501    0  0.00000000000E+00  0.00000000000E+00  0.22913923878E+04  0.22913923878E+04  0.00000000000E+00 0.  1.
         -2   -1    0    0    0  501 -0.00000000000E+00 -0.00000000000E+00 -0.22568686201E+04  0.22568686201E+04  0.00000000000E+00 0. -1.
         23    2    1    2    0    0  0.74707776511E+03  0.16723348785E+04  0.13635094632E+04  0.22852912529E+04  0.92568468234E+02 0.  0.
         13    1    3    3    0    0  0.28843680336E+03  0.54260758067E+03  0.47179503384E+03  0.77473177945E+03  0.00000000000E+00 0.  1.
        -13    1    3    3    0    0  0.45864096174E+03  0.11297272979E+04  0.89171442938E+03  0.15105594735E+04  0.00000000000E+00 0. -1.
         22    1    1    2    0    0 -0.74707776511E+03 -0.16723348785E+04 -0.13289856955E+04  0.22629697550E+04  0.00000000000E+00 0. -1.
<mgrwt>
<rscale>  0 0.45481300E+04</rscale>
<asrwt>0</asrwt>
<pdfrwt beam="1">  1        2 0.35252190E+00 0.45481300E+04</pdfrwt>
<pdfrwt beam="2">  1       -2 0.34721056E+00 0.45481300E+04</pdfrwt>
<totfact> 0.56063557E-02</totfact>
</mgrwt>
</event>
<event>
 6    1  0.4630212E-004  0.2941602E+04  0.7818608E-02  0.8260606E-01
          2   -1    0    0  501    0  0.00000000000E+00  0.00000000000E+00  0.23102991600E+04  0.23102991600E+04  0.00000000000E+00 0.  1.
         -2   -1    0    0    0  501 -0.00000000000E+00 -0.00000000000E+00 -0.93635282735E+03  0.93635282735E+03  0.00000000000E+00 0. -1.
         23    2    1    2    0    0 -0.45435970899E+03 -0.23185355837E+03  0.22085117585E+04  0.22685424498E+04  0.92530218902E+02 0.  0.
         11    1    3    3    0    0 -0.17850292776E+03 -0.86656219172E+02  0.10635432429E+04  0.10818950158E+04  0.00000000000E+00 0.  1.
        -11    1    3    3    0    0 -0.27585678122E+03 -0.14519733920E+03  0.11449685155E+04  0.11866474340E+04  0.00000000000E+00 0. -1.
         22    1    1    2    0    0  0.45435970899E+03  0.23185355837E+03 -0.83456542578E+03  0.97810953762E+03  0.00000000000E+00 0. -1.
<mgrwt>
<rscale>  0 0.29416017E+04</rscale>
<asrwt>0</asrwt>
<pdfrwt beam="1">  1        2 0.35543064E+00 0.29416017E+04</pdfrwt>
<pdfrwt beam="2">  1       -2 0.14405428E+00 0.29416017E+04</pdfrwt>
<totfact> 0.12823932E+00</totfact>
</mgrwt>
</event>
<event>
 6    1  0.4630212E-004  0.5708222E+04  0.7818608E-02  0.7727670E-01
         -1   -1    0    0    0  501 -0.00000000000E+00  0.00000000000E+00  0.22444750289E+04  0.22444750289E+04  0.00000000000E+00 0. -1.
          1   -1    0    0  501    0  0.00000000000E+00 -0.00000000000E+00 -0.36293340954E+04  0.36293340954E+04  0.00000000000E+00 0.  1.
         23    2    1    2    0    0  0.20780803559E+04  0.45856989026E+02 -0.27040199688E+04  0.34119589431E+04  0.96015667914E+02 0.  0.
         11    1    3    3    0    0  0.92852705566E+03  0.71939331471E+01 -0.12833105523E+04  0.15840139581E+04  0.00000000000E+00 0. -1.
        -11    1    3    3    0    0  0.11495533002E+04  0.38663055879E+02 -0.14207094165E+04  0.18279449850E+04  0.00000000000E+00 0.  1.
         22    1    1    2    0    0 -0.20780803559E+04 -0.45856989026E+02  0.13191609023E+04  0.24618501813E+04  0.00000000000E+00 0. -1.
<mgrwt>
<rscale>  0 0.57082221E+04</rscale>
<asrwt>0</asrwt>
<pdfrwt beam="1">  1        1 0.55835909E+00 0.57082221E+04</pdfrwt>
<pdfrwt beam="2">  1       -1 0.34530385E+00 0.57082221E+04</pdfrwt>
<totfact> 0.22423356E-03</totfact>
</mgrwt>
</event>
<event>
 6    1  0.4630212E-004  0.4864630E+04  0.7818608E-02  0.7849735E-01
          2   -1    0    0  501    0  0.00000000000E+00  0.00000000000E+00  0.22174854970E+04  0.22174854970E+04  0.00000000000E+00 0.  1.
         -2   -1    0    0    0  501 -0.00000000000E+00 -0.00000000000E+00 -0.26679572314E+04  0.26679572314E+04  0.00000000000E+00 0. -1.
         23    2    1    2    0    0 -0.16138015457E+04  0.40431261451E+03  0.15553351392E+04  0.22794716361E+04  0.95390909134E+02 0.  0.
         11    1    3    3    0    0 -0.31893459979E+03  0.86191280667E+02  0.36177232852E+03  0.48992594694E+03  0.00000000000E+00 0.  1.
        -11    1    3    3    0    0 -0.12948669459E+04  0.31812133385E+03  0.11935628107E+04  0.17895456892E+04  0.00000000000E+00 0. -1.
         22    1    1    2    0    0  0.16138015457E+04 -0.40431261451E+03 -0.20058068737E+04  0.26059710922E+04  0.00000000000E+00 0. -1.
<mgrwt>
<rscale>  0 0.48646301E+04</rscale>
<asrwt>0</asrwt>
<pdfrwt beam="1">  1        2 0.34115162E+00 0.48646301E+04</pdfrwt>
<pdfrwt beam="2">  1       -2 0.41045496E+00 0.48646301E+04</pdfrwt>
<totfact> 0.23562904E-02</totfact>
</mgrwt>
</event>
<event>
 6    1  0.4630212E-004  0.4515741E+04  0.7818608E-02  0.7907887E-01
         -2   -1    0    0    0  501 -0.00000000000E+00  0.00000000000E+00  0.17597579054E+04  0.17597579054E+04  0.00000000000E+00 0. -1.
          2   -1    0    0  501    0  0.00000000000E+00 -0.00000000000E+00 -0.28969781673E+04  0.28969781673E+04  0.00000000000E+00 0.  1.
         23    2    1    2    0    0 -0.18376851712E+04 -0.13030790519E+04 -0.42769949494E+03  0.22948466760E+04  0.91063737625E+02 0.  0.
         13    1    3    3    0    0 -0.19143074094E+03 -0.10285334714E+03 -0.41791804940E+02  0.22129413584E+03  0.00000000000E+00 0.  1.
        -13    1    3    3    0    0 -0.16462544302E+04 -0.12002257048E+04 -0.38590769000E+03  0.20735525401E+04  0.00000000000E+00 0. -1.
         22    1    1    2    0    0  0.18376851712E+04  0.13030790519E+04 -0.70952076692E+03  0.23618893968E+04  0.00000000000E+00 0. -1.
<mgrwt>
<rscale>  0 0.45157415E+04</rscale>
<asrwt>0</asrwt>
<pdfrwt beam="1">  1        2 0.44568895E+00 0.45157415E+04</pdfrwt>
<pdfrwt beam="2">  1       -2 0.27073199E+00 0.45157415E+04</pdfrwt>
<totfact> 0.73219280E-02</totfact>
</mgrwt>
</event>
<event>
 6    1  0.4630212E-004  0.1501487E+04  0.7818608E-02  0.8883465E-01
         -2   -1    0    0    0  501 -0.00000000000E+00  0.00000000000E+00  0.84217696202E+03  0.84217696202E+03  0.00000000000E+00 0. -1.
          2   -1    0    0  501    0  0.00000000000E+00 -0.00000000000E+00 -0.66923660938E+03  0.66923660938E+03  0.00000000000E+00 0.  1.
         23    2    1    2    0    0  0.18986640164E+03 -0.58834052490E+03 -0.33688948716E+03  0.71008948637E+03  0.92405240012E+02 0.  0.
         13    1    3    3    0    0  0.10772553374E+03 -0.45132882643E+03 -0.23002893483E+03  0.51789555998E+03  0.00000000000E+00 0.  1.
        -13    1    3    3    0    0  0.82140867899E+02 -0.13701169847E+03 -0.10686055233E+03  0.19219392639E+03  0.00000000000E+00 0. -1.
         22    1    1    2    0    0 -0.18986640164E+03  0.58834052490E+03  0.50982983980E+03  0.80132408504E+03  0.00000000000E+00 0. -1.
<mgrwt>
<rscale>  0 0.15014868E+04</rscale>
<asrwt>0</asrwt>
<pdfrwt beam="1">  1        2 0.10295948E+00 0.15014868E+04</pdfrwt>
<pdfrwt beam="2">  1       -2 0.12956569E+00 0.15014868E+04</pdfrwt>
<totfact> 0.18341347E+01</totfact>
</mgrwt>
</event>
<event>
 6    1  0.4630212E-004  0.2502866E+04  0.7818608E-02  0.8401965E-01
          1   -1    0    0  501    0  0.00000000000E+00  0.00000000000E+00  0.22823798881E+04  0.22823798881E+04  0.00000000000E+00 0.  1.
         -1   -1    0    0    0  501 -0.00000000000E+00 -0.00000000000E+00 -0.68616307682E+03  0.68616307682E+03  0.00000000000E+00 0. -1.
         23    2    1    2    0    0  0.31318059583E+03  0.59575672562E+03  0.20481630624E+04  0.21578250266E+04  0.90712478396E+02 0.  0.
         13    1    3    3    0    0  0.25481878047E+03  0.39822230493E+03  0.14600429056E+04  0.15346787616E+04  0.00000000000E+00 0. -1.
        -13    1    3    3    0    0  0.58361815366E+02  0.19753442069E+03  0.58812015676E+03  0.62314626504E+03  0.00000000000E+00 0.  1.
         22    1    1    2    0    0 -0.31318059583E+03 -0.59575672562E+03 -0.45194625104E+03  0.81071793835E+03  0.00000000000E+00 0. -1.
<mgrwt>
<rscale>  0 0.25028662E+04</rscale>
<asrwt>0</asrwt>
<pdfrwt beam="1">  1        1 0.35113537E+00 0.25028662E+04</pdfrwt>
<pdfrwt beam="2">  1       -1 0.10556355E+00 0.25028662E+04</pdfrwt>
<totfact> 0.14286125E+00</totfact>
</mgrwt>
</event>
<event>
 6    1  0.4630212E-004  0.4088167E+04  0.7818608E-02  0.7986993E-01
          2   -1    0    0  501    0  0.00000000000E+00  0.00000000000E+00  0.14782080146E+04  0.14782080146E+04  0.00000000000E+00 0.  1.
         -2   -1    0    0    0  501 -0.00000000000E+00 -0.00000000000E+00 -0.28265830208E+04  0.28265830208E+04  0.00000000000E+00 0. -1.
         23    2    1    2    0    0  0.11052977077E+04 -0.44963274199E+03  0.10717873700E+04  0.16064510730E+04  0.90023653177E+02 0.  0.
         13    1    3    3    0    0  0.29037940400E+03 -0.77652384644E+02  0.28389345636E+03  0.41345566349E+03  0.00000000000E+00 0.  1.
        -13    1    3    3    0    0  0.81491830367E+03 -0.37198035735E+03  0.78789391364E+03  0.11929954095E+04  0.00000000000E+00 0. -1.
         22    1    1    2    0    0 -0.11052977077E+04  0.44963274199E+03 -0.24201623763E+04  0.26983399624E+04  0.00000000000E+00 0. -1.
<mgrwt>
<rscale>  0 0.40881672E+04</rscale>
<asrwt>0</asrwt>
<pdfrwt beam="1">  1        2 0.22741662E+00 0.40881672E+04</pdfrwt>
<pdfrwt beam="2">  1       -2 0.43485892E+00 0.40881672E+04</pdfrwt>
<totfact> 0.44720455E-02</totfact>
</mgrwt>
</event>
<event>
 6    1  0.4630212E-004  0.1162915E+04  0.7818608E-02  0.9145951E-01
         -2   -1    0    0    0  501 -0.00000000000E+00  0.00000000000E+00  0.61291333008E+03  0.61291333008E+03  0.00000000000E+00 0. -1.
          2   -1    0    0  501    0  0.00000000000E+00 -0.00000000000E+00 -0.55161631941E+03  0.55161631941E+03  0.00000000000E+00 0.  1.
         23    2    1    2    0    0 -0.21962710230E+03 -0.18850266358E+03  0.53406622606E+03  0.61020118253E+03  0.57874269752E+02 0.  0.
         13    1    3    3    0    0 -0.79770301242E+02 -0.76449254277E+02  0.14919919344E+03  0.18565610349E+03  0.00000000000E+00 0. -1.
        -13    1    3    3    0    0 -0.13985680106E+03 -0.11205340931E+03  0.38486703262E+03  0.42454507904E+03  0.00000000000E+00 0.  1.
         22    1    1    2    0    0  0.21962710230E+03  0.18850266358E+03 -0.47276921540E+03  0.55432846695E+03  0.00000000000E+00 0.  1.
<mgrwt>
<rscale>  0 0.11629153E+04</rscale>
<asrwt>0</asrwt>
<pdfrwt beam="1">  1        2 0.84864050E-01 0.11629153E+04</pdfrwt>
<pdfrwt beam="2">  1       -2 0.94294358E-01 0.11629153E+04</pdfrwt>
<totfact> 0.51479376E+01</totfact>
</mgrwt>
</event>
<event>
 6    1  0.4630212E-004  0.2829109E+04  0.7818608E-02  0.8294288E-01
          2   -1    0    0  501    0  0.00000000000E+00  0.00000000000E+00  0.91388612991E+03  0.91388612991E+03  0.00000000000E+00 0.  1.
         -2   -1    0    0    0  501 -0.00000000000E+00 -0.00000000000E+00 -0.21895115545E+04  0.21895115545E+04  0.00000000000E+00 0. -1.
         23    2    1    2    0    0  0.34176257676E+03  0.58526159089E+03 -0.19986428940E+04  0.21123946321E+04  0.91131088720E+02 0.  0.
         11    1    3    3    0    0  0.92279954685E+02  0.16939312826E+03 -0.45022265001E+03  0.48980614177E+03  0.00000000000E+00 0.  1.
        -11    1    3    3    0    0  0.24948262208E+03  0.41586846262E+03 -0.15484202440E+04  0.16225884903E+04  0.00000000000E+00 0. -1.
         22    1    1    2    0    0 -0.34176257676E+03 -0.58526159089E+03  0.72301746941E+03  0.99100305232E+03  0.00000000000E+00 0.  1.
<mgrwt>
<rscale>  0 0.28291089E+04</rscale>
<asrwt>0</asrwt>
<pdfrwt beam="1">  1        2 0.14059787E+00 0.28291089E+04</pdfrwt>
<pdfrwt beam="2">  1       -2 0.33684793E+00 0.28291089E+04</pdfrwt>
<totfact> 0.46868386E-01</totfact>
</mgrwt>
</event>
<event>
 6    1  0.4630212E-004  0.5117316E+04  0.7818608E-02  0.7810661E-01
          2   -1    0    0  501    0  0.00000000000E+00  0.00000000000E+00  0.32640696683E+04  0.32640696683E+04  0.00000000000E+00 0.  1.
         -2   -1    0    0    0  501 -0.00000000000E+00 -0.00000000000E+00 -0.20056960368E+04  0.20056960368E+04  0.00000000000E+00 0. -1.
         23    2    1    2    0    0  0.18367354182E+04 -0.15866782630E+04 -0.20198102722E+03  0.24371378375E+04  0.87747348067E+02 0.  0.
         11    1    3    3    0    0  0.13427268990E+04 -0.12103036717E+04 -0.15372186335E+03  0.18142163361E+04  0.00000000000E+00 0. -1.
        -11    1    3    3    0    0  0.49400851926E+03 -0.37637459130E+03 -0.48259163870E+02  0.62292150146E+03  0.00000000000E+00 0.  1.
         22    1    1    2    0    0 -0.18367354182E+04  0.15866782630E+04  0.14603546587E+04  0.28326278675E+04  0.00000000000E+00 0. -1.
<mgrwt>
<rscale>  0 0.51173163E+04</rscale>
<asrwt>0</asrwt>
<pdfrwt beam="1">  1        2 0.50216456E+00 0.51173163E+04</pdfrwt>
<pdfrwt beam="2">  1       -2 0.30856862E+00 0.51173163E+04</pdfrwt>
<totfact> 0.23876379E-02</totfact>
</mgrwt>
</event>
<event>
 6    1  0.4630212E-004  0.1053659E+04  0.7818608E-02  0.9251575E-01
         -2   -1    0    0    0  501 -0.00000000000E+00  0.00000000000E+00  0.12911125922E+03  0.12911125922E+03  0.00000000000E+00 0. -1.
          2   -1    0    0  501    0  0.00000000000E+00 -0.00000000000E+00 -0.21496899584E+04  0.21496899584E+04  0.00000000000E+00 0.  1.
         23    2    1    2    0    0 -0.15023067167E+03  0.49716281655E+03 -0.11475661417E+04  0.12629808367E+04  0.92045767463E+02 0.  0.
         11    1    3    3    0    0 -0.48392536225E+02  0.30800525576E+03 -0.71421927196E+03  0.77930625788E+03  0.00000000000E+00 0.  1.
        -11    1    3    3    0    0 -0.10183813544E+03  0.18915756079E+03 -0.43334686974E+03  0.48367457877E+03  0.00000000000E+00 0. -1.
         22    1    1    2    0    0  0.15023067167E+03 -0.49716281655E+03 -0.87301255752E+03  0.10158203810E+04  0.00000000000E+00 0. -1.
<mgrwt>
<rscale>  0 0.10536587E+04</rscale>
<asrwt>0</asrwt>
<pdfrwt beam="1">  1        2 0.33072152E+00 0.10536587E+04</pdfrwt>
<pdfrwt beam="2">  1       -2 0.19863271E-01 0.10536587E+04</pdfrwt>
<totfact> 0.11924155E+02</totfact>
</mgrwt>
</event>
<event>
 6    1  0.4630212E-004  0.3705160E+04  0.7818608E-02  0.8066819E-01
          2   -1    0    0  501    0  0.00000000000E+00  0.00000000000E+00  0.25311153231E+04  0.25311153231E+04  0.00000000000E+00 0.  1.
         -2   -1    0    0    0  501 -0.00000000000E+00 -0.00000000000E+00 -0.13559444571E+04  0.13559444571E+04  0.00000000000E+00 0. -1.
         23    2    1    2    0    0 -0.81368589639E+02 -0.16795607060E+04 -0.22506142989E+03  0.16988652059E+04  0.89136570552E+02 0.  0.
         11    1    3    3    0    0 -0.29324764358E+02 -0.91300566547E+03 -0.80015746953E+02  0.91697426722E+03  0.00000000000E+00 0. -1.
        -11    1    3    3    0    0 -0.52043825281E+02 -0.76655504050E+03 -0.14504568293E+03  0.78189093869E+03  0.00000000000E+00 0.  1.
         22    1    1    2    0    0  0.81368589639E+02  0.16795607060E+04  0.14002322958E+04  0.21881945742E+04  0.00000000000E+00 0.  1.
<mgrwt>
<rscale>  0 0.37051595E+04</rscale>
<asrwt>0</asrwt>
<pdfrwt beam="1">  1        2 0.38940236E+00 0.37051595E+04</pdfrwt>
<pdfrwt beam="2">  1       -2 0.20860684E+00 0.37051595E+04</pdfrwt>
<totfact> 0.31539753E-01</totfact>
</mgrwt>
</event>
<event>
 6    1  0.4630212E-004  0.1723287E+04  0.7818608E-02  0.8748194E-01
          2   -1    0    0  501    0  0.00000000000E+00  0.00000000000E+00  0.18769263171E+04  0.18769263171E+04  0.00000000000E+00 0.  1.
         -2   -1    0    0    0  501 -0.00000000000E+00 -0.00000000000E+00 -0.39555581103E+03  0.39555581103E+03  0.00000000000E+00 0. -1.
         23    2    1    2    0    0  0.70138303410E+03 -0.13658696893E+03  0.11377226110E+03  0.72945940625E+03  0.92589077989E+02 0.  0.
         13    1    3    3    0    0  0.64369021855E+03 -0.14705891370E+03  0.90821559594E+02  0.66649229346E+03  0.00000000000E+00 0. -1.
        -13    1    3    3    0    0  0.57692815545E+02  0.10471944763E+02  0.22950701508E+02  0.62967112784E+02  0.00000000000E+00 0.  1.
         22    1    1    2    0    0 -0.70138303410E+03  0.13658696893E+03  0.13675982449E+04  0.15430227218E+04  0.00000000000E+00 0.  1.
<mgrwt>
<rscale>  0 0.17232865E+04</rscale>
<asrwt>0</asrwt>
<pdfrwt beam="1">  1        2 0.28875789E+00 0.17232865E+04</pdfrwt>
<pdfrwt beam="2">  1       -2 0.60854741E-01 0.17232865E+04</pdfrwt>
<totfact> 0.18669451E+01</totfact>
</mgrwt>
</event>
<event>
 6    1  0.4630212E-004  0.1288201E+04  0.7818608E-02  0.9038974E-01
          2   -1    0    0  501    0  0.00000000000E+00  0.00000000000E+00  0.96969741074E+03  0.96969741074E+03  0.00000000000E+00 0.  1.
         -2   -1    0    0    0  501 -0.00000000000E+00 -0.00000000000E+00 -0.42783013123E+03  0.42783013123E+03  0.00000000000E+00 0. -1.
         23    2    1    2    0    0  0.19542485315E+03  0.50024737914E+03 -0.10713902861E+03  0.55512175996E+03  0.90791427816E+02 0.  0.
         11    1    3    3    0    0  0.49709286184E+02  0.25103585852E+03 -0.45342529670E+02  0.25989605690E+03  0.00000000000E+00 0. -1.
        -11    1    3    3    0    0  0.14571556697E+03  0.24921152063E+03 -0.61796498938E+02  0.29522570307E+03  0.00000000000E+00 0.  1.
         22    1    1    2    0    0 -0.19542485315E+03 -0.50024737914E+03  0.64900630812E+03  0.84240578200E+03  0.00000000000E+00 0.  1.
<mgrwt>
<rscale>  0 0.12882015E+04</rscale>
<asrwt>0</asrwt>
<pdfrwt beam="1">  1        2 0.14918422E+00 0.12882015E+04</pdfrwt>
<pdfrwt beam="2">  1       -2 0.65820021E-01 0.12882015E+04</pdfrwt>
<totfact> 0.54947495E+01</totfact>
</mgrwt>
</event>
<event>
 6    1  0.4630212E-004  0.1063289E+04  0.7818608E-02  0.9241731E-01
          2   -1    0    0  501    0  0.00000000000E+00  0.00000000000E+00  0.18285512585E+04  0.18285512585E+04  0.00000000000E+00 0.  1.
         -2   -1    0    0    0  501 -0.00000000000E+00 -0.00000000000E+00 -0.15457363539E+03  0.15457363539E+03  0.00000000000E+00 0. -1.
         23    2    1    2    0    0 -0.21891783867E+03 -0.24466149383E+03  0.16137903827E+04  0.16493483660E+04  0.90809506386E+02 0.  0.
         13    1    3    3    0    0 -0.60935103514E+02 -0.13411665668E+03  0.65479385698E+03  0.67115971242E+03  0.00000000000E+00 0.  1.
        -13    1    3    3    0    0 -0.15798273516E+03 -0.11054483715E+03  0.95899652574E+03  0.97818865359E+03  0.00000000000E+00 0. -1.
         22    1    1    2    0    0  0.21891783867E+03  0.24466149383E+03  0.60187240383E+02  0.33377652787E+03  0.00000000000E+00 0. -1.
<mgrwt>
<rscale>  0 0.10632889E+04</rscale>
<asrwt>0</asrwt>
<pdfrwt beam="1">  1        2 0.28131556E+00 0.10632889E+04</pdfrwt>
<pdfrwt beam="2">  1       -2 0.23780561E-01 0.10632889E+04</pdfrwt>
<totfact> 0.13012639E+02</totfact>
</mgrwt>
</event>
<event>
 6    1  0.4630212E-004  0.1642611E+04  0.7818608E-02  0.8794790E-01
         -2   -1    0    0    0  501 -0.00000000000E+00  0.00000000000E+00  0.50433427691E+03  0.50433427691E+03  0.00000000000E+00 0. -1.
          2   -1    0    0  501    0  0.00000000000E+00 -0.00000000000E+00 -0.13374919384E+04  0.13374919384E+04  0.00000000000E+00 0.  1.
         23    2    1    2    0    0 -0.48421233456E+03 -0.46941893509E+03 -0.93849111237E+03  0.11592495841E+04  0.90985211593E+02 0.  0.
         11    1    3    3    0    0 -0.25069895302E+03 -0.30523326735E+03 -0.53696357546E+03  0.66659372478E+03  0.00000000000E+00 0.  1.
        -11    1    3    3    0    0 -0.23351338154E+03 -0.16418566775E+03 -0.40152753690E+03  0.49265585934E+03  0.00000000000E+00 0. -1.
         22    1    1    2    0    0  0.48421233456E+03  0.46941893509E+03  0.10533345087E+03  0.68257663118E+03  0.00000000000E+00 0. -1.
<mgrwt>
<rscale>  0 0.16426114E+04</rscale>
<asrwt>0</asrwt>
<pdfrwt beam="1">  1        2 0.20576799E+00 0.16426114E+04</pdfrwt>
<pdfrwt beam="2">  1       -2 0.77589890E-01 0.16426114E+04</pdfrwt>
<totfact> 0.22248339E+01</totfact>
</mgrwt>
</event>
<event>
 6    1  0.4630212E-004  0.1063667E+04  0.7818608E-02  0.9241346E-01
         -2   -1    0    0    0  501 -0.00000000000E+00  0.00000000000E+00  0.18625274117E+03  0.18625274117E+03  0.00000000000E+00 0. -1.
          2   -1    0    0  501    0  0.00000000000E+00 -0.00000000000E+00 -0.15186190943E+04  0.15186190943E+04  0.00000000000E+00 0.  1.
         23    2    1    2    0    0 -0.52177838646E+03  0.75577691974E+02 -0.70897096160E+03  0.88842435628E+03  0.93238084169E+02 0.  0.
         11    1    3    3    0    0 -0.41362054481E+03  0.81420868962E+02 -0.61138507647E+03  0.74263249641E+03  0.00000000000E+00 0. -1.
        -11    1    3    3    0    0 -0.10815784166E+03 -0.58431769887E+01 -0.97585885122E+02  0.14579185987E+03  0.00000000000E+00 0.  1.
         22    1    1    2    0    0  0.52177838646E+03 -0.75577691974E+02 -0.62339539155E+03  0.81644747921E+03  0.00000000000E+00 0.  1.
<mgrwt>
<rscale>  0 0.10636672E+04</rscale>
<asrwt>0</asrwt>
<pdfrwt beam="1">  1        2 0.23363371E+00 0.10636672E+04</pdfrwt>
<pdfrwt beam="2">  1       -2 0.28654268E-01 0.10636672E+04</pdfrwt>
<totfact> 0.13758188E+02</totfact>
</mgrwt>
</event>
<event>
 6    1  0.4630212E-004  0.3688108E+04  0.7818608E-02  0.8070602E-01
         -2   -1    0    0    0  501 -0.00000000000E+00  0.00000000000E+00  0.12678509391E+04  0.12678509391E+04  0.00000000000E+00 0. -1.
          2   -1    0    0  501    0  0.00000000000E+00 -0.00000000000E+00 -0.26821248969E+04  0.26821248969E+04  0.00000000000E+00 0.  1.
         23    2    1    2    0    0  0.15021546347E+03 -0.54424546666E+03 -0.25865316766E+04  0.26488394202E+04  0.86234254368E+02 0.  0.
         13    1    3    3    0    0  0.10195286742E+03 -0.26340025494E+03 -0.14388731380E+04  0.14663321550E+04  0.00000000000E+00 0. -1.
        -13    1    3    3    0    0  0.48262596054E+02 -0.28084521172E+03 -0.11476585385E+04  0.11825072652E+04  0.00000000000E+00 0.  1.
         22    1    1    2    0    0 -0.15021546347E+03  0.54424546666E+03  0.11722577187E+04  0.13011364158E+04  0.00000000000E+00 0. -1.
<mgrwt>
<rscale>  0 0.36881077E+04</rscale>
<asrwt>0</asrwt>
<pdfrwt beam="1">  1        2 0.41263459E+00 0.36881077E+04</pdfrwt>
<pdfrwt beam="2">  1       -2 0.19505399E+00 0.36881077E+04</pdfrwt>
<totfact> 0.31571015E-01</totfact>
</mgrwt>
</event>
<event>
 6    1  0.4630212E-004  0.5341980E+04  0.7818608E-02  0.7777815E-01
         -2   -1    0    0    0  501 -0.00000000000E+00  0.00000000000E+00  0.41458566923E+04  0.41458566923E+04  0.00000000000E+00 0. -1.
          2   -1    0    0  501    0  0.00000000000E+00 -0.00000000000E+00 -0.17207995137E+04  0.17207995137E+04  0.00000000000E+00 0.  1.
         23    2    1    2    0    0 -0.11866812470E+04  0.77516076821E+03  0.36980213385E+04  0.39615251473E+04  0.96088886308E+02 0.  0.
         11    1    3    3    0    0 -0.88993538691E+03  0.54352658033E+03  0.26366046236E+04  0.28353289187E+04  0.00000000000E+00 0. -1.
        -11    1    3    3    0    0 -0.29674586007E+03  0.23163418788E+03  0.10614167149E+04  0.11261962285E+04  0.00000000000E+00 0.  1.
         22    1    1    2    0    0  0.11866812470E+04 -0.77516076821E+03 -0.12729641599E+04  0.19051310587E+04  0.00000000000E+00 0.  1.
<mgrwt>
<rscale>  0 0.53419802E+04</rscale>
<asrwt>0</asrwt>
<pdfrwt beam="1">  1        2 0.26473839E+00 0.53419802E+04</pdfrwt>
<pdfrwt beam="2">  1       -2 0.63782410E+00 0.53419802E+04</pdfrwt>
<totfact> 0.25355008E-03</totfact>
</mgrwt>
</event>
<event>
 6    1  0.4630212E-004  0.1853556E+04  0.7818608E-02  0.8678326E-01
         -2   -1    0    0    0  501 -0.00000000000E+00  0.00000000000E+00  0.89594974154E+03  0.89594974154E+03  0.00000000000E+00 0. -1.
          2   -1    0    0  501    0  0.00000000000E+00 -0.00000000000E+00 -0.95866715846E+03  0.95866715846E+03  0.00000000000E+00 0.  1.
         23    2    1    2    0    0  0.17391707853E+03 -0.51845708402E+03 -0.77727144026E+03  0.95482117292E+03  0.92128617935E+02 0.  0.
         13    1    3    3    0    0  0.76460157760E+02 -0.10631688544E+03 -0.19112797870E+03  0.23168802320E+03  0.00000000000E+00 0. -1.
        -13    1    3    3    0    0  0.97456920768E+02 -0.41214019858E+03 -0.58614346156E+03  0.72313314972E+03  0.00000000000E+00 0.  1.
         22    1    1    2    0    0 -0.17391707853E+03  0.51845708402E+03  0.71455402334E+03  0.89979572707E+03  0.00000000000E+00 0. -1.
<mgrwt>
<rscale>  0 0.18535561E+04</rscale>
<asrwt>0</asrwt>
<pdfrwt beam="1">  1        2 0.14748726E+00 0.18535561E+04</pdfrwt>
<pdfrwt beam="2">  1       -2 0.13783842E+00 0.18535561E+04</pdfrwt>
<totfact> 0.94189390E+00</totfact>
</mgrwt>
</event>
<event>
 6    1  0.4630212E-004  0.1103131E+04  0.7818608E-02  0.9202145E-01
          2   -1    0    0  501    0  0.00000000000E+00  0.00000000000E+00  0.96709019074E+03  0.96709019074E+03  0.00000000000E+00 0.  1.
         -2   -1    0    0    0  501 -0.00000000000E+00 -0.00000000000E+00 -0.31457726740E+03  0.31457726740E+03  0.00000000000E+00 0. -1.
         23    2    1    2    0    0 -0.10492499604E+02  0.42558470048E+03 -0.70883545221E+02  0.44230169726E+03  0.96818823515E+02 0.  0.
         13    1    3    3    0    0 -0.40538101208E+02  0.32831630933E+03 -0.28522494831E+02  0.33203684936E+03  0.00000000000E+00 0. -1.
        -13    1    3    3    0    0  0.30045601604E+02  0.97268391149E+02 -0.42361050390E+02  0.11026484790E+03  0.00000000000E+00 0.  1.
         22    1    1    2    0    0  0.10492499604E+02 -0.42558470048E+03  0.72339646856E+03  0.83936576089E+03  0.00000000000E+00 0.  1.
<mgrwt>
<rscale>  0 0.11031312E+04</rscale>
<asrwt>0</asrwt>
<pdfrwt beam="1">  1        2 0.14878311E+00 0.11031312E+04</pdfrwt>
<pdfrwt beam="2">  1       -2 0.48396503E-01 0.11031312E+04</pdfrwt>
<totfact> 0.10618457E+02</totfact>
</mgrwt>
</event>
<event>
 6    1  0.4630212E-004  0.2733969E+04  0.7818608E-02  0.8324067E-01
          3   -1    0    0  501    0  0.00000000000E+00  0.00000000000E+00  0.12839153244E+04  0.12839153244E+04  0.00000000000E+00 0.  1.
         -3   -1    0    0    0  501 -0.00000000000E+00 -0.00000000000E+00 -0.14554283598E+04  0.14554283598E+04  0.00000000000E+00 0. -1.
         23    2    1    2    0    0 -0.38558282651E+03 -0.43481464806E+03  0.11521712214E+04  0.12937026824E+04  0.91816190347E+02 0.  0.
         11    1    3    3    0    0 -0.28266848689E+03 -0.36643800359E+03  0.86348394961E+03  0.97968505918E+03  0.00000000000E+00 0. -1.
        -11    1    3    3    0    0 -0.10291433962E+03 -0.68376644471E+02  0.28868727179E+03  0.31401762324E+03  0.00000000000E+00 0.  1.
         22    1    1    2    0    0  0.38558282651E+03  0.43481464806E+03 -0.13236842568E+04  0.14456410017E+04  0.00000000000E+00 0. -1.
<mgrwt>
<rscale>  0 0.27339691E+04</rscale>
<asrwt>0</asrwt>
<pdfrwt beam="1">  1        3 0.19752543E+00 0.27339691E+04</pdfrwt>
<pdfrwt beam="2">  1       -3 0.22391206E+00 0.27339691E+04</pdfrwt>
<totfact> 0.36202258E-02</totfact>
</mgrwt>
</event>
<event>
 6    1  0.4630212E-004  0.5070589E+04  0.7818608E-02  0.7817709E-01
         -2   -1    0    0    0  501 -0.00000000000E+00  0.00000000000E+00  0.36325302201E+04  0.36325302201E+04  0.00000000000E+00 0. -1.
          2   -1    0    0  501    0  0.00000000000E+00 -0.00000000000E+00 -0.17694882186E+04  0.17694882186E+04  0.00000000000E+00 0.  1.
         23    2    1    2    0    0  0.11887496333E+04 -0.70661491009E+03  0.31946529926E+04  0.34822220554E+04  0.87363482296E+02 0.  0.
         13    1    3    3    0    0  0.66403378561E+03 -0.39209282384E+03  0.16718045649E+04  0.18410888502E+04  0.00000000000E+00 0. -1.
        -13    1    3    3    0    0  0.52471584764E+03 -0.31452208625E+03  0.15228484277E+04  0.16411332052E+04  0.00000000000E+00 0.  1.
         22    1    1    2    0    0 -0.11887496333E+04  0.70661491009E+03 -0.13316109912E+04  0.19197963833E+04  0.00000000000E+00 0.  1.
<mgrwt>
<rscale>  0 0.50705895E+04</rscale>
<asrwt>0</asrwt>
<pdfrwt beam="1">  1        2 0.27222896E+00 0.50705895E+04</pdfrwt>
<pdfrwt beam="2">  1       -2 0.55885080E+00 0.50705895E+04</pdfrwt>
<totfact> 0.50602387E-03</totfact>
</mgrwt>
</event>
<event>
 6    1  0.4630212E-004  0.1618964E+04  0.7818608E-02  0.8808981E-01
         -2   -1    0    0    0  501 -0.00000000000E+00  0.00000000000E+00  0.14757581103E+03  0.14757581103E+03  0.00000000000E+00 0. -1.
          2   -1    0    0  501    0  0.00000000000E+00 -0.00000000000E+00 -0.44401680364E+04  0.44401680364E+04  0.00000000000E+00 0.  1.
         23    2    1    2    0    0  0.25947329627E+03 -0.48906497889E+03 -0.38165825543E+04  0.38576095091E+04  0.91311478194E+02 0.  0.
         11    1    3    3    0    0  0.22200843842E+03 -0.41351451747E+03 -0.34280773742E+04  0.34600572952E+04  0.00000000000E+00 0. -1.
        -11    1    3    3    0    0  0.37464857848E+02 -0.75550461423E+02 -0.38850518006E+03  0.39755221384E+03  0.00000000000E+00 0.  1.
         22    1    1    2    0    0 -0.25947329627E+03  0.48906497889E+03 -0.47600967115E+03  0.73013433838E+03  0.00000000000E+00 0. -1.
<mgrwt>
<rscale>  0 0.16189644E+04</rscale>
<asrwt>0</asrwt>
<pdfrwt beam="1">  1        2 0.68310278E+00 0.16189644E+04</pdfrwt>
<pdfrwt beam="2">  1       -2 0.22703971E-01 0.16189644E+04</pdfrwt>
<totfact> 0.23643579E+00</totfact>
</mgrwt>
</event>
<event>
 6    1  0.4630212E-004  0.3038321E+04  0.7818608E-02  0.8232872E-01
          2   -1    0    0  501    0  0.00000000000E+00  0.00000000000E+00  0.25997010752E+04  0.25997010752E+04  0.00000000000E+00 0.  1.
         -2   -1    0    0    0  501 -0.00000000000E+00 -0.00000000000E+00 -0.88773630479E+03  0.88773630479E+03  0.00000000000E+00 0. -1.
         23    2    1    2    0    0  0.66102634156E+03 -0.11881911619E+04  0.16310817142E+04  0.21253448243E+04  0.88932571223E+02 0.  0.
         11    1    3    3    0    0  0.54857817248E+03 -0.95766127019E+03  0.13715318802E+04  0.17604410862E+04  0.00000000000E+00 0.  1.
        -11    1    3    3    0    0  0.11244816908E+03 -0.23052989169E+03  0.25954983407E+03  0.36490373807E+03  0.00000000000E+00 0. -1.
         22    1    1    2    0    0 -0.66102634156E+03  0.11881911619E+04  0.80883056132E+02  0.13620925557E+04  0.00000000000E+00 0.  1.
<mgrwt>
<rscale>  0 0.30383213E+04</rscale>
<asrwt>0</asrwt>
<pdfrwt beam="1">  1        2 0.39995401E+00 0.30383213E+04</pdfrwt>
<pdfrwt beam="2">  1       -2 0.13657482E+00 0.30383213E+04</pdfrwt>
<totfact> 0.99463436E-01</totfact>
</mgrwt>
</event>
<event>
 6    1  0.4630212E-004  0.1986960E+04  0.7818608E-02  0.8612742E-01
         -2   -1    0    0    0  501 -0.00000000000E+00  0.00000000000E+00  0.39709027125E+03  0.39709027125E+03  0.00000000000E+00 0. -1.
          2   -1    0    0  501    0  0.00000000000E+00 -0.00000000000E+00 -0.24855865371E+04  0.24855865371E+04  0.00000000000E+00 0.  1.
         23    2    1    2    0    0 -0.88443753170E+03  0.32502516961E+02 -0.16945769145E+04  0.19139360709E+04  0.90962646498E+02 0.  0.
         11    1    3    3    0    0 -0.54374987956E+03  0.50091440481E+02 -0.97207724372E+03  0.11149471968E+04  0.00000000000E+00 0. -1.
        -11    1    3    3    0    0 -0.34068765214E+03 -0.17588923520E+02 -0.72249967082E+03  0.79898887407E+03  0.00000000000E+00 0.  1.
         22    1    1    2    0    0  0.88443753170E+03 -0.32502516961E+02 -0.39391935131E+03  0.96874073747E+03  0.00000000000E+00 0. -1.
<mgrwt>
<rscale>  0 0.19869597E+04</rscale>
<asrwt>0</asrwt>
<pdfrwt beam="1">  1        2 0.38239794E+00 0.19869597E+04</pdfrwt>
<pdfrwt beam="2">  1       -2 0.61090810E-01 0.19869597E+04</pdfrwt>
<totfact> 0.82320311E+00</totfact>
</mgrwt>
</event>
<event>
 6    1  0.4630212E-004  0.3482364E+04  0.7818608E-02  0.8117982E-01
         -2   -1    0    0    0  501 -0.00000000000E+00  0.00000000000E+00  0.62620883475E+03  0.62620883475E+03  0.00000000000E+00 0. -1.
          2   -1    0    0  501    0  0.00000000000E+00 -0.00000000000E+00 -0.48413809489E+04  0.48413809489E+04  0.00000000000E+00 0.  1.
         23    2    1    2    0    0 -0.83168855908E+03 -0.13723891853E+04 -0.31652380878E+04  0.35499038357E+04  0.89034571279E+02 0.  0.
         11    1    3    3    0    0 -0.15593691640E+03 -0.26745492455E+03 -0.53675675009E+03  0.61964204774E+03  0.00000000000E+00 0.  1.
        -11    1    3    3    0    0 -0.67575164268E+03 -0.11049342608E+04 -0.26284813377E+04  0.29302617879E+04  0.00000000000E+00 0. -1.
         22    1    1    2    0    0  0.83168855908E+03  0.13723891853E+04 -0.10499340264E+04  0.19176859480E+04  0.00000000000E+00 0. -1.
<mgrwt>
<rscale>  0 0.34823644E+04</rscale>
<asrwt>0</asrwt>
<pdfrwt beam="1">  1        2 0.74482786E+00 0.34823644E+04</pdfrwt>
<pdfrwt beam="2">  1       -2 0.96339818E-01 0.34823644E+04</pdfrwt>
<totfact> 0.39366653E-02</totfact>
</mgrwt>
</event>
<event>
 6    1  0.4630212E-004  0.1935121E+04  0.7818608E-02  0.8637569E-01
         -1   -1    0    0    0  501 -0.00000000000E+00  0.00000000000E+00  0.55232427311E+03  0.55232427311E+03  0.00000000000E+00 0. -1.
          1   -1    0    0  501    0  0.00000000000E+00 -0.00000000000E+00 -0.16949702593E+04  0.16949702593E+04  0.00000000000E+00 0.  1.
         23    2    1    2    0    0 -0.36936449890E+03  0.80497368485E+01 -0.16083694767E+04  0.16528256089E+04  0.92115083825E+02 0.  0.
         11    1    3    3    0    0 -0.16304020471E+03  0.17747166564E+02 -0.90560646358E+03  0.92033696934E+03  0.00000000000E+00 0. -1.
        -11    1    3    3    0    0 -0.20632429419E+03 -0.96974297156E+01 -0.70276301312E+03  0.73248863959E+03  0.00000000000E+00 0.  1.
         22    1    1    2    0    0  0.36936449890E+03 -0.80497368485E+01  0.46572349053E+03  0.59446892345E+03  0.00000000000E+00 0. -1.
<mgrwt>
<rscale>  0 0.19351209E+04</rscale>
<asrwt>0</asrwt>
<pdfrwt beam="1">  1        1 0.26076465E+00 0.19351209E+04</pdfrwt>
<pdfrwt beam="2">  1       -1 0.84972966E-01 0.19351209E+04</pdfrwt>
<totfact> 0.61387077E+00</totfact>
</mgrwt>
</event>
<event>
 6    1  0.4630212E-004  0.4198161E+04  0.7818608E-02  0.7965722E-01
          2   -1    0    0  501    0  0.00000000000E+00  0.00000000000E+00  0.41313324014E+04  0.41313324014E+04  0.00000000000E+00 0.  1.
         -2   -1    0    0    0  501 -0.00000000000E+00 -0.00000000000E+00 -0.10665178955E+04  0.10665178955E+04  0.00000000000E+00 0. -1.
         23    2    1    2    0    0  0.18209350365E+04 -0.10318500419E+04  0.17201252659E+04  0.27101388852E+04  0.74181738635E+02 0.  0.
         13    1    3    3    0    0  0.33573906671E+03 -0.19121640363E+03  0.35546815289E+03  0.52501622989E+03  0.00000000000E+00 0.  1.
        -13    1    3    3    0    0  0.14851959698E+04 -0.84063363826E+03  0.13646571130E+04  0.21851226553E+04  0.00000000000E+00 0. -1.
         22    1    1    2    0    0 -0.18209350365E+04  0.10318500419E+04  0.13446892399E+04  0.24877114117E+04  0.00000000000E+00 0.  1.
<mgrwt>
<rscale>  0 0.41981615E+04</rscale>
<asrwt>0</asrwt>
<pdfrwt beam="1">  1        2 0.63558959E+00 0.41981615E+04</pdfrwt>
<pdfrwt beam="2">  1       -2 0.16407968E+00 0.41981615E+04</pdfrwt>
<totfact> 0.48382135E-02</totfact>
</mgrwt>
</event>
<event>
 6    1  0.4630212E-004  0.2755977E+04  0.7818608E-02  0.8317068E-01
          2   -1    0    0  501    0  0.00000000000E+00  0.00000000000E+00  0.25231308026E+04  0.25231308026E+04  0.00000000000E+00 0.  1.
         -2   -1    0    0    0  501 -0.00000000000E+00 -0.00000000000E+00 -0.75257761085E+03  0.75257761085E+03  0.00000000000E+00 0. -1.
         23    2    1    2    0    0 -0.11644939801E+04 -0.65160088833E+03  0.12877866481E+04  0.18566617324E+04  0.90379146736E+02 0.  0.
         13    1    3    3    0    0 -0.73826016473E+03 -0.44948789525E+03  0.87335219606E+03  0.12287438696E+04  0.00000000000E+00 0.  1.
        -13    1    3    3    0    0 -0.42623381539E+03 -0.20211299308E+03  0.41443445202E+03  0.62791786276E+03  0.00000000000E+00 0. -1.
         22    1    1    2    0    0  0.11644939801E+04  0.65160088833E+03  0.48276654371E+03  0.14190466811E+04  0.00000000000E+00 0.  1.
<mgrwt>
<rscale>  0 0.27559766E+04</rscale>
<asrwt>0</asrwt>
<pdfrwt beam="1">  1        2 0.38817397E+00 0.27559766E+04</pdfrwt>
<pdfrwt beam="2">  1       -2 0.11578117E+00 0.27559766E+04</pdfrwt>
<totfact> 0.17089859E+00</totfact>
</mgrwt>
</event>
<event>
 6    1  0.4630212E-004  0.4035957E+04  0.7818608E-02  0.7997332E-01
         -2   -1    0    0    0  501 -0.00000000000E+00  0.00000000000E+00  0.11882005720E+04  0.11882005720E+04  0.00000000000E+00 0.  1.
          2   -1    0    0  501    0  0.00000000000E+00 -0.00000000000E+00 -0.34272312631E+04  0.34272312631E+04  0.00000000000E+00 0. -1.
         23    2    1    2    0    0  0.40253699192E+03 -0.42377020587E+02 -0.33797101080E+04  0.34050676858E+04  0.90629403489E+02 0.  0.
         11    1    3    3    0    0  0.80302913059E+02  0.17529009835E+02 -0.90996603224E+03  0.91367062111E+03  0.00000000000E+00 0. -1.
        -11    1    3    3    0    0  0.32223407886E+03 -0.59906030422E+02 -0.24697440758E+04  0.24913970647E+04  0.00000000000E+00 0.  1.
         22    1    1    2    0    0 -0.40253699192E+03  0.42377020587E+02  0.11406794169E+04  0.12103641493E+04  0.00000000000E+00 0.  1.
<mgrwt>
<rscale>  0 0.40359575E+04</rscale>
<asrwt>0</asrwt>
<pdfrwt beam="1">  1        2 0.52726635E+00 0.40359575E+04</pdfrwt>
<pdfrwt beam="2">  1       -2 0.18280009E+00 0.40359575E+04</pdfrwt>
<totfact> 0.12440533E-01</totfact>
</mgrwt>
</event>
<event>
 6    1  0.4630212E-004  0.6803056E+03  0.7818608E-02  0.9751518E-01
         -2   -1    0    0    0  501 -0.00000000000E+00  0.00000000000E+00  0.10123089996E+03  0.10123089996E+03  0.00000000000E+00 0. -1.
          2   -1    0    0  501    0  0.00000000000E+00 -0.00000000000E+00 -0.11429706030E+04  0.11429706030E+04  0.00000000000E+00 0.  1.
         23    2    1    2    0    0  0.20778034362E+03 -0.17572719634E+03 -0.17633752698E+03  0.33702255421E+03  0.91850747957E+02 0.  0.
         11    1    3    3    0    0  0.12351693288E+03 -0.71773569908E+02 -0.13604622315E+03  0.19727253453E+03  0.00000000000E+00 0. -1.
        -11    1    3    3    0    0  0.84263410736E+02 -0.10395362643E+03 -0.40291303824E+02  0.13975001968E+03  0.00000000000E+00 0.  1.
         22    1    1    2    0    0 -0.20778034362E+03  0.17572719634E+03 -0.86540217608E+03  0.90717894877E+03  0.00000000000E+00 0.  1.
<mgrwt>
<rscale>  0 0.68030565E+03</rscale>
<asrwt>0</asrwt>
<pdfrwt beam="1">  1        2 0.17584162E+00 0.68030565E+03</pdfrwt>
<pdfrwt beam="2">  1       -2 0.15573986E-01 0.68030565E+03</pdfrwt>
<totfact> 0.68015298E+02</totfact>
</mgrwt>
</event>
<event>
 6    1  0.4630212E-004  0.3250134E+04  0.7818608E-02  0.8175701E-01
          2   -1    0    0  501    0  0.00000000000E+00  0.00000000000E+00  0.87967267232E+03  0.87967267232E+03  0.00000000000E+00 0.  1.
         -2   -1    0    0    0  501 -0.00000000000E+00 -0.00000000000E+00 -0.30020743535E+04  0.30020743535E+04  0.00000000000E+00 0. -1.
         23    2    1    2    0    0 -0.16087072324E+04  0.18340431419E+03 -0.12086692746E+04  0.20225851144E+04  0.91613468612E+02 0.  0.
         11    1    3    3    0    0 -0.81650014393E+03  0.91488750453E+02 -0.67038575760E+03  0.10604054604E+04  0.00000000000E+00 0.  1.
        -11    1    3    3    0    0 -0.79220708846E+03  0.91915563737E+02 -0.53828351703E+03  0.96217965400E+03  0.00000000000E+00 0. -1.
         22    1    1    2    0    0  0.16087072324E+04 -0.18340431419E+03 -0.91373240654E+03  0.18591619114E+04  0.00000000000E+00 0.  1.
<mgrwt>
<rscale>  0 0.32501340E+04</rscale>
<asrwt>0</asrwt>
<pdfrwt beam="1">  1        2 0.13533426E+00 0.32501340E+04</pdfrwt>
<pdfrwt beam="2">  1       -2 0.46185760E+00 0.32501340E+04</pdfrwt>
<totfact> 0.73477866E-02</totfact>
</mgrwt>
</event>
<event>
 6    1  0.4630212E-004  0.5263757E+04  0.7818608E-02  0.7789060E-01
         -2   -1    0    0    0  501 -0.00000000000E+00  0.00000000000E+00  0.18456963594E+04  0.18456963594E+04  0.00000000000E+00 0. -1.
          2   -1    0    0  501    0  0.00000000000E+00 -0.00000000000E+00 -0.37529375849E+04  0.37529375849E+04  0.00000000000E+00 0.  1.
         23    2    1    2    0    0  0.18028228811E+04 -0.30520003410E+03  0.10579311896E+04  0.21150201809E+04  0.10380058998E+03 0.  0.
         13    1    3    3    0    0  0.19599524047E+03 -0.10668832518E+02  0.14099709956E+03  0.24167776141E+03  0.00000000000E+00 0.  1.
        -13    1    3    3    0    0  0.16068276406E+04 -0.29453120158E+03  0.91693409007E+03  0.18733424195E+04  0.00000000000E+00 0. -1.
         22    1    1    2    0    0 -0.18028228811E+04  0.30520003410E+03 -0.29651724150E+04  0.34836137634E+04  0.00000000000E+00 0.  1.
<mgrwt>
<rscale>  0 0.52637565E+04</rscale>
<asrwt>0</asrwt>
<pdfrwt beam="1">  1        2 0.57737500E+00 0.52637565E+04</pdfrwt>
<pdfrwt beam="2">  1       -2 0.28395329E+00 0.52637565E+04</pdfrwt>
<totfact> 0.15090603E-02</totfact>
</mgrwt>
</event>
<event>
 6    1  0.4630212E-004  0.1260248E+04  0.7818608E-02  0.9061697E-01
          2   -1    0    0  501    0  0.00000000000E+00  0.00000000000E+00  0.52639233895E+03  0.52639233895E+03  0.00000000000E+00 0.  1.
         -2   -1    0    0    0  501 -0.00000000000E+00 -0.00000000000E+00 -0.75429700697E+03  0.75429700697E+03  0.00000000000E+00 0. -1.
         23    2    1    2    0    0  0.47076313112E+03 -0.31517688999E+03 -0.38721852431E+03  0.69218675255E+03  0.90718891293E+02 0.  0.
         11    1    3    3    0    0  0.43616305538E+03 -0.26102918876E+03 -0.32908229383E+03  0.60553249655E+03  0.00000000000E+00 0. -1.
        -11    1    3    3    0    0  0.34600075738E+02 -0.54147701224E+02 -0.58136230481E+02  0.86654256003E+02  0.00000000000E+00 0.  1.
         22    1    1    2    0    0 -0.47076313112E+03  0.31517688999E+03  0.15931385629E+03  0.58850259338E+03  0.00000000000E+00 0.  1.
<mgrwt>
<rscale>  0 0.12602479E+04</rscale>
<asrwt>0</asrwt>
<pdfrwt beam="1">  1        2 0.80983437E-01 0.12602479E+04</pdfrwt>
<pdfrwt beam="2">  1       -2 0.11604569E+00 0.12602479E+04</pdfrwt>
<totfact> 0.32859902E+01</totfact>
</mgrwt>
</event>
<event>
 6    1  0.4630212E-004  0.1185990E+04  0.7818608E-02  0.9125209E-01
          2   -1    0    0  501    0  0.00000000000E+00  0.00000000000E+00  0.90954105207E+03  0.90954105207E+03  0.00000000000E+00 0.  1.
         -2   -1    0    0    0  501 -0.00000000000E+00 -0.00000000000E+00 -0.38661588067E+03  0.38661588067E+03  0.00000000000E+00 0. -1.
         23    2    1    2    0    0 -0.48648360053E+03 -0.23387214547E+03  0.44400511633E+01  0.54769898875E+03  0.92693010586E+02 0.  0.
         11    1    3    3    0    0 -0.38789302906E+03 -0.17091617253E+03 -0.32248026620E+02  0.42510384055E+03  0.00000000000E+00 0.  1.
        -11    1    3    3    0    0 -0.98590571471E+02 -0.62955972946E+02  0.36688077783E+02  0.12259514821E+03  0.00000000000E+00 0. -1.
         22    1    1    2    0    0  0.48648360053E+03  0.23387214547E+03  0.51848512024E+03  0.74845794399E+03  0.00000000000E+00 0.  1.
<mgrwt>
<rscale>  0 0.11859899E+04</rscale>
<asrwt>0</asrwt>
<pdfrwt beam="1">  1        2 0.13992939E+00 0.11859899E+04</pdfrwt>
<pdfrwt beam="2">  1       -2 0.59479366E-01 0.11859899E+04</pdfrwt>
<totfact> 0.75285981E+01</totfact>
</mgrwt>
</event>
<event>
 6    1  0.4630212E-004  0.1473493E+04  0.7818608E-02  0.8902274E-01
         -2   -1    0    0    0  501 -0.00000000000E+00  0.00000000000E+00  0.82520321839E+03  0.82520321839E+03  0.00000000000E+00 0. -1.
          2   -1    0    0  501    0  0.00000000000E+00 -0.00000000000E+00 -0.65777156326E+03  0.65777156326E+03  0.00000000000E+00 0.  1.
         23    2    1    2    0    0  0.54876238630E+03  0.19343575592E+03 -0.36589790023E+03  0.69367258165E+03  0.93503095394E+02 0.  0.
         13    1    3    3    0    0  0.26862137875E+03  0.50258529470E+02 -0.14605808996E+03  0.30986501988E+03  0.00000000000E+00 0. -1.
        -13    1    3    3    0    0  0.28014100756E+03  0.14317722645E+03 -0.21983981027E+03  0.38380756177E+03  0.00000000000E+00 0.  1.
         22    1    1    2    0    0 -0.54876238630E+03 -0.19343575592E+03  0.53332955536E+03  0.78930219999E+03  0.00000000000E+00 0. -1.
<mgrwt>
<rscale>  0 0.14734927E+04</rscale>
<asrwt>0</asrwt>
<pdfrwt beam="1">  1        2 0.10119563E+00 0.14734927E+04</pdfrwt>
<pdfrwt beam="2">  1       -2 0.12695434E+00 0.14734927E+04</pdfrwt>
<totfact> 0.19772088E+01</totfact>
</mgrwt>
</event>
<event>
 6    1  0.4630212E-004  0.3675795E+04  0.7818608E-02  0.8073347E-01
          1   -1    0    0  501    0  0.00000000000E+00  0.00000000000E+00  0.77873783380E+03  0.77873783380E+03  0.00000000000E+00 0.  1.
         -1   -1    0    0    0  501 -0.00000000000E+00 -0.00000000000E+00 -0.43376177484E+04  0.43376177484E+04  0.00000000000E+00 0. -1.
         23    2    1    2    0    0  0.95487151806E+03  0.96513983643E+03 -0.58777883399E+02  0.13621594301E+04  0.93535840816E+02 0.  0.
         11    1    3    3    0    0  0.13094193866E+03  0.18151184974E+03 -0.11100619492E+02  0.22408830101E+03  0.00000000000E+00 0. -1.
        -11    1    3    3    0    0  0.82392957940E+03  0.78362798669E+03 -0.47677263907E+02  0.11380711291E+04  0.00000000000E+00 0.  1.
         22    1    1    2    0    0 -0.95487151806E+03 -0.96513983643E+03 -0.35001020312E+04  0.37541961522E+04  0.00000000000E+00 0. -1.
<mgrwt>
<rscale>  0 0.36757949E+04</rscale>
<asrwt>0</asrwt>
<pdfrwt beam="1">  1        1 0.11980582E+00 0.36757949E+04</pdfrwt>
<pdfrwt beam="2">  1       -1 0.66732579E+00 0.36757949E+04</pdfrwt>
<totfact> 0.47558742E-03</totfact>
</mgrwt>
</event>
<event>
 6    1  0.4630212E-004  0.1257967E+04  0.7818608E-02  0.9063578E-01
         -2   -1    0    0    0  501 -0.00000000000E+00  0.00000000000E+00  0.16606059182E+03  0.16606059182E+03  0.00000000000E+00 0. -1.
          2   -1    0    0  501    0  0.00000000000E+00 -0.00000000000E+00 -0.23823843394E+04  0.23823843394E+04  0.00000000000E+00 0.  1.
         23    2    1    2    0    0 -0.17743582247E+03 -0.34113159763E+03 -0.11398041839E+03  0.41122671312E+03  0.90893541055E+02 0.  0.
         13    1    3    3    0    0 -0.19255881159E+02 -0.83703584477E+02  0.60787595399E+01  0.86104763696E+02  0.00000000000E+00 0.  1.
        -13    1    3    3    0    0 -0.15817994131E+03 -0.25742801315E+03 -0.12005917793E+03  0.32512194942E+03  0.00000000000E+00 0. -1.
         22    1    1    2    0    0  0.17743582247E+03  0.34113159763E+03 -0.21023433292E+04  0.21372182181E+04  0.00000000000E+00 0.  1.
<mgrwt>
<rscale>  0 0.12579669E+04</rscale>
<asrwt>0</asrwt>
<pdfrwt beam="1">  1        2 0.36652063E+00 0.12579669E+04</pdfrwt>
<pdfrwt beam="2">  1       -2 0.25547786E-01 0.12579669E+04</pdfrwt>
<totfact> 0.55387755E+01</totfact>
</mgrwt>
</event>
<event>
 6    1  0.4630212E-004  0.2744775E+04  0.7818608E-02  0.8320622E-01
         -2   -1    0    0    0  501 -0.00000000000E+00  0.00000000000E+00  0.20382963221E+04  0.20382963221E+04  0.00000000000E+00 0.  1.
          2   -1    0    0  501    0  0.00000000000E+00 -0.00000000000E+00 -0.92403014822E+03  0.92403014822E+03  0.00000000000E+00 0. -1.
         23    2    1    2    0    0 -0.46180493405E+03  0.18899657680E+03  0.19357717098E+04  0.20011527874E+04  0.91743462385E+02 0.  0.
         13    1    3    3    0    0 -0.31806891784E+03  0.95596643315E+02  0.11561500643E+04  0.12029087770E+04  0.00000000000E+00 0. -1.
        -13    1    3    3    0    0 -0.14373601621E+03  0.93399933486E+02  0.77962164556E+03  0.79824401041E+03  0.00000000000E+00 0.  1.
         22    1    1    2    0    0  0.46180493405E+03 -0.18899657680E+03 -0.82150553593E+03  0.96117368291E+03  0.00000000000E+00 0. -1.
<mgrwt>
<rscale>  0 0.27447749E+04</rscale>
<asrwt>0</asrwt>
<pdfrwt beam="1">  1        2 0.14215849E+00 0.27447749E+04</pdfrwt>
<pdfrwt beam="2">  1       -2 0.31358405E+00 0.27447749E+04</pdfrwt>
<totfact> 0.64767852E-01</totfact>
</mgrwt>
</event>
<event>
 6    1  0.4630212E-004  0.3324404E+03  0.7818608E-02  0.1070062E+00
          2   -1    0    0  501    0  0.00000000000E+00  0.00000000000E+00  0.16815307049E+04  0.16815307049E+04  0.00000000000E+00 0.  1.
         -2   -1    0    0    0  501 -0.00000000000E+00 -0.00000000000E+00 -0.16430958311E+02  0.16430958311E+02  0.00000000000E+00 0. -1.
         23    2    1    2    0    0  0.14965499329E+03 -0.33080796666E+02  0.88013875316E+03  0.89817749399E+03  0.92669465188E+02 0.  0.
         13    1    3    3    0    0  0.11553574632E+03  0.10809902083E+02  0.46156509987E+03  0.47592825518E+03  0.00000000000E+00 0.  1.
        -13    1    3    3    0    0  0.34119246973E+02 -0.43890698750E+02  0.41857365328E+03  0.42224923881E+03  0.00000000000E+00 0. -1.
         22    1    1    2    0    0 -0.14965499329E+03  0.33080796666E+02  0.78496099342E+03  0.79978416921E+03  0.00000000000E+00 0.  1.
<mgrwt>
<rscale>  0 0.33244044E+03</rscale>
<asrwt>0</asrwt>
<pdfrwt beam="1">  1        2 0.25869690E+00 0.33244044E+03</pdfrwt>
<pdfrwt beam="2">  1       -2 0.25278411E-02 0.33244044E+03</pdfrwt>
<totfact> 0.59822897E+03</totfact>
</mgrwt>
</event>
<event>
 6    1  0.4630212E-004  0.3863531E+04  0.7818608E-02  0.8032657E-01
         -2   -1    0    0    0  501 -0.00000000000E+00  0.00000000000E+00  0.24602122424E+04  0.24602122424E+04  0.00000000000E+00 0. -1.
          2   -1    0    0  501    0  0.00000000000E+00 -0.00000000000E+00 -0.15168274687E+04  0.15168274687E+04  0.00000000000E+00 0.  1.
         23    2    1    2    0    0 -0.81727256573E+03 -0.17183400401E+04  0.80851707942E+03  0.20694715642E+04  0.91573727035E+02 0.  0.
         13    1    3    3    0    0 -0.68034251855E+03 -0.13556407389E+04  0.62416753992E+03  0.16401868410E+04  0.00000000000E+00 0.  1.
        -13    1    3    3    0    0 -0.13693004718E+03 -0.36269930118E+03  0.18434953951E+03  0.42928472325E+03  0.00000000000E+00 0. -1.
         22    1    1    2    0    0  0.81727256573E+03  0.17183400401E+04  0.13486769422E+03  0.19075681469E+04  0.00000000000E+00 0.  1.
<mgrwt>
<rscale>  0 0.38635308E+04</rscale>
<asrwt>0</asrwt>
<pdfrwt beam="1">  1        2 0.23335807E+00 0.38635308E+04</pdfrwt>
<pdfrwt beam="2">  1       -2 0.37849419E+00 0.38635308E+04</pdfrwt>
<totfact> 0.10137318E-01</totfact>
</mgrwt>
</event>
<event>
 6    1  0.4630212E-004  0.3359995E+04  0.7818608E-02  0.8147795E-01
          2   -1    0    0  501    0  0.00000000000E+00  0.00000000000E+00  0.16015392510E+04  0.16015392510E+04  0.00000000000E+00 0.  1.
         -2   -1    0    0    0  501 -0.00000000000E+00 -0.00000000000E+00 -0.17622998327E+04  0.17622998327E+04  0.00000000000E+00 0. -1.
         23    2    1    2    0    0  0.51722627826E+03  0.72147662222E+03 -0.15069079625E+04  0.17513365844E+04  0.91414906515E+02 0.  0.
         11    1    3    3    0    0  0.40139263381E+03  0.49536095478E+03 -0.11101455119E+04  0.12802037258E+04  0.00000000000E+00 0. -1.
        -11    1    3    3    0    0  0.11583364445E+03  0.22611566744E+03 -0.39676245064E+03  0.47113285864E+03  0.00000000000E+00 0.  1.
         22    1    1    2    0    0 -0.51722627826E+03 -0.72147662222E+03  0.13461473808E+04  0.16125024993E+04  0.00000000000E+00 0.  1.
<mgrwt>
<rscale>  0 0.33599954E+04</rscale>
<asrwt>0</asrwt>
<pdfrwt beam="1">  1        2 0.24639066E+00 0.33599954E+04</pdfrwt>
<pdfrwt beam="2">  1       -2 0.27112305E+00 0.33599954E+04</pdfrwt>
<totfact> 0.44131066E-01</totfact>
</mgrwt>
</event>
<event>
 6    1  0.4630212E-004  0.1473431E+04  0.7818608E-02  0.8902316E-01
          2   -1    0    0  501    0  0.00000000000E+00  0.00000000000E+00  0.55374943429E+03  0.55374943429E+03  0.00000000000E+00 0.  1.
         -2   -1    0    0    0  501 -0.00000000000E+00 -0.00000000000E+00 -0.98013558874E+03  0.98013558874E+03  0.00000000000E+00 0. -1.
         23    2    1    2    0    0 -0.62338741209E+03 -0.36384650730E+03 -0.72361568933E+02  0.72993878504E+03  0.81106638578E+02 0.  0.
         11    1    3    3    0    0 -0.24684659900E+03 -0.16871448360E+03  0.39950080925E+01  0.29902137132E+03  0.00000000000E+00 0. -1.
        -11    1    3    3    0    0 -0.37654081309E+03 -0.19513202370E+03 -0.76356577025E+02  0.43091741372E+03  0.00000000000E+00 0.  1.
         22    1    1    2    0    0  0.62338741209E+03  0.36384650730E+03 -0.35402458552E+03  0.80394623799E+03  0.00000000000E+00 0. -1.
<mgrwt>
<rscale>  0 0.14734307E+04</rscale>
<asrwt>0</asrwt>
<pdfrwt beam="1">  1        2 0.85192221E-01 0.14734307E+04</pdfrwt>
<pdfrwt beam="2">  1       -2 0.15079009E+00 0.14734307E+04</pdfrwt>
<totfact> 0.15607783E+01</totfact>
</mgrwt>
</event>
<event>
 6    1  0.4630212E-004  0.1196205E+04  0.7818608E-02  0.9116185E-01
          2   -1    0    0  501    0  0.00000000000E+00  0.00000000000E+00  0.21779921865E+04  0.21779921865E+04  0.00000000000E+00 0.  1.
         -2   -1    0    0    0  501 -0.00000000000E+00 -0.00000000000E+00 -0.16424611310E+03  0.16424611310E+03  0.00000000000E+00 0. -1.
         23    2    1    2    0    0 -0.39247368735E+03 -0.41180209167E+03  0.13473208671E+04  0.14660310675E+04  0.10176941602E+03 0.  0.
         13    1    3    3    0    0 -0.34902418756E+03 -0.32409354903E+03  0.10490712465E+04  0.11521306316E+04  0.00000000000E+00 0. -1.
        -13    1    3    3    0    0 -0.43449499789E+02 -0.87708542644E+02  0.29824962062E+03  0.31390043594E+03  0.00000000000E+00 0.  1.
         22    1    1    2    0    0  0.39247368735E+03  0.41180209167E+03  0.66642520627E+03  0.87620723207E+03  0.00000000000E+00 0. -1.
<mgrwt>
<rscale>  0 0.11962053E+04</rscale>
<asrwt>0</asrwt>
<pdfrwt beam="1">  1        2 0.33507570E+00 0.11962053E+04</pdfrwt>
<pdfrwt beam="2">  1       -2 0.25268634E-01 0.11962053E+04</pdfrwt>
<totfact> 0.73992565E+01</totfact>
</mgrwt>
</event>
<event>
 6    1  0.4630212E-004  0.2614404E+04  0.7818608E-02  0.8363325E-01
          2   -1    0    0  501    0  0.00000000000E+00  0.00000000000E+00  0.21788693497E+04  0.21788693497E+04  0.00000000000E+00 0.  1.
         -2   -1    0    0    0  501 -0.00000000000E+00 -0.00000000000E+00 -0.78424968652E+03  0.78424968652E+03  0.00000000000E+00 0. -1.
         23    2    1    2    0    0  0.11158934040E+04  0.65419294921E+03  0.89945411397E+03  0.15780647322E+04  0.89911579304E+02 0.  0.
         13    1    3    3    0    0  0.99019944468E+03  0.55947652527E+03  0.81726762324E+03  0.14005125100E+04  0.00000000000E+00 0. -1.
        -13    1    3    3    0    0  0.12569395929E+03  0.94716423943E+02  0.82186490729E+02  0.17755222225E+03  0.00000000000E+00 0.  1.
         22    1    1    2    0    0 -0.11158934040E+04 -0.65419294921E+03  0.49516554917E+03  0.13850543040E+04  0.00000000000E+00 0.  1.
<mgrwt>
<rscale>  0 0.26144044E+04</rscale>
<asrwt>0</asrwt>
<pdfrwt beam="1">  1        2 0.33521067E+00 0.26144044E+04</pdfrwt>
<pdfrwt beam="2">  1       -2 0.12065380E+00 0.26144044E+04</pdfrwt>
<totfact> 0.24561565E+00</totfact>
</mgrwt>
</event>
<event>
 6    1  0.4630212E-004  0.1862322E+04  0.7818608E-02  0.8673842E-01
          2   -1    0    0  501    0  0.00000000000E+00  0.00000000000E+00  0.16448392975E+04  0.16448392975E+04  0.00000000000E+00 0.  1.
         -2   -1    0    0    0  501 -0.00000000000E+00 -0.00000000000E+00 -0.52714024614E+03  0.52714024614E+03  0.00000000000E+00 0. -1.
         23    2    1    2    0    0  0.23974458858E+02 -0.37185476360E+03 -0.43224889980E+03  0.57786869706E+03  0.90787552929E+02 0.  0.
         11    1    3    3    0    0 -0.21162703502E+02 -0.21191308470E+03 -0.28535871038E+03  0.35606826463E+03  0.00000000000E+00 0.  1.
        -11    1    3    3    0    0  0.45137162360E+02 -0.15994167891E+03 -0.14689018942E+03  0.22180043243E+03  0.00000000000E+00 0. -1.
         22    1    1    2    0    0 -0.23974458858E+02  0.37185476360E+03  0.15499479512E+04  0.15941108466E+04  0.00000000000E+00 0.  1.
<mgrwt>
<rscale>  0 0.18623222E+04</rscale>
<asrwt>0</asrwt>
<pdfrwt beam="1">  1        2 0.25305220E+00 0.18623222E+04</pdfrwt>
<pdfrwt beam="2">  1       -2 0.81098500E-01 0.18623222E+04</pdfrwt>
<totfact> 0.13254135E+01</totfact>
</mgrwt>
</event>
<event>
 6    1  0.4630212E-004  0.2900608E+04  0.7818608E-02  0.8272696E-01
         -2   -1    0    0    0  501 -0.00000000000E+00  0.00000000000E+00  0.10696595283E+04  0.10696595283E+04  0.00000000000E+00 0.  1.
          2   -1    0    0  501    0  0.00000000000E+00 -0.00000000000E+00 -0.19664036128E+04  0.19664036128E+04  0.00000000000E+00 0. -1.
         23    2    1    2    0    0  0.47108843784E+03  0.58869139348E+03 -0.17438265432E+04  0.19020302646E+04  0.91138583303E+02 0.  0.
         13    1    3    3    0    0  0.99076448955E+02  0.93990780464E+02 -0.24631578184E+03  0.28164139244E+03  0.00000000000E+00 0. -1.
        -13    1    3    3    0    0  0.37201198888E+03  0.49470061301E+03 -0.14975107614E+04  0.16203888721E+04  0.00000000000E+00 0.  1.
         22    1    1    2    0    0 -0.47108843784E+03 -0.58869139348E+03  0.84708245878E+03  0.11340328765E+04  0.00000000000E+00 0.  1.
<mgrwt>
<rscale>  0 0.29006085E+04</rscale>
<asrwt>0</asrwt>
<pdfrwt beam="1">  1        2 0.30252363E+00 0.29006085E+04</pdfrwt>
<pdfrwt beam="2">  1       -2 0.16456301E+00 0.29006085E+04</pdfrwt>
<totfact> 0.14039916E+00</totfact>
</mgrwt>
</event>
<event>
 6    1  0.4630212E-004  0.2337707E+04  0.7818608E-02  0.8463201E-01
         -2   -1    0    0    0  501 -0.00000000000E+00  0.00000000000E+00  0.23621242097E+04  0.23621242097E+04  0.00000000000E+00 0. -1.
          2   -1    0    0  501    0  0.00000000000E+00 -0.00000000000E+00 -0.57838536845E+03  0.57838536845E+03  0.00000000000E+00 0.  1.
         23    2    1    2    0    0 -0.72395930005E+02  0.10980516959E+04  0.13818423212E+04  0.17689808715E+04  0.94055439016E+02 0.  0.
         13    1    3    3    0    0 -0.20074194883E+02  0.85847313282E+03  0.10969780135E+04  0.13931043950E+04  0.00000000000E+00 0. -1.
        -13    1    3    3    0    0 -0.52321735122E+02  0.23957856311E+03  0.28486430768E+03  0.37587647659E+03  0.00000000000E+00 0.  1.
         22    1    1    2    0    0  0.72395930005E+02 -0.10980516959E+04  0.40189652006E+03  0.11715287066E+04  0.00000000000E+00 0.  1.
<mgrwt>
<rscale>  0 0.23377066E+04</rscale>
<asrwt>0</asrwt>
<pdfrwt beam="1">  1        2 0.88982365E-01 0.23377066E+04</pdfrwt>
<pdfrwt beam="2">  1       -2 0.36340372E+00 0.23377066E+04</pdfrwt>
<totfact> 0.60004096E-01</totfact>
</mgrwt>
</event>
<event>
 6    1  0.4630212E-004  0.2021257E+04  0.7818608E-02  0.8596746E-01
         -2   -1    0    0    0  501 -0.00000000000E+00  0.00000000000E+00  0.26255155949E+03  0.26255155949E+03  0.00000000000E+00 0. -1.
          2   -1    0    0  501    0  0.00000000000E+00 -0.00000000000E+00 -0.38901687419E+04  0.38901687419E+04  0.00000000000E+00 0.  1.
         23    2    1    2    0    0 -0.36593800152E+03  0.70118708728E+03 -0.31034683068E+04  0.32038757429E+04  0.87922081525E+02 0.  0.
         11    1    3    3    0    0 -0.15242772103E+03  0.38635524647E+03 -0.16403606267E+04  0.16921251645E+04  0.00000000000E+00 0. -1.
        -11    1    3    3    0    0 -0.21351028049E+03  0.31483184081E+03 -0.14631076801E+04  0.15117505784E+04  0.00000000000E+00 0.  1.
         22    1    1    2    0    0  0.36593800152E+03 -0.70118708728E+03 -0.52414887558E+03  0.94884455845E+03  0.00000000000E+00 0. -1.
<mgrwt>
<rscale>  0 0.20212569E+04</rscale>
<asrwt>0</asrwt>
<pdfrwt beam="1">  1        2 0.59848750E+00 0.20212569E+04</pdfrwt>
<pdfrwt beam="2">  1       -2 0.40392547E-01 0.20212569E+04</pdfrwt>
<totfact> 0.22719369E+00</totfact>
</mgrwt>
</event>
<event>
 6    1  0.4630212E-004  0.2312953E+04  0.7818608E-02  0.8472831E-01
         -2   -1    0    0    0  501 -0.00000000000E+00  0.00000000000E+00  0.80005049163E+03  0.80005049163E+03  0.00000000000E+00 0. -1.
          2   -1    0    0  501    0  0.00000000000E+00 -0.00000000000E+00 -0.16716924740E+04  0.16716924740E+04  0.00000000000E+00 0.  1.
         23    2    1    2    0    0  0.45702952618E+03  0.58458780316E+03  0.50891740774E+03  0.90440027272E+03  0.91236166063E+02 0.  0.
         11    1    3    3    0    0  0.29648141091E+03  0.40933319342E+03  0.29866371136E+03  0.58707316642E+03  0.00000000000E+00 0.  1.
        -11    1    3    3    0    0  0.16054811527E+03  0.17525460974E+03  0.21025369638E+03  0.31732710630E+03  0.00000000000E+00 0. -1.
         22    1    1    2    0    0 -0.45702952618E+03 -0.58458780316E+03 -0.13805593901E+04  0.15673426929E+04  0.00000000000E+00 0.  1.
<mgrwt>
<rscale>  0 0.23129534E+04</rscale>
<asrwt>0</asrwt>
<pdfrwt beam="1">  1        2 0.25718345E+00 0.23129534E+04</pdfrwt>
<pdfrwt beam="2">  1       -2 0.12308469E+00 0.23129534E+04</pdfrwt>
<totfact> 0.45910135E+00</totfact>
</mgrwt>
</event>
<event>
 6    1  0.4630212E-004  0.1508196E+04  0.7818608E-02  0.8879021E-01
          2   -1    0    0  501    0  0.00000000000E+00  0.00000000000E+00  0.14466202290E+04  0.14466202290E+04  0.00000000000E+00 0.  1.
         -2   -1    0    0    0  501 -0.00000000000E+00 -0.00000000000E+00 -0.39309827565E+03  0.39309827565E+03  0.00000000000E+00 0. -1.
         23    2    1    2    0    0 -0.67015352422E+03  0.15852576398E+03  0.89541680124E+03  0.11331539973E+04  0.89613447007E+02 0.  0.
         11    1    3    3    0    0 -0.45723177867E+03  0.90864138452E+02  0.54037674488E+03  0.71366954362E+03  0.00000000000E+00 0. -1.
        -11    1    3    3    0    0 -0.21292174555E+03  0.67661625532E+02  0.35504005636E+03  0.41948445373E+03  0.00000000000E+00 0.  1.
         22    1    1    2    0    0  0.67015352422E+03 -0.15852576398E+03  0.15810515213E+03  0.70656450732E+03  0.00000000000E+00 0. -1.
<mgrwt>
<rscale>  0 0.15081962E+04</rscale>
<asrwt>0</asrwt>
<pdfrwt beam="1">  1        2 0.22255696E+00 0.15081962E+04</pdfrwt>
<pdfrwt beam="2">  1       -2 0.60476659E-01 0.15081962E+04</pdfrwt>
<totfact> 0.33467320E+01</totfact>
</mgrwt>
</event>
<event>
 6    1  0.4630212E-004  0.4149963E+04  0.7818608E-02  0.7974959E-01
          2   -1    0    0  501    0  0.00000000000E+00  0.00000000000E+00  0.30348549229E+04  0.30348549229E+04  0.00000000000E+00 0. -1.
         -2   -1    0    0    0  501 -0.00000000000E+00 -0.00000000000E+00 -0.14186996468E+04  0.14186996468E+04  0.00000000000E+00 0.  1.
         23    2    1    2    0    0  0.18527406507E+03  0.20149066694E+04  0.12970405957E+04  0.24051382193E+04  0.90554852980E+02 0.  0.
         13    1    3    3    0    0  0.82364636570E+02  0.50038904455E+03  0.34282593213E+03  0.61212968316E+03  0.00000000000E+00 0. -1.
        -13    1    3    3    0    0  0.10290942850E+03  0.15145176248E+04  0.95421466356E+03  0.17930085361E+04  0.00000000000E+00 0.  1.
         22    1    1    2    0    0 -0.18527406507E+03 -0.20149066694E+04  0.31911468040E+03  0.20484163504E+04  0.00000000000E+00 0.  1.
<mgrwt>
<rscale>  0 0.41499627E+04</rscale>
<asrwt>0</asrwt>
<pdfrwt beam="1">  1        2 0.46690076E+00 0.41499627E+04</pdfrwt>
<pdfrwt beam="2">  1       -2 0.21826148E+00 0.41499627E+04</pdfrwt>
<totfact> 0.13071670E-01</totfact>
</mgrwt>
</event>
<event>
 6    1  0.4630212E-004  0.2612853E+04  0.7818608E-02  0.8363848E-01
          2   -1    0    0  501    0  0.00000000000E+00  0.00000000000E+00  0.24023715914E+04  0.24023715914E+04  0.00000000000E+00 0.  1.
         -2   -1    0    0    0  501 -0.00000000000E+00 -0.00000000000E+00 -0.71044376322E+03  0.71044376322E+03  0.00000000000E+00 0. -1.
         23    2    1    2    0    0  0.85313029545E+03 -0.61812242147E+03 -0.69335916102E+02  0.10605101615E+04  0.99838391430E+02 0.  0.
         11    1    3    3    0    0  0.83216177855E+02 -0.83882409752E+02 -0.33061148373E+02  0.12269568230E+03  0.00000000000E+00 0. -1.
        -11    1    3    3    0    0  0.76991411759E+03 -0.53424001172E+03 -0.36274767728E+02  0.93781447918E+03  0.00000000000E+00 0.  1.
         22    1    1    2    0    0 -0.85313029545E+03  0.61812242147E+03  0.17612637443E+04  0.20523051932E+04  0.00000000000E+00 0.  1.
<mgrwt>
<rscale>  0 0.26128528E+04</rscale>
<asrwt>0</asrwt>
<pdfrwt beam="1">  1        2 0.36959563E+00 0.26128528E+04</pdfrwt>
<pdfrwt beam="2">  1       -2 0.10929904E+00 0.26128528E+04</pdfrwt>
<totfact> 0.23362316E+00</totfact>
</mgrwt>
</event>
<event>
 6    1  0.4630212E-004  0.1806521E+04  0.7818608E-02  0.8702839E-01
          2   -1    0    0  501    0  0.00000000000E+00  0.00000000000E+00  0.15552550054E+04  0.15552550054E+04  0.00000000000E+00 0.  1.
         -2   -1    0    0    0  501 -0.00000000000E+00 -0.00000000000E+00 -0.52459550743E+03  0.52459550743E+03  0.00000000000E+00 0. -1.
         23    2    1    2    0    0  0.54966220908E+03  0.61188227544E+02  0.13354674326E+04  0.14483598793E+04  0.91654422205E+02 0.  0.
         13    1    3    3    0    0  0.68826439316E+02  0.22238649076E+02  0.25559756650E+03  0.26563462173E+03  0.00000000000E+00 0. -1.
        -13    1    3    3    0    0  0.48083576976E+03  0.38949578468E+02  0.10798698661E+04  0.11827252576E+04  0.00000000000E+00 0.  1.
         22    1    1    2    0    0 -0.54966220908E+03 -0.61188227544E+02 -0.30480793461E+03  0.63149063356E+03  0.00000000000E+00 0. -1.
<mgrwt>
<rscale>  0 0.18065213E+04</rscale>
<asrwt>0</asrwt>
<pdfrwt beam="1">  1        2 0.23927000E+00 0.18065213E+04</pdfrwt>
<pdfrwt beam="2">  1       -2 0.80707002E-01 0.18065213E+04</pdfrwt>
<totfact> 0.15108038E+01</totfact>
</mgrwt>
</event>
<event>
 6    1  0.4630212E-004  0.5011641E+04  0.7818608E-02  0.7826714E-01
         -2   -1    0    0    0  501 -0.00000000000E+00  0.00000000000E+00  0.17917136846E+04  0.17917136846E+04  0.00000000000E+00 0. -1.
          2   -1    0    0  501    0  0.00000000000E+00 -0.00000000000E+00 -0.35045420214E+04  0.35045420214E+04  0.00000000000E+00 0.  1.
         23    2    1    2    0    0  0.83681648798E+03 -0.22610350157E+04 -0.15752202721E+04  0.28814105440E+04  0.93094792835E+02 0.  0.
         13    1    3    3    0    0  0.42736757204E+03 -0.12641906134E+04 -0.83986218179E+03  0.15767654971E+04  0.00000000000E+00 0. -1.
        -13    1    3    3    0    0  0.40944891594E+03 -0.99684440235E+03 -0.73535809035E+03  0.13046450469E+04  0.00000000000E+00 0.  1.
         22    1    1    2    0    0 -0.83681648798E+03  0.22610350157E+04 -0.13760806464E+03  0.24148451620E+04  0.00000000000E+00 0. -1.
<mgrwt>
<rscale>  0 0.50116408E+04</rscale>
<asrwt>0</asrwt>
<pdfrwt beam="1">  1        2 0.53916030E+00 0.50116408E+04</pdfrwt>
<pdfrwt beam="2">  1       -2 0.27564826E+00 0.50116408E+04</pdfrwt>
<totfact> 0.26225831E-02</totfact>
</mgrwt>
</event>
<event>
 6    1  0.4630212E-004  0.1774674E+04  0.7818608E-02  0.8719885E-01
          2   -1    0    0  501    0  0.00000000000E+00  0.00000000000E+00  0.97118652665E+03  0.97118652665E+03  0.00000000000E+00 0.  1.
         -2   -1    0    0    0  501 -0.00000000000E+00 -0.00000000000E+00 -0.81072651039E+03  0.81072651039E+03  0.00000000000E+00 0. -1.
         23    2    1    2    0    0  0.32925645465E+03  0.52293342429E+03  0.71653284975E+03  0.95059710714E+03  0.91358394099E+02 0.  0.
         13    1    3    3    0    0  0.24076140619E+03  0.41270811816E+03  0.49641743157E+03  0.68900240338E+03  0.00000000000E+00 0.  1.
        -13    1    3    3    0    0  0.88495048458E+02  0.11022530613E+03  0.22011541818E+03  0.26159470376E+03  0.00000000000E+00 0. -1.
         22    1    1    2    0    0 -0.32925645465E+03 -0.52293342429E+03 -0.55607283349E+03  0.83131592990E+03  0.00000000000E+00 0. -1.
<mgrwt>
<rscale>  0 0.17746737E+04</rscale>
<asrwt>0</asrwt>
<pdfrwt beam="1">  1        2 0.14941331E+00 0.17746737E+04</pdfrwt>
<pdfrwt beam="2">  1       -2 0.12472715E+00 0.17746737E+04</pdfrwt>
<totfact> 0.11992558E+01</totfact>
</mgrwt>
</event>
<event>
 6    1  0.4630212E-004  0.4103977E+04  0.7818608E-02  0.7983893E-01
          2   -1    0    0  501    0  0.00000000000E+00  0.00000000000E+00  0.36920557944E+04  0.36920557944E+04  0.00000000000E+00 0.  1.
         -2   -1    0    0    0  501 -0.00000000000E+00 -0.00000000000E+00 -0.11404638515E+04  0.11404638515E+04  0.00000000000E+00 0. -1.
         23    2    1    2    0    0  0.63545958975E+03  0.18571520005E+04  0.57313293000E+03  0.20455638679E+04  0.55024897387E+02 0.  0.
         11    1    3    3    0    0  0.12077512802E+03  0.42383101972E+03  0.12940477259E+03  0.45930922045E+03  0.00000000000E+00 0. -1.
        -11    1    3    3    0    0  0.51468446173E+03  0.14333209807E+04  0.44372815740E+03  0.15862546475E+04  0.00000000000E+00 0.  1.
         22    1    1    2    0    0 -0.63545958975E+03 -0.18571520005E+04  0.19784590128E+04  0.27869557780E+04  0.00000000000E+00 0.  1.
<mgrwt>
<rscale>  0 0.41039767E+04</rscale>
<asrwt>0</asrwt>
<pdfrwt beam="1">  1        2 0.56800858E+00 0.41039767E+04</pdfrwt>
<pdfrwt beam="2">  1       -2 0.17545598E+00 0.41039767E+04</pdfrwt>
<totfact> 0.90044793E-02</totfact>
</mgrwt>
</event>
<event>
 6    1  0.4630212E-004  0.2122032E+04  0.7818608E-02  0.8551600E-01
         -2   -1    0    0    0  501 -0.00000000000E+00  0.00000000000E+00  0.17237653143E+04  0.17237653143E+04  0.00000000000E+00 0. -1.
          2   -1    0    0  501    0  0.00000000000E+00 -0.00000000000E+00 -0.65307880501E+03  0.65307880501E+03  0.00000000000E+00 0.  1.
         23    2    1    2    0    0 -0.78449413430E+03 -0.36559745178E+03 -0.14767973002E+03  0.88235128339E+03  0.87418196827E+02 0.  0.
         13    1    3    3    0    0 -0.34277920277E+03 -0.16164544255E+03 -0.10871689727E+03  0.39426665431E+03  0.00000000000E+00 0. -1.
        -13    1    3    3    0    0 -0.44171493153E+03 -0.20395200923E+03 -0.38962832753E+02  0.48808462908E+03  0.00000000000E+00 0.  1.
         22    1    1    2    0    0  0.78449413430E+03  0.36559745178E+03  0.12183662393E+04  0.14944928359E+04  0.00000000000E+00 0. -1.
<mgrwt>
<rscale>  0 0.21220317E+04</rscale>
<asrwt>0</asrwt>
<pdfrwt beam="1">  1        2 0.10047366E+00 0.21220317E+04</pdfrwt>
<pdfrwt beam="2">  1       -2 0.26519466E+00 0.21220317E+04</pdfrwt>
<totfact> 0.21323942E+00</totfact>
</mgrwt>
</event>
<event>
 6    1  0.4630212E-004  0.8579882E+03  0.7818608E-02  0.9479678E-01
         -2   -1    0    0    0  501 -0.00000000000E+00  0.00000000000E+00  0.13773047613E+03  0.13773047613E+03  0.00000000000E+00 0. -1.
          2   -1    0    0  501    0  0.00000000000E+00 -0.00000000000E+00 -0.13362035531E+04  0.13362035531E+04  0.00000000000E+00 0.  1.
         23    2    1    2    0    0  0.12592346215E+03 -0.40019748878E+03 -0.71498327773E+03  0.83379565800E+03  0.89439161015E+02 0.  0.
         11    1    3    3    0    0  0.65167937128E+02 -0.14087612246E+03 -0.34098367030E+03  0.37465024399E+03  0.00000000000E+00 0.  1.
        -11    1    3    3    0    0  0.60755525026E+02 -0.25932136633E+03 -0.37399960743E+03  0.45914541401E+03  0.00000000000E+00 0. -1.
         22    1    1    2    0    0 -0.12592346215E+03  0.40019748878E+03 -0.48348979924E+03  0.64013837123E+03  0.00000000000E+00 0.  1.
<mgrwt>
<rscale>  0 0.85798823E+03</rscale>
<asrwt>0</asrwt>
<pdfrwt beam="1">  1        2 0.20556976E+00 0.85798823E+03</pdfrwt>
<pdfrwt beam="2">  1       -2 0.21189306E-01 0.85798823E+03</pdfrwt>
<totfact> 0.30496959E+02</totfact>
</mgrwt>
</event>
<event>
 6    1  0.4630212E-004  0.8413467E+04  0.7818608E-02  0.7446979E-01
         -2   -1    0    0    0  501 -0.00000000000E+00  0.00000000000E+00  0.42143887594E+04  0.42143887594E+04  0.00000000000E+00 0. -1.
          2   -1    0    0  501    0  0.00000000000E+00 -0.00000000000E+00 -0.41990920668E+04  0.41990920668E+04  0.00000000000E+00 0.  1.
         23    2    1    2    0    0 -0.89494184242E+03  0.13982404655E+04 -0.38571158566E+04  0.42002188771E+04  0.92187759967E+02 0.  0.
         11    1    3    3    0    0 -0.41461137176E+03  0.71254563198E+03 -0.19897385189E+04  0.21537602562E+04  0.00000000000E+00 0. -1.
        -11    1    3    3    0    0 -0.48033047066E+03  0.68569483354E+03 -0.18673773377E+04  0.20464586209E+04  0.00000000000E+00 0.  1.
         22    1    1    2    0    0  0.89494184242E+03 -0.13982404655E+04  0.38724125493E+04  0.42132619492E+04  0.00000000000E+00 0. -1.
<mgrwt>
<rscale>  0 0.84134669E+04</rscale>
<asrwt>0</asrwt>
<pdfrwt beam="1">  1        2 0.64601417E+00 0.84134669E+04</pdfrwt>
<pdfrwt beam="2">  1       -2 0.64836750E+00 0.84134669E+04</pdfrwt>
<totfact> 0.45894892E-05</totfact>
</mgrwt>
</event>
<event>
 6    1  0.4630212E-004  0.1074072E+04  0.7818608E-02  0.9230839E-01
          2   -1    0    0  501    0  0.00000000000E+00  0.00000000000E+00  0.17417473634E+04  0.17417473634E+04  0.00000000000E+00 0.  1.
         -2   -1    0    0    0  501 -0.00000000000E+00 -0.00000000000E+00 -0.16558512108E+03  0.16558512108E+03  0.00000000000E+00 0. -1.
         23    2    1    2    0    0  0.48181805176E+03  0.20509709708E+03  0.98359516068E+03  0.11165422465E+04  0.70666073169E+02 0.  0.
         13    1    3    3    0    0  0.23713641040E+03  0.13905045288E+03  0.50308242145E+03  0.57328930598E+03  0.00000000000E+00 0. -1.
        -13    1    3    3    0    0  0.24468164136E+03  0.66046644200E+02  0.48051273923E+03  0.54325294053E+03  0.00000000000E+00 0.  1.
         22    1    1    2    0    0 -0.48181805176E+03 -0.20509709708E+03  0.59256708167E+03  0.79079023800E+03  0.00000000000E+00 0. -1.
<mgrwt>
<rscale>  0 0.10740716E+04</rscale>
<asrwt>0</asrwt>
<pdfrwt beam="1">  1        2 0.26796112E+00 0.10740716E+04</pdfrwt>
<pdfrwt beam="2">  1       -2 0.25474635E-01 0.10740716E+04</pdfrwt>
<totfact> 0.12819284E+02</totfact>
</mgrwt>
</event>
<event>
 6    1  0.4956629E-004  0.3147137E+04  0.7818608E-02  0.8202919E-01
          2   -1    0    0  501    0  0.00000000000E+00  0.00000000000E+00  0.33444831683E+04  0.33444831683E+04  0.00000000000E+00 0.  1.
         -2   -1    0    0    0  501 -0.00000000000E+00 -0.00000000000E+00 -0.74035905824E+03  0.74035905824E+03  0.00000000000E+00 0. -1.
         23    2    1    2    0    0 -0.52108916087E+02 -0.51187772957E+03  0.32314806280E+04  0.32734789604E+04  0.91996228826E+02 0.  0.
         11    1    3    3    0    0  0.11325421766E+02 -0.20952174899E+03  0.15080279285E+04  0.15225557007E+04  0.00000000000E+00 0.  1.
        -11    1    3    3    0    0 -0.63434337853E+02 -0.30235598058E+03  0.17234526994E+04  0.17509232597E+04  0.00000000000E+00 0. -1.
         22    1    1    2    0    0  0.52108916087E+02  0.51187772957E+03 -0.62735651787E+03  0.81136326617E+03  0.00000000000E+00 0. -1.
<mgrwt>
<rscale>  0 0.31471374E+04</rscale>
<asrwt>0</asrwt>
<pdfrwt beam="1">  1        2 0.51453586E+00 0.31471374E+04</pdfrwt>
<pdfrwt beam="2">  1       -2 0.11390140E+00 0.31471374E+04</pdfrwt>
<totfact> 0.53030995E-01</totfact>
</mgrwt>
</event>
<event>
 6    1  0.4630212E-004  0.1092920E+04  0.7818608E-02  0.9212120E-01
         -2   -1    0    0    0  501 -0.00000000000E+00  0.00000000000E+00  0.23893305750E+03  0.23893305750E+03  0.00000000000E+00 0.  1.
          2   -1    0    0  501    0  0.00000000000E+00 -0.00000000000E+00 -0.12498004647E+04  0.12498004647E+04  0.00000000000E+00 0. -1.
         23    2    1    2    0    0 -0.23386399044E+03 -0.52575482044E+01  0.16104333646E+03  0.29370431798E+03  0.74881655617E+02 0.  0.
         11    1    3    3    0    0 -0.15441891679E+03 -0.36232711197E+02  0.12101722560E+03  0.19950734351E+03  0.00000000000E+00 0. -1.
        -11    1    3    3    0    0 -0.79445073644E+02  0.30975162992E+02  0.40026110861E+02  0.94196974470E+02  0.00000000000E+00 0.  1.
         22    1    1    2    0    0  0.23386399044E+03  0.52575482044E+01 -0.11719107436E+04  0.11950292042E+04  0.00000000000E+00 0. -1.
<mgrwt>
<rscale>  0 0.10929202E+04</rscale>
<asrwt>0</asrwt>
<pdfrwt beam="1">  1        2 0.19227700E+00 0.10929202E+04</pdfrwt>
<pdfrwt beam="2">  1       -2 0.36758932E-01 0.10929202E+04</pdfrwt>
<totfact> 0.12239349E+02</totfact>
</mgrwt>
</event>
<event>
 6    1  0.4630212E-004  0.1500299E+04  0.7818608E-02  0.8884254E-01
          2   -1    0    0  501    0  0.00000000000E+00  0.00000000000E+00  0.10485700879E+04  0.10485700879E+04  0.00000000000E+00 0.  1.
         -2   -1    0    0    0  501 -0.00000000000E+00 -0.00000000000E+00 -0.53665840239E+03  0.53665840239E+03  0.00000000000E+00 0. -1.
         23    2    1    2    0    0 -0.17878155885E+03 -0.12041626780E+03 -0.49693697842E+03  0.55360910794E+03  0.11434054634E+03 0.  0.
         13    1    3    3    0    0 -0.16979267348E+03 -0.61280740488E+02 -0.32793749267E+03  0.37433658681E+03  0.00000000000E+00 0. -1.
        -13    1    3    3    0    0 -0.89888853711E+01 -0.59135527308E+02 -0.16899948575E+03  0.17927252113E+03  0.00000000000E+00 0.  1.
         22    1    1    2    0    0  0.17878155885E+03  0.12041626780E+03  0.10088486639E+04  0.10316193823E+04  0.00000000000E+00 0.  1.
<mgrwt>
<rscale>  0 0.15002986E+04</rscale>
<asrwt>0</asrwt>
<pdfrwt beam="1">  1        2 0.16131847E+00 0.15002986E+04</pdfrwt>
<pdfrwt beam="2">  1       -2 0.82562832E-01 0.15002986E+04</pdfrwt>
<totfact> 0.29180255E+01</totfact>
</mgrwt>
</event>
<event>
 6    1  0.4630212E-004  0.3532325E+04  0.7818608E-02  0.8106172E-01
         -2   -1    0    0    0  501 -0.00000000000E+00  0.00000000000E+00  0.18587102485E+04  0.18587102485E+04  0.00000000000E+00 0. -1.
          2   -1    0    0  501    0  0.00000000000E+00 -0.00000000000E+00 -0.16782228543E+04  0.16782228543E+04  0.00000000000E+00 0.  1.
         23    2    1    2    0    0  0.11810645982E+04 -0.12385860749E+04  0.52240198823E+03  0.17916782103E+04  0.90542376350E+02 0.  0.
         13    1    3    3    0    0  0.70440723016E+03 -0.74569898211E+03  0.26685602671E+03  0.10599380439E+04  0.00000000000E+00 0.  1.
        -13    1    3    3    0    0  0.47665736807E+03 -0.49288709281E+03  0.25554596152E+03  0.73174016648E+03  0.00000000000E+00 0. -1.
         22    1    1    2    0    0 -0.11810645982E+04  0.12385860749E+04 -0.34191459400E+03  0.17452548925E+04  0.00000000000E+00 0. -1.
<mgrwt>
<rscale>  0 0.35323250E+04</rscale>
<asrwt>0</asrwt>
<pdfrwt beam="1">  1        2 0.25818813E+00 0.35323250E+04</pdfrwt>
<pdfrwt beam="2">  1       -2 0.28595542E+00 0.35323250E+04</pdfrwt>
<totfact> 0.32010358E-01</totfact>
</mgrwt>
</event>
<event>
 6    1  0.4630212E-004  0.8798637E+03  0.7818608E-02  0.9451109E-01
         -2   -1    0    0    0  501 -0.00000000000E+00  0.00000000000E+00  0.11452905414E+03  0.11452905414E+03  0.00000000000E+00 0. -1.
          2   -1    0    0  501    0  0.00000000000E+00 -0.00000000000E+00 -0.16898771891E+04  0.16898771891E+04  0.00000000000E+00 0.  1.
         23    2    1    2    0    0 -0.34579785165E+03  0.10319502971E+03 -0.30464255327E+03  0.48345278316E+03  0.10341247468E+03 0.  0.
         13    1    3    3    0    0 -0.31290103920E+03  0.56057912261E+02 -0.26010871213E+03  0.41073847152E+03  0.00000000000E+00 0. -1.
        -13    1    3    3    0    0 -0.32896812454E+02  0.47137117451E+02 -0.44533841143E+02  0.72714311646E+02  0.00000000000E+00 0.  1.
         22    1    1    2    0    0  0.34579785165E+03 -0.10319502971E+03 -0.12707055817E+04  0.13209534601E+04  0.00000000000E+00 0.  1.
<mgrwt>
<rscale>  0 0.87986371E+03</rscale>
<asrwt>0</asrwt>
<pdfrwt beam="1">  1        2 0.25998109E+00 0.87986371E+03</pdfrwt>
<pdfrwt beam="2">  1       -2 0.17619856E-01 0.87986371E+03</pdfrwt>
<totfact> 0.26641171E+02</totfact>
</mgrwt>
</event>
<event>
 6    1  0.4630212E-004  0.2441148E+04  0.7818608E-02  0.8424257E-01
         -2   -1    0    0    0  501 -0.00000000000E+00  0.00000000000E+00  0.12658369216E+04  0.12658369216E+04  0.00000000000E+00 0. -1.
          2   -1    0    0  501    0  0.00000000000E+00 -0.00000000000E+00 -0.11769293065E+04  0.11769293065E+04  0.00000000000E+00 0.  1.
         23    2    1    2    0    0 -0.37635028803E+03  0.92525518209E+03  0.74356118252E+03  0.12484848606E+04  0.89969570889E+02 0.  0.
         13    1    3    3    0    0 -0.23992261035E+02  0.13732418570E+03  0.11546313306E+03  0.18101186609E+03  0.00000000000E+00 0. -1.
        -13    1    3    3    0    0 -0.35235802699E+03  0.78793099639E+03  0.62809804947E+03  0.10674729945E+04  0.00000000000E+00 0.  1.
         22    1    1    2    0    0  0.37635028803E+03 -0.92525518209E+03 -0.65465356747E+03  0.11942813675E+04  0.00000000000E+00 0.  1.
<mgrwt>
<rscale>  0 0.24411477E+04</rscale>
<asrwt>0</asrwt>
<pdfrwt beam="1">  1        2 0.18106605E+00 0.24411477E+04</pdfrwt>
<pdfrwt beam="2">  1       -2 0.19474414E+00 0.24411477E+04</pdfrwt>
<totfact> 0.25249362E+00</totfact>
</mgrwt>
</event>
<event>
 6    1  0.4630212E-004  0.4407895E+04  0.7818608E-02  0.7926963E-01
          2   -1    0    0  501    0  0.00000000000E+00  0.00000000000E+00  0.20905095162E+04  0.20905095162E+04  0.00000000000E+00 0.  1.
         -2   -1    0    0    0  501 -0.00000000000E+00 -0.00000000000E+00 -0.23235413403E+04  0.23235413403E+04  0.00000000000E+00 0. -1.
         23    2    1    2    0    0  0.11028985985E+04 -0.16218924975E+04  0.88801806250E+03  0.21549197315E+04  0.90456496382E+02 0.  0.
         11    1    3    3    0    0  0.48150939661E+03 -0.63584356876E+03  0.34109655309E+03  0.86746481283E+03  0.00000000000E+00 0. -1.
        -11    1    3    3    0    0  0.62138920190E+03 -0.98604892875E+03  0.54692150942E+03  0.12874549187E+04  0.00000000000E+00 0.  1.
         22    1    1    2    0    0 -0.11028985985E+04  0.16218924975E+04 -0.11210498866E+04  0.22591311251E+04  0.00000000000E+00 0. -1.
<mgrwt>
<rscale>  0 0.44078953E+04</rscale>
<asrwt>0</asrwt>
<pdfrwt beam="1">  1        2 0.32161685E+00 0.44078953E+04</pdfrwt>
<pdfrwt beam="2">  1       -2 0.35746790E+00 0.44078953E+04</pdfrwt>
<totfact> 0.63358107E-02</totfact>
</mgrwt>
</event>
<event>
 6    1  0.4630212E-004  0.3201336E+04  0.7818608E-02  0.8188464E-01
          2   -1    0    0  501    0  0.00000000000E+00  0.00000000000E+00  0.98611456239E+03  0.98611456239E+03  0.00000000000E+00 0.  1.
         -2   -1    0    0    0  501 -0.00000000000E+00 -0.00000000000E+00 -0.25982157985E+04  0.25982157985E+04  0.00000000000E+00 0. -1.
         23    2    1    2    0    0  0.49979923706E+02 -0.11219155943E+04  0.46844944969E+03  0.12200368618E+04  0.88614128542E+02 0.  0.
         13    1    3    3    0    0  0.21292238734E+02 -0.14297088631E+03  0.33206040970E+02  0.14831276048E+03  0.00000000000E+00 0. -1.
        -13    1    3    3    0    0  0.28687684972E+02 -0.97894470799E+03  0.43524340872E+03  0.10717241013E+04  0.00000000000E+00 0.  1.
         22    1    1    2    0    0 -0.49979923706E+02  0.11219155943E+04 -0.20805506858E+04  0.23642934991E+04  0.00000000000E+00 0. -1.
<mgrwt>
<rscale>  0 0.32013362E+04</rscale>
<asrwt>0</asrwt>
<pdfrwt beam="1">  1        2 0.15170993E+00 0.32013362E+04</pdfrwt>
<pdfrwt beam="2">  1       -2 0.39972551E+00 0.32013362E+04</pdfrwt>
<totfact> 0.16121941E-01</totfact>
</mgrwt>
</event>
<event>
 6    1  0.4630212E-004  0.3129391E+04  0.7818608E-02  0.8207718E-01
          2   -1    0    0  501    0  0.00000000000E+00  0.00000000000E+00  0.10557313227E+04  0.10557313227E+04  0.00000000000E+00 0.  1.
         -2   -1    0    0    0  501 -0.00000000000E+00 -0.00000000000E+00 -0.23190293086E+04  0.23190293086E+04  0.00000000000E+00 0. -1.
         23    2    1    2    0    0  0.86634766218E+03 -0.74215480209E+03 -0.17849846714E+04  0.21203647529E+04  0.91784454481E+02 0.  0.
         13    1    3    3    0    0  0.28055787492E+03 -0.29492478162E+03 -0.60833233525E+03  0.73195736085E+03  0.00000000000E+00 0. -1.
        -13    1    3    3    0    0  0.58578978726E+03 -0.44723002047E+03 -0.11766523362E+04  0.13884073920E+04  0.00000000000E+00 0.  1.
         22    1    1    2    0    0 -0.86634766218E+03  0.74215480209E+03  0.52168668551E+03  0.12543958784E+04  0.00000000000E+00 0.  1.
<mgrwt>
<rscale>  0 0.31293909E+04</rscale>
<asrwt>0</asrwt>
<pdfrwt beam="1">  1        2 0.16242020E+00 0.31293909E+04</pdfrwt>
<pdfrwt beam="2">  1       -2 0.35677374E+00 0.31293909E+04</pdfrwt>
<totfact> 0.27706564E-01</totfact>
</mgrwt>
</event>
<event>
 6    1  0.4630212E-004  0.2115666E+04  0.7818608E-02  0.8554373E-01
          2   -1    0    0  501    0  0.00000000000E+00  0.00000000000E+00  0.16171847385E+04  0.16171847385E+04  0.00000000000E+00 0. -1.
         -2   -1    0    0    0  501 -0.00000000000E+00 -0.00000000000E+00 -0.69195002436E+03  0.69195002436E+03  0.00000000000E+00 0.  1.
         23    2    1    2    0    0 -0.67221042922E+03  0.31616741114E+03  0.12823617948E+04  0.14848966633E+04  0.92938878007E+02 0.  0.
         13    1    3    3    0    0 -0.43539015986E+03  0.24191804113E+03  0.79887794795E+03  0.94143236913E+03  0.00000000000E+00 0. -1.
        -13    1    3    3    0    0 -0.23682026935E+03  0.74249370010E+02  0.48348384680E+03  0.54346429417E+03  0.00000000000E+00 0.  1.
         22    1    1    2    0    0  0.67221042922E+03 -0.31616741114E+03 -0.35712708062E+03  0.82423809954E+03  0.00000000000E+00 0.  1.
<mgrwt>
<rscale>  0 0.21156663E+04</rscale>
<asrwt>0</asrwt>
<pdfrwt beam="1">  1        2 0.24879765E+00 0.21156663E+04</pdfrwt>
<pdfrwt beam="2">  1       -2 0.10645385E+00 0.21156663E+04</pdfrwt>
<totfact> 0.71401351E+00</totfact>
</mgrwt>
</event>
<event>
 6    1  0.4630212E-004  0.2513303E+04  0.7818608E-02  0.8398262E-01
         -2   -1    0    0    0  501 -0.00000000000E+00  0.00000000000E+00  0.10590723652E+04  0.10590723652E+04  0.00000000000E+00 0. -1.
          2   -1    0    0  501    0  0.00000000000E+00 -0.00000000000E+00 -0.14910905152E+04  0.14910905152E+04  0.00000000000E+00 0.  1.
         23    2    1    2    0    0  0.39989104127E+03  0.57375785082E+03  0.84098053720E+03  0.10977040775E+04  0.92709554598E+02 0.  0.
         11    1    3    3    0    0  0.10358189282E+03  0.22593550261E+03  0.29921410726E+03  0.38897961623E+03  0.00000000000E+00 0.  1.
        -11    1    3    3    0    0  0.29630914846E+03  0.34782234820E+03  0.54176642994E+03  0.70872446126E+03  0.00000000000E+00 0. -1.
         22    1    1    2    0    0 -0.39989104127E+03 -0.57375785082E+03 -0.12729986872E+04  0.14524588028E+04  0.00000000000E+00 0.  1.
<mgrwt>
<rscale>  0 0.25133028E+04</rscale>
<asrwt>0</asrwt>
<pdfrwt beam="1">  1        2 0.22939854E+00 0.25133028E+04</pdfrwt>
<pdfrwt beam="2">  1       -2 0.16293421E+00 0.25133028E+04</pdfrwt>
<totfact> 0.27425903E+00</totfact>
</mgrwt>
</event>
<event>
 6    1  0.4630212E-004  0.1925102E+04  0.7818608E-02  0.8642462E-01
         -2   -1    0    0    0  501 -0.00000000000E+00  0.00000000000E+00  0.47138663849E+03  0.47138663849E+03  0.00000000000E+00 0. -1.
          2   -1    0    0  501    0  0.00000000000E+00 -0.00000000000E+00 -0.19654864824E+04  0.19654864824E+04  0.00000000000E+00 0.  1.
         23    2    1    2    0    0 -0.17638651851E+03 -0.83855534395E+03 -0.19999563346E+03  0.88478002565E+03  0.92467137990E+02 0.  0.
         13    1    3    3    0    0 -0.74633893432E+02 -0.56305363867E+03 -0.12255637864E+03  0.58105050040E+03  0.00000000000E+00 0.  1.
        -13    1    3    3    0    0 -0.10175262508E+03 -0.27550170527E+03 -0.77439254821E+02  0.30372952525E+03  0.00000000000E+00 0. -1.
         22    1    1    2    0    0  0.17638651851E+03  0.83855534395E+03 -0.12941042104E+04  0.15520930952E+04  0.00000000000E+00 0.  1.
<mgrwt>
<rscale>  0 0.19251016E+04</rscale>
<asrwt>0</asrwt>
<pdfrwt beam="1">  1        2 0.30238254E+00 0.19251016E+04</pdfrwt>
<pdfrwt beam="2">  1       -2 0.72521020E-01 0.19251016E+04</pdfrwt>
<totfact> 0.11225802E+01</totfact>
</mgrwt>
</event>
<event>
 6    1  0.4630212E-004  0.3344879E+04  0.7818608E-02  0.8151569E-01
          2   -1    0    0  501    0  0.00000000000E+00  0.00000000000E+00  0.33587031946E+04  0.33587031946E+04  0.00000000000E+00 0.  1.
         -2   -1    0    0    0  501 -0.00000000000E+00 -0.00000000000E+00 -0.83277800309E+03  0.83277800309E+03  0.00000000000E+00 0. -1.
         23    2    1    2    0    0 -0.11019450902E+04  0.29582732071E+03 -0.26621640492E+03  0.11752167066E+04  0.92012758580E+02 0.  0.
         11    1    3    3    0    0 -0.97104521433E+03  0.23913667105E+03 -0.20986293511E+03  0.10218403042E+04  0.00000000000E+00 0.  1.
        -11    1    3    3    0    0 -0.13089987589E+03  0.56690649655E+02 -0.56353469814E+02  0.15337640244E+03  0.00000000000E+00 0. -1.
         22    1    1    2    0    0  0.11019450902E+04 -0.29582732071E+03  0.27921415965E+04  0.30162644911E+04  0.00000000000E+00 0.  1.
<mgrwt>
<rscale>  0 0.33448792E+04</rscale>
<asrwt>0</asrwt>
<pdfrwt beam="1">  1        2 0.51672356E+00 0.33448792E+04</pdfrwt>
<pdfrwt beam="2">  1       -2 0.12811969E+00 0.33448792E+04</pdfrwt>
<totfact> 0.38091695E-01</totfact>
</mgrwt>
</event>
<event>
 6    1  0.4630212E-004  0.2242982E+04  0.7818608E-02  0.8500748E-01
          2   -1    0    0  501    0  0.00000000000E+00  0.00000000000E+00  0.28630830395E+04  0.28630830395E+04  0.00000000000E+00 0.  1.
         -2   -1    0    0    0  501 -0.00000000000E+00 -0.00000000000E+00 -0.43929637389E+03  0.43929637389E+03  0.00000000000E+00 0. -1.
         23    2    1    2    0    0 -0.31683469851E+03  0.10630391422E+04  0.98965509099E+03  0.14893240316E+04  0.90732728350E+02 0.  0.
         11    1    3    3    0    0 -0.22186151692E+03  0.64178354160E+03  0.64886806210E+03  0.93922223620E+03  0.00000000000E+00 0.  1.
        -11    1    3    3    0    0 -0.94973181594E+02  0.42125560062E+03  0.34078702889E+03  0.55010179543E+03  0.00000000000E+00 0. -1.
         22    1    1    2    0    0  0.31683469851E+03 -0.10630391422E+04  0.14341315747E+04  0.18130553818E+04  0.00000000000E+00 0.  1.
<mgrwt>
<rscale>  0 0.22429819E+04</rscale>
<asrwt>0</asrwt>
<pdfrwt beam="1">  1        2 0.44047430E+00 0.22429819E+04</pdfrwt>
<pdfrwt beam="2">  1       -2 0.67584059E-01 0.22429819E+04</pdfrwt>
<totfact> 0.38714773E+00</totfact>
</mgrwt>
</event>
<event>
 6    1  0.4630212E-004  0.3238850E+04  0.7818608E-02  0.8178632E-01
          2   -1    0    0  501    0  0.00000000000E+00  0.00000000000E+00  0.20151726382E+04  0.20151726382E+04  0.00000000000E+00 0.  1.
         -2   -1    0    0    0  501 -0.00000000000E+00 -0.00000000000E+00 -0.13013957207E+04  0.13013957207E+04  0.00000000000E+00 0. -1.
         23    2    1    2    0    0 -0.13655369642E+04  0.12892538068E+03  0.12362036668E+04  0.18488345060E+04  0.93148108697E+02 0.  0.
         11    1    3    3    0    0 -0.93041814188E+03  0.69605656358E+02  0.78662448188E+03  0.12203691825E+04  0.00000000000E+00 0.  1.
        -11    1    3    3    0    0 -0.43511882234E+03  0.59319724326E+02  0.44957918496E+03  0.62846532347E+03  0.00000000000E+00 0. -1.
         22    1    1    2    0    0  0.13655369642E+04 -0.12892538068E+03 -0.52242674932E+03  0.14677338529E+04  0.00000000000E+00 0.  1.
<mgrwt>
<rscale>  0 0.32388498E+04</rscale>
<asrwt>0</asrwt>
<pdfrwt beam="1">  1        2 0.31002656E+00 0.32388498E+04</pdfrwt>
<pdfrwt beam="2">  1       -2 0.20021472E+00 0.32388498E+04</pdfrwt>
<totfact> 0.72917894E-01</totfact>
</mgrwt>
</event>
<event>
 6    1  0.5042769E-004  0.3880801E+04  0.7818608E-02  0.8029034E-01
         -2   -1    0    0    0  501 -0.00000000000E+00  0.00000000000E+00  0.13535509511E+04  0.13535509511E+04  0.00000000000E+00 0. -1.
          2   -1    0    0  501    0  0.00000000000E+00 -0.00000000000E+00 -0.27816857130E+04  0.27816857130E+04  0.00000000000E+00 0.  1.
         23    2    1    2    0    0 -0.16542971583E+04  0.96035711272E+03 -0.37429984766E+03  0.19513060566E+04  0.92250088480E+02 0.  0.
         13    1    3    3    0    0 -0.12003705508E+04  0.72905612642E+03 -0.30488893100E+03  0.14371393652E+04  0.00000000000E+00 0. -1.
        -13    1    3    3    0    0 -0.45392660753E+03  0.23130098630E+03 -0.69410916663E+02  0.51416669149E+03  0.00000000000E+00 0.  1.
         22    1    1    2    0    0  0.16542971583E+04 -0.96035711272E+03 -0.10538349142E+04  0.21839306075E+04  0.00000000000E+00 0.  1.
<mgrwt>
<rscale>  0 0.38808006E+04</rscale>
<asrwt>0</asrwt>
<pdfrwt beam="1">  1        2 0.42795164E+00 0.38808006E+04</pdfrwt>
<pdfrwt beam="2">  1       -2 0.20823861E+00 0.38808006E+04</pdfrwt>
<totfact> 0.22202979E-01</totfact>
</mgrwt>
</event>
<event>
 6    1  0.4630212E-004  0.3006587E+04  0.7818608E-02  0.8241852E-01
         -2   -1    0    0    0  501 -0.00000000000E+00  0.00000000000E+00  0.15959396544E+04  0.15959396544E+04  0.00000000000E+00 0. -1.
          2   -1    0    0  501    0  0.00000000000E+00 -0.00000000000E+00 -0.14160260023E+04  0.14160260023E+04  0.00000000000E+00 0.  1.
         23    2    1    2    0    0  0.10825033692E+04  0.62579330358E+03 -0.74308849639E+03  0.14578215935E+04  0.98145207936E+02 0.  0.
         13    1    3    3    0    0  0.60773272209E+02  0.63857541505E+02 -0.51940445350E+02  0.10231806334E+03  0.00000000000E+00 0. -1.
        -13    1    3    3    0    0  0.10217300970E+04  0.56193576208E+03 -0.69114805104E+03  0.13555035302E+04  0.00000000000E+00 0.  1.
         22    1    1    2    0    0 -0.10825033692E+04 -0.62579330358E+03  0.92300214851E+03  0.15541440632E+04  0.00000000000E+00 0. -1.
<mgrwt>
<rscale>  0 0.30065875E+04</rscale>
<asrwt>0</asrwt>
<pdfrwt beam="1">  1        2 0.21785016E+00 0.30065875E+04</pdfrwt>
<pdfrwt beam="2">  1       -2 0.24552918E+00 0.30065875E+04</pdfrwt>
<totfact> 0.82999557E-01</totfact>
</mgrwt>
</event>
<event>
 6    1  0.4630212E-004  0.1438425E+04  0.7818608E-02  0.8926465E-01
         -2   -1    0    0    0  501 -0.00000000000E+00  0.00000000000E+00  0.38649235608E+03  0.38649235608E+03  0.00000000000E+00 0. -1.
          2   -1    0    0  501    0  0.00000000000E+00 -0.00000000000E+00 -0.13383619881E+04  0.13383619881E+04  0.00000000000E+00 0.  1.
         23    2    1    2    0    0  0.36351879687E+03  0.25664540195E+03 -0.11508857655E+04  0.12373913206E+04  0.92663137223E+02 0.  0.
         13    1    3    3    0    0  0.16224088900E+03  0.62978242606E+02 -0.48576640864E+03  0.51600132642E+03  0.00000000000E+00 0.  1.
        -13    1    3    3    0    0  0.20127790788E+03  0.19366715935E+03 -0.66511935686E+03  0.72138999416E+03  0.00000000000E+00 0. -1.
         22    1    1    2    0    0 -0.36351879687E+03 -0.25664540195E+03  0.19901613346E+03  0.48746302362E+03  0.00000000000E+00 0. -1.
<mgrwt>
<rscale>  0 0.14384251E+04</rscale>
<asrwt>0</asrwt>
<pdfrwt beam="1">  1        2 0.20590184E+00 0.14384251E+04</pdfrwt>
<pdfrwt beam="2">  1       -2 0.59460363E-01 0.14384251E+04</pdfrwt>
<totfact> 0.40233691E+01</totfact>
</mgrwt>
</event>
<event>
 6    1  0.4630212E-004  0.2355465E+04  0.7818608E-02  0.8456367E-01
         -2   -1    0    0    0  501 -0.00000000000E+00  0.00000000000E+00  0.99020401642E+03  0.99020401642E+03  0.00000000000E+00 0. -1.
          2   -1    0    0  501    0  0.00000000000E+00 -0.00000000000E+00 -0.14007761430E+04  0.14007761430E+04  0.00000000000E+00 0.  1.
         23    2    1    2    0    0  0.33542444968E+02  0.11267296172E+04 -0.54582686203E+03  0.12556658552E+04  0.90139063303E+02 0.  0.
         11    1    3    3    0    0 -0.28535024239E+02  0.30225375000E+03 -0.13152497073E+03  0.33086310602E+03  0.00000000000E+00 0.  1.
        -11    1    3    3    0    0  0.62077469207E+02  0.82447586719E+03 -0.41430189130E+03  0.92480274918E+03  0.00000000000E+00 0. -1.
         22    1    1    2    0    0 -0.33542444968E+02 -0.11267296172E+04  0.13525473547E+03  0.11353143042E+04  0.00000000000E+00 0. -1.
<mgrwt>
<rscale>  0 0.23554653E+04</rscale>
<asrwt>0</asrwt>
<pdfrwt beam="1">  1        2 0.21550402E+00 0.23554653E+04</pdfrwt>
<pdfrwt beam="2">  1       -2 0.15233908E+00 0.23554653E+04</pdfrwt>
<totfact> 0.37519419E+00</totfact>
</mgrwt>
</event>
<event>
 6    1  0.4630212E-004  0.2095392E+04  0.7818608E-02  0.8563276E-01
          2   -1    0    0  501    0  0.00000000000E+00  0.00000000000E+00  0.22385590933E+04  0.22385590933E+04  0.00000000000E+00 0.  1.
         -2   -1    0    0    0  501 -0.00000000000E+00 -0.00000000000E+00 -0.49034532349E+03  0.49034532349E+03  0.00000000000E+00 0. -1.
         23    2    1    2    0    0  0.13449774934E+03  0.55471844485E+03 -0.26598319016E+03  0.63539263245E+03  0.84702669912E+02 0.  0.
         13    1    3    3    0    0  0.42883236548E+02  0.35131455066E+03 -0.15971384938E+03  0.38829035420E+03  0.00000000000E+00 0. -1.
        -13    1    3    3    0    0  0.91614512792E+02  0.20340389419E+03 -0.10626934078E+03  0.24710227825E+03  0.00000000000E+00 0.  1.
         22    1    1    2    0    0 -0.13449774934E+03 -0.55471844485E+03  0.20141969600E+04  0.20935117844E+04  0.00000000000E+00 0.  1.
<mgrwt>
<rscale>  0 0.20953921E+04</rscale>
<asrwt>0</asrwt>
<pdfrwt beam="1">  1        2 0.34439370E+00 0.20953921E+04</pdfrwt>
<pdfrwt beam="2">  1       -2 0.75437743E-01 0.20953921E+04</pdfrwt>
<totfact> 0.71373983E+00</totfact>
</mgrwt>
</event>
<event>
 6    1  0.4630212E-004  0.2891527E+04  0.7818608E-02  0.8275403E-01
          2   -1    0    0  501    0  0.00000000000E+00  0.00000000000E+00  0.23680303343E+04  0.23680303343E+04  0.00000000000E+00 0.  1.
         -2   -1    0    0    0  501 -0.00000000000E+00 -0.00000000000E+00 -0.88268786136E+03  0.88268786136E+03  0.00000000000E+00 0. -1.
         23    2    1    2    0    0 -0.13783320176E+04 -0.25433231251E+03  0.11356305878E+04  0.18061481978E+04  0.89612524409E+02 0.  0.
         11    1    3    3    0    0 -0.66760713235E+03 -0.14341615354E+03  0.60469628056E+03  0.91209926433E+03  0.00000000000E+00 0. -1.
        -11    1    3    3    0    0 -0.71072488528E+03 -0.11091615897E+03  0.53093430723E+03  0.89404893348E+03  0.00000000000E+00 0.  1.
         22    1    1    2    0    0  0.13783320176E+04  0.25433231251E+03  0.34971188514E+03  0.14445699978E+04  0.00000000000E+00 0. -1.
<mgrwt>
<rscale>  0 0.28915267E+04</rscale>
<asrwt>0</asrwt>
<pdfrwt beam="1">  1        2 0.36431236E+00 0.28915267E+04</pdfrwt>
<pdfrwt beam="2">  1       -2 0.13579813E+00 0.28915267E+04</pdfrwt>
<totfact> 0.13915175E+00</totfact>
</mgrwt>
</event>
<event>
 6    1  0.4630212E-004  0.4436542E+04  0.7818608E-02  0.7921841E-01
          2   -1    0    0  501    0  0.00000000000E+00  0.00000000000E+00  0.31376592786E+04  0.31376592786E+04  0.00000000000E+00 0.  1.
         -2   -1    0    0    0  501 -0.00000000000E+00 -0.00000000000E+00 -0.15682796486E+04  0.15682796486E+04  0.00000000000E+00 0. -1.
         23    2    1    2    0    0  0.47036556026E+03 -0.63142562952E+03  0.29837374067E+04  0.30871894080E+04  0.90041340421E+02 0.  0.
         11    1    3    3    0    0  0.10283492109E+03 -0.18526844488E+03  0.69494117376E+03  0.72652780584E+03  0.00000000000E+00 0.  1.
        -11    1    3    3    0    0  0.36753063917E+03 -0.44615718464E+03  0.22887962329E+04  0.23606616021E+04  0.00000000000E+00 0. -1.
         22    1    1    2    0    0 -0.47036556026E+03  0.63142562952E+03 -0.14143577767E+04  0.16187495193E+04  0.00000000000E+00 0. -1.
<mgrwt>
<rscale>  0 0.44365424E+04</rscale>
<asrwt>0</asrwt>
<pdfrwt beam="1">  1        2 0.48271681E+00 0.44365424E+04</pdfrwt>
<pdfrwt beam="2">  1       -2 0.24127379E+00 0.44365424E+04</pdfrwt>
<totfact> 0.78788305E-02</totfact>
</mgrwt>
</event>
<event>
 6    1  0.4630212E-004  0.2293613E+04  0.7818608E-02  0.8480444E-01
         -2   -1    0    0    0  501 -0.00000000000E+00  0.00000000000E+00  0.63462064139E+03  0.63462064139E+03  0.00000000000E+00 0. -1.
          2   -1    0    0  501    0  0.00000000000E+00 -0.00000000000E+00 -0.20723643669E+04  0.20723643669E+04  0.00000000000E+00 0.  1.
         23    2    1    2    0    0 -0.74451064423E+03  0.93463203058E+02 -0.17408294021E+04  0.18977307856E+04  0.88677267558E+02 0.  0.
         11    1    3    3    0    0 -0.48833567746E+03  0.81989237571E+02 -0.12361989886E+04  0.13316838620E+04  0.00000000000E+00 0.  1.
        -11    1    3    3    0    0 -0.25617496677E+03  0.11473965486E+02 -0.50463041343E+03  0.56604692353E+03  0.00000000000E+00 0. -1.
         22    1    1    2    0    0  0.74451064423E+03 -0.93463203058E+02  0.30308567652E+03  0.80925422273E+03  0.00000000000E+00 0. -1.
<mgrwt>
<rscale>  0 0.22936130E+04</rscale>
<asrwt>0</asrwt>
<pdfrwt beam="1">  1        2 0.31882529E+00 0.22936130E+04</pdfrwt>
<pdfrwt beam="2">  1       -2 0.97633942E-01 0.22936130E+04</pdfrwt>
<totfact> 0.48268945E+00</totfact>
</mgrwt>
</event>
<event>
 6    1  0.4630212E-004  0.1664797E+04  0.7818608E-02  0.8781701E-01
         -2   -1    0    0    0  501 -0.00000000000E+00  0.00000000000E+00  0.58322204294E+03  0.58322204294E+03  0.00000000000E+00 0. -1.
          2   -1    0    0  501    0  0.00000000000E+00 -0.00000000000E+00 -0.11880330190E+04  0.11880330190E+04  0.00000000000E+00 0.  1.
         23    2    1    2    0    0 -0.13184025442E+02  0.61388648630E+03  0.29077365654E+03  0.68539030483E+03  0.90443982825E+02 0.  0.
         11    1    3    3    0    0 -0.41027269281E+01  0.31479475583E+03  0.19883712530E+03  0.37235570771E+03  0.00000000000E+00 0. -1.
        -11    1    3    3    0    0 -0.90812985143E+01  0.29909173047E+03  0.91936531240E+02  0.31303459712E+03  0.00000000000E+00 0.  1.
         22    1    1    2    0    0  0.13184025442E+02 -0.61388648630E+03 -0.89558463264E+03  0.10858647571E+04  0.00000000000E+00 0.  1.
<mgrwt>
<rscale>  0 0.16647967E+04</rscale>
<asrwt>0</asrwt>
<pdfrwt beam="1">  1        2 0.18277431E+00 0.16647967E+04</pdfrwt>
<pdfrwt beam="2">  1       -2 0.89726469E-01 0.16647967E+04</pdfrwt>
<totfact> 0.19557627E+01</totfact>
</mgrwt>
</event>
<event>
 6    1  0.4630212E-004  0.3293553E+04  0.7818608E-02  0.8164538E-01
         -1   -1    0    0    0  501 -0.00000000000E+00  0.00000000000E+00  0.61543152314E+03  0.61543152314E+03  0.00000000000E+00 0. -1.
          1   -1    0    0  501    0  0.00000000000E+00 -0.00000000000E+00 -0.44064577682E+04  0.44064577682E+04  0.00000000000E+00 0.  1.
         23    2    1    2    0    0  0.10166813835E+03 -0.13098182730E+04 -0.38621468154E+03  0.13724095885E+04  0.91574995433E+02 0.  0.
         11    1    3    3    0    0  0.51924243265E+02 -0.10931933578E+04 -0.33112884291E+03  0.11434221247E+04  0.00000000000E+00 0. -1.
        -11    1    3    3    0    0  0.49743895085E+02 -0.21662491516E+03 -0.55085838626E+02  0.22898746381E+03  0.00000000000E+00 0.  1.
         22    1    1    2    0    0 -0.10166813835E+03  0.13098182730E+04 -0.34048115636E+04  0.36494797029E+04  0.00000000000E+00 0.  1.
<mgrwt>
<rscale>  0 0.32935531E+04</rscale>
<asrwt>0</asrwt>
<pdfrwt beam="1">  1        1 0.67791659E+00 0.32935531E+04</pdfrwt>
<pdfrwt beam="2">  1       -1 0.94681771E-01 0.32935531E+04</pdfrwt>
<totfact> 0.35772169E-02</totfact>
</mgrwt>
</event>
<event>
 6    1  0.4630212E-004  0.1789765E+04  0.7818608E-02  0.8711761E-01
          2   -1    0    0  501    0  0.00000000000E+00  0.00000000000E+00  0.15385307830E+04  0.15385307830E+04  0.00000000000E+00 0.  1.
         -2   -1    0    0    0  501 -0.00000000000E+00 -0.00000000000E+00 -0.52050603287E+03  0.52050603287E+03  0.00000000000E+00 0. -1.
         23    2    1    2    0    0 -0.29941932127E+03 -0.54366069293E+03 -0.22768085895E+03  0.66727485940E+03  0.90544383955E+02 0.  0.
         11    1    3    3    0    0 -0.67728724817E+02 -0.14435709187E+03 -0.10027059782E+03  0.18836226513E+03  0.00000000000E+00 0. -1.
        -11    1    3    3    0    0 -0.23169059645E+03 -0.39930360107E+03 -0.12741026113E+03  0.47891259427E+03  0.00000000000E+00 0.  1.
         22    1    1    2    0    0  0.29941932127E+03  0.54366069293E+03  0.12457056090E+04  0.13917619564E+04  0.00000000000E+00 0.  1.
<mgrwt>
<rscale>  0 0.17897648E+04</rscale>
<asrwt>0</asrwt>
<pdfrwt beam="1">  1        2 0.23669704E+00 0.17897648E+04</pdfrwt>
<pdfrwt beam="2">  1       -2 0.80077851E-01 0.17897648E+04</pdfrwt>
<totfact> 0.15734590E+01</totfact>
</mgrwt>
</event>
<event>
 6    1  0.4630212E-004  0.1040260E+04  0.7818608E-02  0.9265458E-01
          2   -1    0    0  501    0  0.00000000000E+00  0.00000000000E+00  0.21833062487E+04  0.21833062487E+04  0.00000000000E+00 0.  1.
         -2   -1    0    0    0  501 -0.00000000000E+00 -0.00000000000E+00 -0.12391088682E+03  0.12391088682E+03  0.00000000000E+00 0. -1.
         23    2    1    2    0    0  0.28885814495E+03 -0.29938892317E+03  0.17152758156E+04  0.17673180548E+04  0.90383781879E+02 0.  0.
         13    1    3    3    0    0  0.10231155237E+03 -0.49127945550E+02  0.44132720869E+03  0.45568729839E+03  0.00000000000E+00 0. -1.
        -13    1    3    3    0    0  0.18654659258E+03 -0.25026097762E+03  0.12739486070E+04  0.13116307565E+04  0.00000000000E+00 0.  1.
         22    1    1    2    0    0 -0.28885814495E+03  0.29938892317E+03  0.34411954624E+03  0.53989908069E+03  0.00000000000E+00 0. -1.
<mgrwt>
<rscale>  0 0.10402604E+04</rscale>
<asrwt>0</asrwt>
<pdfrwt beam="1">  1        2 0.33589324E+00 0.10402604E+04</pdfrwt>
<pdfrwt beam="2">  1       -2 0.19063215E-01 0.10402604E+04</pdfrwt>
<totfact> 0.12288364E+02</totfact>
</mgrwt>
</event>
<event>
 6    1  0.4630212E-004  0.2252986E+04  0.7818608E-02  0.8496692E-01
         -2   -1    0    0    0  501 -0.00000000000E+00  0.00000000000E+00  0.10506462648E+04  0.10506462648E+04  0.00000000000E+00 0. -1.
          2   -1    0    0  501    0  0.00000000000E+00 -0.00000000000E+00 -0.12078146985E+04  0.12078146985E+04  0.00000000000E+00 0.  1.
         23    2    1    2    0    0  0.13512573706E+03 -0.43015234933E+03 -0.11116605472E+04  0.12028354600E+04  0.87942954542E+02 0.  0.
         11    1    3    3    0    0  0.10728727223E+03 -0.41043159548E+03 -0.10054769601E+04  0.10913059015E+04  0.00000000000E+00 0. -1.
        -11    1    3    3    0    0  0.27838464833E+02 -0.19720753849E+02 -0.10618358715E+03  0.11152955858E+03  0.00000000000E+00 0.  1.
         22    1    1    2    0    0 -0.13512573706E+03  0.43015234933E+03  0.95449211352E+03  0.10556255033E+04  0.00000000000E+00 0. -1.
<mgrwt>
<rscale>  0 0.22529856E+04</rscale>
<asrwt>0</asrwt>
<pdfrwt beam="1">  1        2 0.18581765E+00 0.22529856E+04</pdfrwt>
<pdfrwt beam="2">  1       -2 0.16163789E+00 0.22529856E+04</pdfrwt>
<totfact> 0.41780362E+00</totfact>
</mgrwt>
</event>
<event>
 6    1  0.4630212E-004  0.2237765E+04  0.7818608E-02  0.8502872E-01
          2   -1    0    0  501    0  0.00000000000E+00  0.00000000000E+00  0.27643845324E+04  0.27643845324E+04  0.00000000000E+00 0.  1.
         -2   -1    0    0    0  501 -0.00000000000E+00 -0.00000000000E+00 -0.45286663901E+03  0.45286663901E+03  0.00000000000E+00 0. -1.
         23    2    1    2    0    0 -0.14563865003E+03 -0.87823945693E+03  0.18762320736E+03  0.91433046122E+03  0.91008594578E+02 0.  0.
         11    1    3    3    0    0 -0.82135252753E+01 -0.18868254956E+03  0.10009299282E+02  0.18912628738E+03  0.00000000000E+00 0. -1.
        -11    1    3    3    0    0 -0.13742512475E+03 -0.68955690737E+03  0.17761390808E+03  0.72520417384E+03  0.00000000000E+00 0.  1.
         22    1    1    2    0    0  0.14563865003E+03  0.87823945693E+03  0.21238946860E+04  0.23029207102E+04  0.00000000000E+00 0. -1.
<mgrwt>
<rscale>  0 0.22377645E+04</rscale>
<asrwt>0</asrwt>
<pdfrwt beam="1">  1        2 0.42528992E+00 0.22377645E+04</pdfrwt>
<pdfrwt beam="2">  1       -2 0.69671792E-01 0.22377645E+04</pdfrwt>
<totfact> 0.41602030E+00</totfact>
</mgrwt>
</event>
<event>
 6    1  0.4630212E-004  0.1802991E+04  0.7818608E-02  0.8704711E-01
          2   -1    0    0  501    0  0.00000000000E+00  0.00000000000E+00  0.13035147544E+04  0.13035147544E+04  0.00000000000E+00 0.  1.
         -2   -1    0    0    0  501 -0.00000000000E+00 -0.00000000000E+00 -0.62346354526E+03  0.62346354526E+03  0.00000000000E+00 0. -1.
         23    2    1    2    0    0  0.43303068139E+03  0.39875372023E+03  0.10673252327E+04  0.12223498374E+04  0.91847004110E+02 0.  0.
         11    1    3    3    0    0  0.33106176218E+03  0.26321807328E+03  0.70189862444E+03  0.81947991035E+03  0.00000000000E+00 0. -1.
        -11    1    3    3    0    0  0.10196891921E+03  0.13553564695E+03  0.36542660830E+03  0.40286992706E+03  0.00000000000E+00 0.  1.
         22    1    1    2    0    0 -0.43303068139E+03 -0.39875372023E+03 -0.38727402361E+03  0.70462846223E+03  0.00000000000E+00 0. -1.
<mgrwt>
<rscale>  0 0.18029908E+04</rscale>
<asrwt>0</asrwt>
<pdfrwt beam="1">  1        2 0.20054073E+00 0.18029908E+04</pdfrwt>
<pdfrwt beam="2">  1       -2 0.95917469E-01 0.18029908E+04</pdfrwt>
<totfact> 0.14153563E+01</totfact>
</mgrwt>
</event>
<event>
 6    1  0.4630212E-004  0.3053781E+04  0.7818608E-02  0.8228538E-01
          2   -1    0    0  501    0  0.00000000000E+00  0.00000000000E+00  0.45363302805E+04  0.45363302805E+04  0.00000000000E+00 0.  1.
         -2   -1    0    0    0  501 -0.00000000000E+00 -0.00000000000E+00 -0.51393859548E+03  0.51393859548E+03  0.00000000000E+00 0. -1.
         23    2    1    2    0    0 -0.90045399870E+03  0.24105619936E+03  0.40101449369E+04  0.41180266983E+04  0.89196288352E+02 0.  0.
         13    1    3    3    0    0 -0.19431005157E+03  0.68215050143E+02  0.10412057616E+04  0.10613760536E+04  0.00000000000E+00 0. -1.
        -13    1    3    3    0    0 -0.70614394713E+03  0.17284114921E+03  0.29689391753E+04  0.30566506446E+04  0.00000000000E+00 0.  1.
         22    1    1    2    0    0  0.90045399870E+03 -0.24105619936E+03  0.12246748121E+02  0.93224217769E+03  0.00000000000E+00 0. -1.
<mgrwt>
<rscale>  0 0.30537814E+04</rscale>
<asrwt>0</asrwt>
<pdfrwt beam="1">  1        2 0.69789694E+00 0.30537814E+04</pdfrwt>
<pdfrwt beam="2">  1       -2 0.79067479E-01 0.30537814E+04</pdfrwt>
<totfact> 0.13687610E-01</totfact>
</mgrwt>
</event>
<event>
 6    1  0.4630212E-004  0.3140819E+04  0.7818608E-02  0.8204624E-01
          2   -1    0    0  501    0  0.00000000000E+00  0.00000000000E+00  0.31648601193E+04  0.31648601193E+04  0.00000000000E+00 0.  1.
         -2   -1    0    0    0  501 -0.00000000000E+00 -0.00000000000E+00 -0.77923990510E+03  0.77923990510E+03  0.00000000000E+00 0. -1.
         23    2    1    2    0    0 -0.59353391205E+03 -0.56573514260E+03 -0.48555704086E+03  0.95813324857E+03  0.99573720221E+02 0.  0.
         13    1    3    3    0    0 -0.25782715559E+03 -0.21501179134E+03 -0.14842144164E+03  0.36706108063E+03  0.00000000000E+00 0. -1.
        -13    1    3    3    0    0 -0.33570675647E+03 -0.35072335126E+03 -0.33713559922E+03  0.59107216794E+03  0.00000000000E+00 0.  1.
         22    1    1    2    0    0  0.59353391205E+03  0.56573514260E+03  0.28711772550E+04  0.29859667758E+04  0.00000000000E+00 0.  1.
<mgrwt>
<rscale>  0 0.31408186E+04</rscale>
<asrwt>0</asrwt>
<pdfrwt beam="1">  1        2 0.48690155E+00 0.31408186E+04</pdfrwt>
<pdfrwt beam="2">  1       -2 0.11988306E+00 0.31408186E+04</pdfrwt>
<totfact> 0.61512969E-01</totfact>
</mgrwt>
</event>
<event>
 6    1  0.4630212E-004  0.2056283E+04  0.7818608E-02  0.8580749E-01
          1   -1    0    0  501    0  0.00000000000E+00  0.00000000000E+00  0.44006388593E+03  0.44006388593E+03  0.00000000000E+00 0.  1.
         -1   -1    0    0    0  501 -0.00000000000E+00 -0.00000000000E+00 -0.24020938116E+04  0.24020938116E+04  0.00000000000E+00 0. -1.
         23    2    1    2    0    0 -0.17121657970E+03  0.45255196461E+03 -0.22336990719E+04  0.22872500270E+04  0.89346204197E+02 0.  0.
         11    1    3    3    0    0 -0.17894004950E+03  0.39111833765E+03 -0.19472044886E+04  0.19941410221E+04  0.00000000000E+00 0. -1.
        -11    1    3    3    0    0  0.77234697987E+01  0.61433626955E+02 -0.28649458330E+03  0.29310900493E+03  0.00000000000E+00 0.  1.
         22    1    1    2    0    0  0.17121657970E+03 -0.45255196461E+03  0.27166914623E+03  0.55490767056E+03  0.00000000000E+00 0.  1.
<mgrwt>
<rscale>  0 0.20562828E+04</rscale>
<asrwt>0</asrwt>
<pdfrwt beam="1">  1        1 0.67702137E-01 0.20562828E+04</pdfrwt>
<pdfrwt beam="2">  1       -1 0.36955289E+00 0.20562828E+04</pdfrwt>
<totfact> 0.56142339E-01</totfact>
</mgrwt>
</event>
<event>
 6    1  0.4630212E-004  0.4628975E+03  0.7818608E-02  0.1023944E+00
          2   -1    0    0  501    0  0.00000000000E+00  0.00000000000E+00  0.42461007602E+03  0.42461007602E+03  0.00000000000E+00 0.  1.
         -2   -1    0    0    0  501 -0.00000000000E+00 -0.00000000000E+00 -0.12615932563E+03  0.12615932563E+03  0.00000000000E+00 0. -1.
         23    2    1    2    0    0 -0.12638057256E+03  0.79474956195E+02  0.35057686325E+03  0.39263828698E+03  0.94722592759E+02 0.  0.
         11    1    3    3    0    0 -0.15416625734E+02  0.18598640756E+02  0.50762290364E+01  0.24685013434E+02  0.00000000000E+00 0. -1.
        -11    1    3    3    0    0 -0.11096394682E+03  0.60876315439E+02  0.34550063421E+03  0.36795327355E+03  0.00000000000E+00 0.  1.
         22    1    1    2    0    0  0.12638057256E+03 -0.79474956195E+02 -0.52126112865E+02  0.15813111466E+03  0.00000000000E+00 0. -1.
<mgrwt>
<rscale>  0 0.46289749E+03</rscale>
<asrwt>0</asrwt>
<pdfrwt beam="1">  1        2 0.65324626E-01 0.46289749E+03</pdfrwt>
<pdfrwt beam="2">  1       -2 0.19409127E-01 0.46289749E+03</pdfrwt>
<totfact> 0.16647635E+03</totfact>
</mgrwt>
</event>
<event>
 6    1  0.4630212E-004  0.1323726E+04  0.7818608E-02  0.9010959E-01
         -2   -1    0    0    0  501 -0.00000000000E+00  0.00000000000E+00  0.41306003281E+03  0.41306003281E+03  0.00000000000E+00 0. -1.
          2   -1    0    0  501    0  0.00000000000E+00 -0.00000000000E+00 -0.10605307707E+04  0.10605307707E+04  0.00000000000E+00 0.  1.
         23    2    1    2    0    0 -0.22401719365E+03 -0.31343560861E+03  0.26965480380E+03  0.47883211769E+03  0.90226935695E+02 0.  0.
         13    1    3    3    0    0 -0.14284471746E+03 -0.24398772905E+03  0.15622998289E+03  0.32302079312E+03  0.00000000000E+00 0. -1.
        -13    1    3    3    0    0 -0.81172476192E+02 -0.69447879559E+02  0.11342482091E+03  0.15581132457E+03  0.00000000000E+00 0.  1.
         22    1    1    2    0    0  0.22401719365E+03  0.31343560861E+03 -0.91712554166E+03  0.99475868579E+03  0.00000000000E+00 0.  1.
<mgrwt>
<rscale>  0 0.13237264E+04</rscale>
<asrwt>0</asrwt>
<pdfrwt beam="1">  1        2 0.16315858E+00 0.13237264E+04</pdfrwt>
<pdfrwt beam="2">  1       -2 0.63547697E-01 0.13237264E+04</pdfrwt>
<totfact> 0.51707995E+01</totfact>
</mgrwt>
</event>
<event>
 6    1  0.4630212E-004  0.4806446E+04  0.7818608E-02  0.7859079E-01
          2   -1    0    0  501    0  0.00000000000E+00  0.00000000000E+00  0.29347000025E+04  0.29347000025E+04  0.00000000000E+00 0.  1.
         -2   -1    0    0    0  501 -0.00000000000E+00 -0.00000000000E+00 -0.19679969116E+04  0.19679969116E+04  0.00000000000E+00 0. -1.
         23    2    1    2    0    0  0.46683894561E+03 -0.22870479371E+04  0.10630465052E+04  0.25665015196E+04  0.91297919849E+02 0.  0.
         11    1    3    3    0    0  0.11369276043E+03 -0.41647060191E+03  0.22042141023E+03  0.48472611248E+03  0.00000000000E+00 0.  1.
        -11    1    3    3    0    0  0.35314618517E+03 -0.18705773352E+04  0.84262509493E+03  0.20817754071E+04  0.00000000000E+00 0. -1.
         22    1    1    2    0    0 -0.46683894561E+03  0.22870479371E+04 -0.96343414202E+02  0.23361953945E+04  0.00000000000E+00 0. -1.
<mgrwt>
<rscale>  0 0.48064459E+04</rscale>
<asrwt>0</asrwt>
<pdfrwt beam="1">  1        2 0.45149231E+00 0.48064459E+04</pdfrwt>
<pdfrwt beam="2">  1       -2 0.30276876E+00 0.48064459E+04</pdfrwt>
<totfact> 0.43195494E-02</totfact>
</mgrwt>
</event>
<event>
 6    1  0.4630212E-004  0.2151236E+04  0.7818608E-02  0.8539003E-01
         -2   -1    0    0    0  501 -0.00000000000E+00  0.00000000000E+00  0.56562589834E+03  0.56562589834E+03  0.00000000000E+00 0. -1.
          2   -1    0    0  501    0  0.00000000000E+00 -0.00000000000E+00 -0.20454404557E+04  0.20454404557E+04  0.00000000000E+00 0.  1.
         23    2    1    2    0    0 -0.34791610453E+03  0.92123641705E+03 -0.12606456559E+04  0.16022268429E+04  0.90450176599E+02 0.  0.
         13    1    3    3    0    0 -0.77697676889E+02  0.14369831905E+03 -0.16943206203E+03  0.23535793918E+03  0.00000000000E+00 0.  1.
        -13    1    3    3    0    0 -0.27021842764E+03  0.77753809800E+03 -0.10912135939E+04  0.13668689037E+04  0.00000000000E+00 0. -1.
         22    1    1    2    0    0  0.34791610453E+03 -0.92123641705E+03 -0.21916890146E+03  0.10088395112E+04  0.00000000000E+00 0. -1.
<mgrwt>
<rscale>  0 0.21512360E+04</rscale>
<asrwt>0</asrwt>
<pdfrwt beam="1">  1        2 0.31468315E+00 0.21512360E+04</pdfrwt>
<pdfrwt beam="2">  1       -2 0.87019369E-01 0.21512360E+04</pdfrwt>
<totfact> 0.66045759E+00</totfact>
</mgrwt>
</event>
<event>
 6    1  0.4630212E-004  0.3344195E+04  0.7818608E-02  0.8151740E-01
         -2   -1    0    0    0  501 -0.00000000000E+00  0.00000000000E+00  0.81982275991E+03  0.81982275991E+03  0.00000000000E+00 0. -1.
          2   -1    0    0  501    0  0.00000000000E+00 -0.00000000000E+00 -0.34103830191E+04  0.34103830191E+04  0.00000000000E+00 0.  1.
         23    2    1    2    0    0  0.48822994945E+03 -0.96405441669E+03 -0.29081812581E+04  0.31038610268E+04  0.93089430069E+02 0.  0.
         11    1    3    3    0    0  0.23927896973E+03 -0.54364508288E+03 -0.14996705584E+04  0.16130146264E+04  0.00000000000E+00 0.  1.
        -11    1    3    3    0    0  0.24895097972E+03 -0.42040933381E+03 -0.14085106997E+04  0.14908464004E+04  0.00000000000E+00 0. -1.
         22    1    1    2    0    0 -0.48822994945E+03  0.96405441669E+03  0.31762099890E+03  0.11263447522E+04  0.00000000000E+00 0. -1.
<mgrwt>
<rscale>  0 0.33441947E+04</rscale>
<asrwt>0</asrwt>
<pdfrwt beam="1">  1        2 0.52467432E+00 0.33441947E+04</pdfrwt>
<pdfrwt beam="2">  1       -2 0.12612658E+00 0.33441947E+04</pdfrwt>
<totfact> 0.36542347E-01</totfact>
</mgrwt>
</event>
<event>
 6    1  0.4630212E-004  0.1570982E+04  0.7818608E-02  0.8838576E-01
          2   -1    0    0  501    0  0.00000000000E+00  0.00000000000E+00  0.92966371841E+03  0.92966371841E+03  0.00000000000E+00 0.  1.
         -2   -1    0    0    0  501 -0.00000000000E+00 -0.00000000000E+00 -0.66367627384E+03  0.66367627384E+03  0.00000000000E+00 0. -1.
         23    2    1    2    0    0  0.71211216684E+03  0.84038157301E+02 -0.18540482776E+03  0.74603772413E+03  0.89616882533E+02 0.  0.
         11    1    3    3    0    0  0.52018445548E+03  0.98432471842E+02 -0.15091271674E+03  0.55050473868E+03  0.00000000000E+00 0.  1.
        -11    1    3    3    0    0  0.19192771135E+03 -0.14394314540E+02 -0.34492111019E+02  0.19553298545E+03  0.00000000000E+00 0. -1.
         22    1    1    2    0    0 -0.71211216684E+03 -0.84038157301E+02  0.45139227233E+03  0.84730226812E+03  0.00000000000E+00 0.  1.
<mgrwt>
<rscale>  0 0.15709815E+04</rscale>
<asrwt>0</asrwt>
<pdfrwt beam="1">  1        2 0.14302519E+00 0.15709815E+04</pdfrwt>
<pdfrwt beam="2">  1       -2 0.10210404E+00 0.15709815E+04</pdfrwt>
<totfact> 0.21159972E+01</totfact>
</mgrwt>
</event>
<event>
 6    1  0.4630212E-004  0.1439371E+04  0.7818608E-02  0.8925802E-01
          1   -1    0    0  501    0  0.00000000000E+00  0.00000000000E+00  0.59671522674E+03  0.59671522674E+03  0.00000000000E+00 0.  1.
         -1   -1    0    0    0  501 -0.00000000000E+00 -0.00000000000E+00 -0.86799779045E+03  0.86799779045E+03  0.00000000000E+00 0. -1.
         23    2    1    2    0    0 -0.38501797143E+02 -0.70625468024E+03 -0.17458136967E+02  0.71324452060E+03  0.90193668729E+02 0.  0.
         13    1    3    3    0    0 -0.22192954283E+02 -0.27635915338E+03  0.36609681590E+02  0.27965546242E+03  0.00000000000E+00 0.  1.
        -13    1    3    3    0    0 -0.16308842860E+02 -0.42989552686E+03 -0.54067818557E+02  0.43358905818E+03  0.00000000000E+00 0. -1.
         22    1    1    2    0    0  0.38501797143E+02  0.70625468024E+03 -0.25382442674E+03  0.75146849658E+03  0.00000000000E+00 0. -1.
<mgrwt>
<rscale>  0 0.14393714E+04</rscale>
<asrwt>0</asrwt>
<pdfrwt beam="1">  1        1 0.91802342E-01 0.14393714E+04</pdfrwt>
<pdfrwt beam="2">  1       -1 0.13353812E+00 0.14393714E+04</pdfrwt>
<totfact> 0.15898537E+01</totfact>
</mgrwt>
</event>
<event>
 6    1  0.4630212E-004  0.2166608E+04  0.7818608E-02  0.8532457E-01
         -2   -1    0    0    0  501 -0.00000000000E+00  0.00000000000E+00  0.15215623035E+04  0.15215623035E+04  0.00000000000E+00 0. -1.
          2   -1    0    0  501    0  0.00000000000E+00 -0.00000000000E+00 -0.77127786172E+03  0.77127786172E+03  0.00000000000E+00 0.  1.
         23    2    1    2    0    0 -0.27735779735E+03 -0.50836061375E+03  0.13409346399E+04  0.14656609114E+04  0.12123670029E+03 0.  0.
         13    1    3    3    0    0 -0.17205589147E+03 -0.21317196453E+03  0.71409448359E+03  0.76483753029E+03  0.00000000000E+00 0. -1.
        -13    1    3    3    0    0 -0.10530190589E+03 -0.29518864922E+03  0.62684015630E+03  0.70082338115E+03  0.00000000000E+00 0.  1.
         22    1    1    2    0    0  0.27735779735E+03  0.50836061375E+03 -0.59065019811E+03  0.82717925379E+03  0.00000000000E+00 0.  1.
<mgrwt>
<rscale>  0 0.21666078E+04</rscale>
<asrwt>0</asrwt>
<pdfrwt beam="1">  1        2 0.11865813E+00 0.21666078E+04</pdfrwt>
<pdfrwt beam="2">  1       -2 0.23408651E+00 0.21666078E+04</pdfrwt>
<totfact> 0.26704820E+00</totfact>
</mgrwt>
</event>
<event>
 6    1  0.4630212E-004  0.1617082E+04  0.7818608E-02  0.8810122E-01
         -2   -1    0    0    0  501 -0.00000000000E+00  0.00000000000E+00  0.15572147615E+04  0.15572147615E+04  0.00000000000E+00 0. -1.
          2   -1    0    0  501    0  0.00000000000E+00 -0.00000000000E+00 -0.41981269970E+03  0.41981269970E+03  0.00000000000E+00 0.  1.
         23    2    1    2    0    0 -0.97296051764E+02 -0.42130889228E+03  0.14019984849E+04  0.14700965275E+04  0.92824264237E+02 0.  0.
         13    1    3    3    0    0  0.62012975328E+01 -0.15473735311E+03  0.55026265988E+03  0.57163895896E+03  0.00000000000E+00 0. -1.
        -13    1    3    3    0    0 -0.10349734930E+03 -0.26657153917E+03  0.85173582501E+03  0.89845756851E+03  0.00000000000E+00 0.  1.
         22    1    1    2    0    0  0.97296051764E+02  0.42130889228E+03 -0.26459642313E+03  0.50693093369E+03  0.00000000000E+00 0.  1.
<mgrwt>
<rscale>  0 0.16170820E+04</rscale>
<asrwt>0</asrwt>
<pdfrwt beam="1">  1        2 0.64586570E-01 0.16170820E+04</pdfrwt>
<pdfrwt beam="2">  1       -2 0.23957150E+00 0.16170820E+04</pdfrwt>
<totfact> 0.53724629E+00</totfact>
</mgrwt>
</event>
<event>
 6    1  0.4630212E-004  0.3722193E+04  0.7818608E-02  0.8063061E-01
         -1   -1    0    0    0  501 -0.00000000000E+00  0.00000000000E+00  0.14553568846E+04  0.14553568846E+04  0.00000000000E+00 0.  1.
          1   -1    0    0  501    0  0.00000000000E+00 -0.00000000000E+00 -0.23799528649E+04  0.23799528649E+04  0.00000000000E+00 0. -1.
         23    2    1    2    0    0 -0.76799961864E+03  0.92446623193E+03 -0.19254424683E+04  0.22712909130E+04  0.83501405278E+02 0.  0.
         13    1    3    3    0    0 -0.62455551826E+03  0.79515219542E+03 -0.15915871031E+04  0.18855996701E+04  0.00000000000E+00 0. -1.
        -13    1    3    3    0    0 -0.14344410038E+03  0.12931403651E+03 -0.33385536523E+03  0.38569124292E+03  0.00000000000E+00 0.  1.
         22    1    1    2    0    0  0.76799961864E+03 -0.92446623193E+03  0.10008464880E+04  0.15640188364E+04  0.00000000000E+00 0.  1.
<mgrwt>
<rscale>  0 0.37221933E+04</rscale>
<asrwt>0</asrwt>
<pdfrwt beam="1">  1        1 0.36614659E+00 0.37221933E+04</pdfrwt>
<pdfrwt beam="2">  1       -1 0.22390106E+00 0.37221933E+04</pdfrwt>
<totfact> 0.13611621E-01</totfact>
</mgrwt>
</event>
<event>
 6    1  0.4630212E-004  0.1357797E+04  0.7818608E-02  0.8984947E-01
         -2   -1    0    0    0  501 -0.00000000000E+00  0.00000000000E+00  0.15077806656E+03  0.15077806656E+03  0.00000000000E+00 0. -1.
          2   -1    0    0  501    0  0.00000000000E+00 -0.00000000000E+00 -0.30568296993E+04  0.30568296993E+04  0.00000000000E+00 0.  1.
         23    2    1    2    0    0  0.46194948865E+03  0.12053892759E+03 -0.25898380466E+04  0.26349665211E+04  0.88659441218E+02 0.  0.
         11    1    3    3    0    0  0.38796260478E+03  0.93341750809E+02 -0.19593596802E+04  0.19995794611E+04  0.00000000000E+00 0. -1.
        -11    1    3    3    0    0  0.73986883865E+02  0.27197176782E+02 -0.63047836645E+03  0.63538705996E+03  0.00000000000E+00 0.  1.
         22    1    1    2    0    0 -0.46194948865E+03 -0.12053892759E+03 -0.31621358609E+03  0.57264124472E+03  0.00000000000E+00 0. -1.
<mgrwt>
<rscale>  0 0.13577966E+04</rscale>
<asrwt>0</asrwt>
<pdfrwt beam="1">  1        2 0.47028147E+00 0.13577966E+04</pdfrwt>
<pdfrwt beam="2">  1       -2 0.23196627E-01 0.13577966E+04</pdfrwt>
<totfact> 0.25985319E+01</totfact>
</mgrwt>
</event>
<event>
 6    1  0.4630212E-004  0.3972685E+04  0.7818608E-02  0.8010080E-01
          2   -1    0    0  501    0  0.00000000000E+00  0.00000000000E+00  0.19174662095E+04  0.19174662095E+04  0.00000000000E+00 0.  1.
         -2   -1    0    0    0  501 -0.00000000000E+00 -0.00000000000E+00 -0.20576925102E+04  0.20576925102E+04  0.00000000000E+00 0. -1.
         23    2    1    2    0    0  0.78858700391E+03  0.19454929570E+03  0.17425289377E+04  0.19246743431E+04  0.90803836975E+02 0.  0.
         11    1    3    3    0    0  0.21896626173E+03  0.88932996132E+02  0.56138725560E+03  0.60910668386E+03  0.00000000000E+00 0. -1.
        -11    1    3    3    0    0  0.56962074218E+03  0.10561629956E+03  0.11811416821E+04  0.13155676592E+04  0.00000000000E+00 0.  1.
         22    1    1    2    0    0 -0.78858700391E+03 -0.19454929570E+03 -0.18827552384E+04  0.20504843767E+04  0.00000000000E+00 0. -1.
<mgrwt>
<rscale>  0 0.39726847E+04</rscale>
<asrwt>0</asrwt>
<pdfrwt beam="1">  1        2 0.29499480E+00 0.39726847E+04</pdfrwt>
<pdfrwt beam="2">  1       -2 0.31656808E+00 0.39726847E+04</pdfrwt>
<totfact> 0.14759451E-01</totfact>
</mgrwt>
</event>
<event>
 6    1  0.4630212E-004  0.1656404E+04  0.7818608E-02  0.8786627E-01
         -2   -1    0    0    0  501 -0.00000000000E+00  0.00000000000E+00  0.19202584082E+03  0.19202584082E+03  0.00000000000E+00 0.  1.
          2   -1    0    0  501    0  0.00000000000E+00 -0.00000000000E+00 -0.35720127991E+04  0.35720127991E+04  0.00000000000E+00 0. -1.
         23    2    1    2    0    0 -0.20826921544E+03  0.75042201138E+03 -0.10669379959E+04  0.13234025008E+04  0.80797467255E+02 0.  0.
         13    1    3    3    0    0 -0.10872584320E+03  0.50479668682E+03 -0.66477985967E+03  0.84176794060E+03  0.00000000000E+00 0.  1.
        -13    1    3    3    0    0 -0.99543372243E+02  0.24562532457E+03 -0.40215813624E+03  0.48163456019E+03  0.00000000000E+00 0. -1.
         22    1    1    2    0    0  0.20826921544E+03 -0.75042201138E+03 -0.23130489623E+04  0.24406361391E+04  0.00000000000E+00 0. -1.
<mgrwt>
<rscale>  0 0.16564043E+04</rscale>
<asrwt>0</asrwt>
<pdfrwt beam="1">  1        2 0.54954043E+00 0.16564043E+04</pdfrwt>
<pdfrwt beam="2">  1       -2 0.29542437E-01 0.16564043E+04</pdfrwt>
<totfact> 0.73708639E+00</totfact>
</mgrwt>
</event>
<event>
 6    1  0.4630212E-004  0.1920006E+04  0.7818608E-02  0.8644962E-01
         -2   -1    0    0    0  501 -0.00000000000E+00  0.00000000000E+00  0.15519274629E+04  0.15519274629E+04  0.00000000000E+00 0. -1.
          2   -1    0    0  501    0  0.00000000000E+00 -0.00000000000E+00 -0.59384593409E+03  0.59384593409E+03  0.00000000000E+00 0.  1.
         23    2    1    2    0    0 -0.46034916463E+03 -0.82074994741E+03  0.67973825710E+03  0.11644341048E+04  0.91163900019E+02 0.  0.
         11    1    3    3    0    0 -0.27733643799E+03 -0.57944248839E+03  0.45095370126E+03  0.78487472750E+03  0.00000000000E+00 0. -1.
        -11    1    3    3    0    0 -0.18301272665E+03 -0.24130745901E+03  0.22878455584E+03  0.37955937728E+03  0.00000000000E+00 0.  1.
         22    1    1    2    0    0  0.46034916463E+03  0.82074994741E+03  0.27834327173E+03  0.98133929223E+03  0.00000000000E+00 0.  1.
<mgrwt>
<rscale>  0 0.19200061E+04</rscale>
<asrwt>0</asrwt>
<pdfrwt beam="1">  1        2 0.91360914E-01 0.19200061E+04</pdfrwt>
<pdfrwt beam="2">  1       -2 0.23875807E+00 0.19200061E+04</pdfrwt>
<totfact> 0.35393526E+00</totfact>
</mgrwt>
</event>
<event>
 6    1  0.4630212E-004  0.1581233E+04  0.7818608E-02  0.8832161E-01
         -2   -1    0    0    0  501 -0.00000000000E+00  0.00000000000E+00  0.45379609078E+03  0.45379609078E+03  0.00000000000E+00 0. -1.
          2   -1    0    0  501    0  0.00000000000E+00 -0.00000000000E+00 -0.13774347855E+04  0.13774347855E+04  0.00000000000E+00 0.  1.
         23    2    1    2    0    0 -0.11608475084E+03  0.77651990346E+03 -0.53966712212E+03  0.95722115187E+03  0.92589961900E+02 0.  0.
         11    1    3    3    0    0 -0.44173379553E+02  0.52274414365E+03 -0.39240451712E+03  0.65512901954E+03  0.00000000000E+00 0. -1.
        -11    1    3    3    0    0 -0.71911371284E+02  0.25377575980E+03 -0.14726260499E+03  0.30209213233E+03  0.00000000000E+00 0.  1.
         22    1    1    2    0    0  0.11608475084E+03 -0.77651990346E+03 -0.38397157263E+03  0.87400972445E+03  0.00000000000E+00 0. -1.
<mgrwt>
<rscale>  0 0.15812331E+04</rscale>
<asrwt>0</asrwt>
<pdfrwt beam="1">  1        2 0.21191304E+00 0.15812331E+04</pdfrwt>
<pdfrwt beam="2">  1       -2 0.69814783E-01 0.15812331E+04</pdfrwt>
<totfact> 0.26768189E+01</totfact>
</mgrwt>
</event>
<event>
 6    1  0.5013337E-004  0.3109678E+04  0.7818608E-02  0.8213087E-01
          2   -1    0    0  501    0  0.00000000000E+00  0.00000000000E+00  0.23250097714E+04  0.23250097714E+04  0.00000000000E+00 0.  1.
         -2   -1    0    0    0  501 -0.00000000000E+00 -0.00000000000E+00 -0.10397911974E+04  0.10397911974E+04  0.00000000000E+00 0. -1.
         23    2    1    2    0    0 -0.41545318560E+02 -0.14973243668E+04  0.10887406840E+04  0.18540694129E+04  0.92254201976E+02 0.  0.
         13    1    3    3    0    0  0.12535476987E+01 -0.74675611370E+03  0.49243720278E+03  0.89450582079E+03  0.00000000000E+00 0.  1.
        -13    1    3    3    0    0 -0.42798866259E+02 -0.75056825308E+03  0.59630348127E+03  0.95956359208E+03  0.00000000000E+00 0. -1.
         22    1    1    2    0    0  0.41545318560E+02  0.14973243668E+04  0.19647789003E+03  0.15107315559E+04  0.00000000000E+00 0. -1.
<mgrwt>
<rscale>  0 0.31096782E+04</rscale>
<asrwt>0</asrwt>
<pdfrwt beam="1">  1        2 0.35769381E+00 0.31096782E+04</pdfrwt>
<pdfrwt beam="2">  1       -2 0.15996788E+00 0.31096782E+04</pdfrwt>
<totfact> 0.93802797E-01</totfact>
</mgrwt>
</event>
<event>
 6    1  0.4630212E-004  0.5713672E+03  0.7818608E-02  0.9966658E-01
          2   -1    0    0  501    0  0.00000000000E+00  0.00000000000E+00  0.25989170257E+03  0.25989170257E+03  0.00000000000E+00 0.  1.
         -2   -1    0    0    0  501 -0.00000000000E+00 -0.00000000000E+00 -0.31403509502E+03  0.31403509502E+03  0.00000000000E+00 0. -1.
         23    2    1    2    0    0  0.20997424938E+03 -0.88327810530E+02 -0.18895224392E+03  0.30922996355E+03  0.89605983943E+02 0.  0.
         13    1    3    3    0    0  0.16320797961E+03 -0.75490463012E+02 -0.94700655748E+02  0.20323353270E+03  0.00000000000E+00 0.  1.
        -13    1    3    3    0    0  0.46766269762E+02 -0.12837347518E+02 -0.94251588172E+02  0.10599643084E+03  0.00000000000E+00 0. -1.
         22    1    1    2    0    0 -0.20997424938E+03  0.88327810530E+02  0.13480885147E+03  0.26469683404E+03  0.00000000000E+00 0.  1.
<mgrwt>
<rscale>  0 0.57136719E+03</rscale>
<asrwt>0</asrwt>
<pdfrwt beam="1">  1        2 0.39983339E-01 0.57136719E+03</pdfrwt>
<pdfrwt beam="2">  1       -2 0.48313091E-01 0.57136719E+03</pdfrwt>
<totfact> 0.52713273E+02</totfact>
</mgrwt>
</event>
<event>
 6    1  0.4630212E-004  0.6970466E+03  0.7818608E-02  0.9722296E-01
          2   -1    0    0  501    0  0.00000000000E+00  0.00000000000E+00  0.49411349149E+03  0.49411349149E+03  0.00000000000E+00 0.  1.
         -2   -1    0    0    0  501 -0.00000000000E+00 -0.00000000000E+00 -0.24583112693E+03  0.24583112693E+03  0.00000000000E+00 0. -1.
         23    2    1    2    0    0  0.29039275819E+02 -0.32549011646E+03  0.16730754232E+02  0.33944088099E+03  0.90294507558E+02 0.  0.
         11    1    3    3    0    0 -0.91176802602E+01 -0.54311383209E+02  0.34549459791E+02  0.65011719030E+02  0.00000000000E+00 0. -1.
        -11    1    3    3    0    0  0.38156956080E+02 -0.27117873325E+03 -0.17818705559E+02  0.27442916196E+03  0.00000000000E+00 0.  1.
         22    1    1    2    0    0 -0.29039275819E+02  0.32549011646E+03  0.23155161032E+03  0.40050373743E+03  0.00000000000E+00 0.  1.
<mgrwt>
<rscale>  0 0.69704656E+03</rscale>
<asrwt>0</asrwt>
<pdfrwt beam="1">  1        2 0.76017460E-01 0.69704656E+03</pdfrwt>
<pdfrwt beam="2">  1       -2 0.37820174E-01 0.69704656E+03</pdfrwt>
<totfact> 0.41504449E+02</totfact>
</mgrwt>
</event>
<event>
 6    1  0.4630212E-004  0.3581616E+04  0.7818608E-02  0.8094716E-01
         -2   -1    0    0    0  501 -0.00000000000E+00  0.00000000000E+00  0.12265106162E+04  0.12265106162E+04  0.00000000000E+00 0. -1.
          2   -1    0    0  501    0  0.00000000000E+00 -0.00000000000E+00 -0.26147291894E+04  0.26147291894E+04  0.00000000000E+00 0.  1.
         23    2    1    2    0    0 -0.16158447038E+04  0.48628375528E+03 -0.13340187632E+04  0.21529378134E+04  0.90050933474E+02 0.  0.
         13    1    3    3    0    0 -0.12921272344E+04  0.35705561756E+03 -0.10329315273E+04  0.16923442451E+04  0.00000000000E+00 0.  1.
        -13    1    3    3    0    0 -0.32371746938E+03  0.12922813772E+03 -0.30108723589E+03  0.46059356831E+03  0.00000000000E+00 0. -1.
         22    1    1    2    0    0  0.16158447038E+04 -0.48628375528E+03 -0.54199810071E+02  0.16883019922E+04  0.00000000000E+00 0. -1.
<mgrwt>
<rscale>  0 0.35816159E+04</rscale>
<asrwt>0</asrwt>
<pdfrwt beam="1">  1        2 0.40226603E+00 0.35816159E+04</pdfrwt>
<pdfrwt beam="2">  1       -2 0.18869394E+00 0.35816159E+04</pdfrwt>
<totfact> 0.38506651E-01</totfact>
</mgrwt>
</event>
<event>
 6    1  0.5560260E-004  0.2463558E+04  0.7818608E-02  0.8416084E-01
         -2   -1    0    0    0  501 -0.00000000000E+00  0.00000000000E+00  0.82809758915E+03  0.82809758915E+03  0.00000000000E+00 0. -1.
          2   -1    0    0  501    0  0.00000000000E+00 -0.00000000000E+00 -0.18322471265E+04  0.18322471265E+04  0.00000000000E+00 0.  1.
         23    2    1    2    0    0 -0.72811538123E+03 -0.45873080113E+03  0.44604330546E+03  0.97403358254E+03  0.95920974173E+02 0.  0.
         11    1    3    3    0    0 -0.51855204947E+03 -0.36074111800E+03  0.36093877873E+03  0.72753500549E+03  0.00000000000E+00 0. -1.
        -11    1    3    3    0    0 -0.20956333176E+03 -0.97989683136E+02  0.85104526726E+02  0.24649857705E+03  0.00000000000E+00 0.  1.
         22    1    1    2    0    0  0.72811538123E+03  0.45873080113E+03 -0.14501928428E+04  0.16863111331E+04  0.00000000000E+00 0.  1.
<mgrwt>
<rscale>  0 0.24635579E+04</rscale>
<asrwt>0</asrwt>
<pdfrwt beam="1">  1        2 0.28188417E+00 0.24635579E+04</pdfrwt>
<pdfrwt beam="2">  1       -2 0.12739963E+00 0.24635579E+04</pdfrwt>
<totfact> 0.33859093E+00</totfact>
</mgrwt>
</event>
<event>
 6    1  0.4630212E-004  0.4737069E+04  0.7818608E-02  0.7870398E-01
          2   -1    0    0  501    0  0.00000000000E+00  0.00000000000E+00  0.31811921608E+04  0.31811921608E+04  0.00000000000E+00 0.  1.
         -2   -1    0    0    0  501 -0.00000000000E+00 -0.00000000000E+00 -0.17634760756E+04  0.17634760756E+04  0.00000000000E+00 0. -1.
         23    2    1    2    0    0 -0.34276079207E+03  0.12859530384E+04 -0.13350178968E+04  0.18871031017E+04  0.87892856001E+02 0.  0.
         13    1    3    3    0    0 -0.11853194751E+03  0.60230704855E+03 -0.59135209039E+03  0.85236195253E+03  0.00000000000E+00 0. -1.
        -13    1    3    3    0    0 -0.22422884456E+03  0.68364598988E+03 -0.74366580640E+03  0.10347411492E+04  0.00000000000E+00 0.  1.
         22    1    1    2    0    0  0.34276079207E+03 -0.12859530384E+04  0.27527339819E+04  0.30575651347E+04  0.00000000000E+00 0.  1.
<mgrwt>
<rscale>  0 0.47370692E+04</rscale>
<asrwt>0</asrwt>
<pdfrwt beam="1">  1        2 0.48941418E+00 0.47370692E+04</pdfrwt>
<pdfrwt beam="2">  1       -2 0.27130401E+00 0.47370692E+04</pdfrwt>
<totfact> 0.47141645E-02</totfact>
</mgrwt>
</event>
<event>
 6    1  0.4630212E-004  0.1921129E+04  0.7818608E-02  0.8644410E-01
         -2   -1    0    0    0  501 -0.00000000000E+00  0.00000000000E+00  0.79528873933E+03  0.79528873933E+03  0.00000000000E+00 0. -1.
          2   -1    0    0  501    0  0.00000000000E+00 -0.00000000000E+00 -0.11601882273E+04  0.11601882273E+04  0.00000000000E+00 0.  1.
         23    2    1    2    0    0 -0.45500719341E+03 -0.55285865903E+03  0.46555569277E+03  0.85896428993E+03  0.91614984508E+02 0.  0.
         11    1    3    3    0    0 -0.17406559703E+03 -0.20384262992E+03  0.22766728427E+03  0.35168599940E+03  0.00000000000E+00 0. -1.
        -11    1    3    3    0    0 -0.28094159638E+03 -0.34901602911E+03  0.23788840850E+03  0.50727829054E+03  0.00000000000E+00 0.  1.
         22    1    1    2    0    0  0.45500719341E+03  0.55285865903E+03 -0.83045518072E+03  0.10965126767E+04  0.00000000000E+00 0.  1.
<mgrwt>
<rscale>  0 0.19211295E+04</rscale>
<asrwt>0</asrwt>
<pdfrwt beam="1">  1        2 0.17849050E+00 0.19211295E+04</pdfrwt>
<pdfrwt beam="2">  1       -2 0.12235211E+00 0.19211295E+04</pdfrwt>
<totfact> 0.94689859E+00</totfact>
</mgrwt>
</event>
<event>
 6    1  0.5857749E-004  0.2659281E+04  0.7818608E-02  0.8348339E-01
         -2   -1    0    0    0  501 -0.00000000000E+00  0.00000000000E+00  0.76417531047E+03  0.76417531047E+03  0.00000000000E+00 0. -1.
          2   -1    0    0  501    0  0.00000000000E+00 -0.00000000000E+00 -0.23135314523E+04  0.23135314523E+04  0.00000000000E+00 0.  1.
         23    2    1    2    0    0 -0.12072321101E+04 -0.51215410835E+03 -0.53232265360E+03  0.14181681779E+04  0.90124219029E+02 0.  0.
         11    1    3    3    0    0 -0.78241944718E+03 -0.34040060737E+03 -0.30036931556E+03  0.90458525886E+03  0.00000000000E+00 0.  1.
        -11    1    3    3    0    0 -0.42481266294E+03 -0.17175350099E+03 -0.23195333805E+03  0.51358291904E+03  0.00000000000E+00 0. -1.
         22    1    1    2    0    0  0.12072321101E+04  0.51215410835E+03 -0.10170334882E+04  0.16595385848E+04  0.00000000000E+00 0.  1.
<mgrwt>
<rscale>  0 0.26592808E+04</rscale>
<asrwt>0</asrwt>
<pdfrwt beam="1">  1        2 0.35592791E+00 0.26592808E+04</pdfrwt>
<pdfrwt beam="2">  1       -2 0.11756543E+00 0.26592808E+04</pdfrwt>
<totfact> 0.21898726E+00</totfact>
</mgrwt>
</event>
<event>
 6    1  0.4630212E-004  0.6166568E+04  0.7818608E-02  0.7670086E-01
         -2   -1    0    0    0  501 -0.00000000000E+00  0.00000000000E+00  0.21600935436E+04  0.21600935436E+04  0.00000000000E+00 0. -1.
          2   -1    0    0  501    0  0.00000000000E+00 -0.00000000000E+00 -0.44010314390E+04  0.44010314390E+04  0.00000000000E+00 0.  1.
         23    2    1    2    0    0 -0.17938986894E+04 -0.20020044042E+04 -0.27260593152E+04  0.38295618891E+04  0.89725861993E+02 0.  0.
         13    1    3    3    0    0 -0.17175428596E+04 -0.19098247564E+04 -0.26289540238E+04  0.36754296802E+04  0.00000000000E+00 0. -1.
        -13    1    3    3    0    0 -0.76355829825E+02 -0.92179647780E+02 -0.97105291417E+02  0.15413220895E+03  0.00000000000E+00 0.  1.
         22    1    1    2    0    0  0.17938986894E+04  0.20020044042E+04  0.48512141982E+03  0.27315630936E+04  0.00000000000E+00 0. -1.
<mgrwt>
<rscale>  0 0.61665678E+04</rscale>
<asrwt>0</asrwt>
<pdfrwt beam="1">  1        2 0.67708176E+00 0.61665678E+04</pdfrwt>
<pdfrwt beam="2">  1       -2 0.33232208E+00 0.61665678E+04</pdfrwt>
<totfact> 0.20220949E-03</totfact>
</mgrwt>
</event>
<event>
 6    1  0.4630212E-004  0.2409836E+04  0.7818608E-02  0.8435830E-01
          2   -1    0    0  501    0  0.00000000000E+00  0.00000000000E+00  0.17498336797E+04  0.17498336797E+04  0.00000000000E+00 0.  1.
         -2   -1    0    0    0  501 -0.00000000000E+00 -0.00000000000E+00 -0.82969462208E+03  0.82969462208E+03  0.00000000000E+00 0. -1.
         23    2    1    2    0    0  0.40373031420E+03 -0.11090324867E+04  0.71100142500E+03  0.13809083568E+04  0.91834854774E+02 0.  0.
         13    1    3    3    0    0  0.34586381811E+03 -0.96822202024E+03  0.65306996383E+03  0.12180213622E+04  0.00000000000E+00 0. -1.
        -13    1    3    3    0    0  0.57866496083E+02 -0.14081046641E+03  0.57931461171E+02  0.16288699461E+03  0.00000000000E+00 0.  1.
         22    1    1    2    0    0 -0.40373031420E+03  0.11090324867E+04  0.20913763264E+03  0.11986199450E+04  0.00000000000E+00 0. -1.
<mgrwt>
<rscale>  0 0.24098362E+04</rscale>
<asrwt>0</asrwt>
<pdfrwt beam="1">  1        2 0.26920518E+00 0.24098362E+04</pdfrwt>
<pdfrwt beam="2">  1       -2 0.12764533E+00 0.24098362E+04</pdfrwt>
<totfact> 0.37605954E+00</totfact>
</mgrwt>
</event>
<event>
 6    1  0.4630212E-004  0.2697881E+04  0.7818608E-02  0.8335693E-01
          2   -1    0    0  501    0  0.00000000000E+00  0.00000000000E+00  0.36973396857E+04  0.36973396857E+04  0.00000000000E+00 0.  1.
         -2   -1    0    0    0  501 -0.00000000000E+00 -0.00000000000E+00 -0.49214864029E+03  0.49214864029E+03  0.00000000000E+00 0. -1.
         23    2    1    2    0    0  0.19255005482E+03  0.82326143444E+03 -0.24717847670E+02  0.85075407921E+03  0.91305083371E+02 0.  0.
         11    1    3    3    0    0  0.14880189368E+03  0.54629747049E+03  0.21321404804E+02  0.56660174032E+03  0.00000000000E+00 0. -1.
        -11    1    3    3    0    0  0.43748161146E+02  0.27696396395E+03 -0.46039252474E+02  0.28415233889E+03  0.00000000000E+00 0.  1.
         22    1    1    2    0    0 -0.19255005482E+03 -0.82326143444E+03  0.32299088931E+04  0.33387342468E+04  0.00000000000E+00 0.  1.
<mgrwt>
<rscale>  0 0.26978812E+04</rscale>
<asrwt>0</asrwt>
<pdfrwt beam="1">  1        2 0.56882147E+00 0.26978812E+04</pdfrwt>
<pdfrwt beam="2">  1       -2 0.75715178E-01 0.26978812E+04</pdfrwt>
<totfact> 0.80490149E-01</totfact>
</mgrwt>
</event>
<event>
 6    1  0.4630212E-004  0.1925872E+04  0.7818608E-02  0.8642085E-01
         -1   -1    0    0    0  501 -0.00000000000E+00  0.00000000000E+00  0.81056356988E+03  0.81056356988E+03  0.00000000000E+00 0. -1.
          1   -1    0    0  501    0  0.00000000000E+00 -0.00000000000E+00 -0.11439513622E+04  0.11439513622E+04  0.00000000000E+00 0.  1.
         23    2    1    2    0    0  0.89533251994E+03  0.32818936400E+03 -0.28463133183E+03  0.99968208164E+03  0.94977309849E+02 0.  0.
         11    1    3    3    0    0  0.70232807773E+03  0.26558208534E+03 -0.18345884441E+03  0.77295259907E+03  0.00000000000E+00 0. -1.
        -11    1    3    3    0    0  0.19300444221E+03  0.62607278664E+02 -0.10117248742E+03  0.22672948256E+03  0.00000000000E+00 0.  1.
         22    1    1    2    0    0 -0.89533251994E+03 -0.32818936400E+03 -0.48756460526E+02  0.95483285047E+03  0.00000000000E+00 0. -1.
<mgrwt>
<rscale>  0 0.19258715E+04</rscale>
<asrwt>0</asrwt>
<pdfrwt beam="1">  1        1 0.17599252E+00 0.19258715E+04</pdfrwt>
<pdfrwt beam="2">  1       -1 0.12470209E+00 0.19258715E+04</pdfrwt>
<totfact> 0.61777953E+00</totfact>
</mgrwt>
</event>
<event>
 6    1  0.4630212E-004  0.3230978E+04  0.7818608E-02  0.8180684E-01
          2   -1    0    0  501    0  0.00000000000E+00  0.00000000000E+00  0.15195819872E+04  0.15195819872E+04  0.00000000000E+00 0.  1.
         -2   -1    0    0    0  501 -0.00000000000E+00 -0.00000000000E+00 -0.17174488082E+04  0.17174488082E+04  0.00000000000E+00 0. -1.
         23    2    1    2    0    0  0.11700025199E+04  0.11115995858E+04 -0.13500446969E+03  0.16219421877E+04  0.88942214898E+02 0.  0.
         13    1    3    3    0    0  0.20077785802E+03  0.23518160065E+03 -0.39509941012E+02  0.31174215145E+03  0.00000000000E+00 0.  1.
        -13    1    3    3    0    0  0.96922466192E+03  0.87641798514E+03 -0.95494528674E+02  0.13102000362E+04  0.00000000000E+00 0. -1.
         22    1    1    2    0    0 -0.11700025199E+04 -0.11115995858E+04 -0.62862351343E+02  0.16150886078E+04  0.00000000000E+00 0.  1.
<mgrwt>
<rscale>  0 0.32309777E+04</rscale>
<asrwt>0</asrwt>
<pdfrwt beam="1">  1        2 0.23378184E+00 0.32309777E+04</pdfrwt>
<pdfrwt beam="2">  1       -2 0.26422289E+00 0.32309777E+04</pdfrwt>
<totfact> 0.54641681E-01</totfact>
</mgrwt>
</event>
<event>
 6    1  0.4630212E-004  0.4020409E+03  0.7818608E-02  0.1043075E+00
          2   -1    0    0  501    0  0.00000000000E+00  0.00000000000E+00  0.25819357689E+03  0.25819357689E+03  0.00000000000E+00 0.  1.
         -2   -1    0    0    0  501 -0.00000000000E+00 -0.00000000000E+00 -0.15650746063E+03  0.15650746063E+03  0.00000000000E+00 0. -1.
         23    2    1    2    0    0 -0.18082554757E+01  0.17305797573E+03  0.13582302062E+03  0.23829905060E+03  0.91576262403E+02 0.  0.
         13    1    3    3    0    0  0.43037842565E+02  0.59915060879E+02  0.57969879745E+02  0.93822051621E+02  0.00000000000E+00 0. -1.
        -13    1    3    3    0    0 -0.44846098040E+02  0.11314291485E+03  0.77853140880E+02  0.14447699898E+03  0.00000000000E+00 0.  1.
         22    1    1    2    0    0  0.18082554757E+01 -0.17305797573E+03 -0.34136904364E+02  0.17640198692E+03  0.00000000000E+00 0. -1.
<mgrwt>
<rscale>  0 0.40204090E+03</rscale>
<asrwt>0</asrwt>
<pdfrwt beam="1">  1        2 0.39722089E-01 0.40204090E+03</pdfrwt>
<pdfrwt beam="2">  1       -2 0.24078071E-01 0.40204090E+03</pdfrwt>
<totfact> 0.19696985E+03</totfact>
</mgrwt>
</event>
<event>
 6    1  0.4630212E-004  0.1930231E+04  0.7818608E-02  0.8639953E-01
          2   -1    0    0  501    0  0.00000000000E+00  0.00000000000E+00  0.33779267871E+04  0.33779267871E+04  0.00000000000E+00 0.  1.
         -2   -1    0    0    0  501 -0.00000000000E+00 -0.00000000000E+00 -0.27574558804E+03  0.27574558804E+03  0.00000000000E+00 0. -1.
         23    2    1    2    0    0 -0.34756325381E+03  0.80355282567E+03  0.79589430793E+03  0.11868005537E+04  0.92468621304E+02 0.  0.
         13    1    3    3    0    0 -0.11269408636E+03  0.30005775241E+03  0.23599390714E+03  0.39802981809E+03  0.00000000000E+00 0. -1.
        -13    1    3    3    0    0 -0.23486916745E+03  0.50349507326E+03  0.55990040078E+03  0.78877073564E+03  0.00000000000E+00 0.  1.
         22    1    1    2    0    0  0.34756325381E+03 -0.80355282567E+03  0.23062868911E+04  0.24668718214E+04  0.00000000000E+00 0.  1.
<mgrwt>
<rscale>  0 0.19302315E+04</rscale>
<asrwt>0</asrwt>
<pdfrwt beam="1">  1        2 0.51968101E+00 0.19302315E+04</pdfrwt>
<pdfrwt beam="2">  1       -2 0.42422401E-01 0.19302315E+04</pdfrwt>
<totfact> 0.48836259E+00</totfact>
</mgrwt>
</event>
<event>
 6    1  0.4630212E-004  0.2120667E+04  0.7818608E-02  0.8552194E-01
          2   -1    0    0  501    0  0.00000000000E+00  0.00000000000E+00  0.26038643270E+04  0.26038643270E+04  0.00000000000E+00 0.  1.
         -2   -1    0    0    0  501 -0.00000000000E+00 -0.00000000000E+00 -0.43178392182E+03  0.43178392182E+03  0.00000000000E+00 0. -1.
         23    2    1    2    0    0  0.25500254366E+03 -0.84033694626E+03  0.19337152941E+04  0.21256974772E+04  0.90235500966E+02 0.  0.
         13    1    3    3    0    0  0.34988755278E+02 -0.12235695990E+03  0.36409184480E+03  0.38569198862E+03  0.00000000000E+00 0. -1.
        -13    1    3    3    0    0  0.22001378838E+03 -0.71797998636E+03  0.15696234493E+04  0.17400054886E+04  0.00000000000E+00 0.  1.
         22    1    1    2    0    0 -0.25500254366E+03  0.84033694626E+03  0.23836511109E+03  0.90995077158E+03  0.00000000000E+00 0. -1.
<mgrwt>
<rscale>  0 0.21206666E+04</rscale>
<asrwt>0</asrwt>
<pdfrwt beam="1">  1        2 0.40059450E+00 0.21206666E+04</pdfrwt>
<pdfrwt beam="2">  1       -2 0.66428297E-01 0.21206666E+04</pdfrwt>
<totfact> 0.58045450E+00</totfact>
</mgrwt>
</event>
<event>
 6    1  0.4630212E-004  0.1868135E+04  0.7818608E-02  0.8670882E-01
         -2   -1    0    0    0  501 -0.00000000000E+00  0.00000000000E+00  0.47253076798E+03  0.47253076798E+03  0.00000000000E+00 0. -1.
          2   -1    0    0  501    0  0.00000000000E+00 -0.00000000000E+00 -0.18464034135E+04  0.18464034135E+04  0.00000000000E+00 0.  1.
         23    2    1    2    0    0 -0.92027922569E+03 -0.14571861485E+03 -0.67917053002E+03  0.11567126892E+04  0.92541171925E+02 0.  0.
         13    1    3    3    0    0 -0.62163582439E+03 -0.54297855685E+02 -0.45120911382E+03  0.77004481667E+03  0.00000000000E+00 0. -1.
        -13    1    3    3    0    0 -0.29864340130E+03 -0.91420759166E+02 -0.22796141620E+03  0.38666787250E+03  0.00000000000E+00 0.  1.
         22    1    1    2    0    0  0.92027922569E+03  0.14571861485E+03 -0.69470211552E+03  0.11622214923E+04  0.00000000000E+00 0. -1.
<mgrwt>
<rscale>  0 0.18681354E+04</rscale>
<asrwt>0</asrwt>
<pdfrwt beam="1">  1        2 0.28406206E+00 0.18681354E+04</pdfrwt>
<pdfrwt beam="2">  1       -2 0.72697042E-01 0.18681354E+04</pdfrwt>
<totfact> 0.13061755E+01</totfact>
</mgrwt>
</event>
<event>
 6    1  0.4630212E-004  0.2642002E+04  0.7818608E-02  0.8354072E-01
         -2   -1    0    0    0  501 -0.00000000000E+00  0.00000000000E+00  0.12679108228E+04  0.12679108228E+04  0.00000000000E+00 0. -1.
          2   -1    0    0  501    0  0.00000000000E+00 -0.00000000000E+00 -0.13763145990E+04  0.13763145990E+04  0.00000000000E+00 0.  1.
         23    2    1    2    0    0 -0.20094966048E+02  0.12841535816E+04  0.24830830654E+03  0.13112971647E+04  0.91591540670E+02 0.  0.
         13    1    3    3    0    0  0.34060253110E+02  0.32564249188E+03  0.70757370793E+02  0.33497722144E+03  0.00000000000E+00 0. -1.
        -13    1    3    3    0    0 -0.54155219159E+02  0.95851108968E+03  0.17755093574E+03  0.97631994325E+03  0.00000000000E+00 0.  1.
         22    1    1    2    0    0  0.20094966048E+02 -0.12841535816E+04 -0.35671208280E+03  0.13329282571E+04  0.00000000000E+00 0.  1.
<mgrwt>
<rscale>  0 0.26420024E+04</rscale>
<asrwt>0</asrwt>
<pdfrwt beam="1">  1        2 0.21174071E+00 0.26420024E+04</pdfrwt>
<pdfrwt beam="2">  1       -2 0.19506320E+00 0.26420024E+04</pdfrwt>
<totfact> 0.18872579E+00</totfact>
</mgrwt>
</event>
<event>
 6    1  0.4630212E-004  0.1927921E+04  0.7818608E-02  0.8641082E-01
         -1   -1    0    0    0  501 -0.00000000000E+00  0.00000000000E+00  0.12196827672E+04  0.12196827672E+04  0.00000000000E+00 0. -1.
          1   -1    0    0  501    0  0.00000000000E+00 -0.00000000000E+00 -0.76185408496E+03  0.76185408496E+03  0.00000000000E+00 0.  1.
         23    2    1    2    0    0  0.49734307378E+03  0.44132947480E+02  0.10746795109E+04  0.11879356961E+04  0.83410531589E+02 0.  0.
         11    1    3    3    0    0  0.32954150475E+03  0.85521578437E+01  0.78287128810E+03  0.84944581727E+03  0.00000000000E+00 0. -1.
        -11    1    3    3    0    0  0.16780156902E+03  0.35580789636E+02  0.29180822285E+03  0.33848987884E+03  0.00000000000E+00 0.  1.
         22    1    1    2    0    0 -0.49734307378E+03 -0.44132947480E+02 -0.61685082868E+03  0.79360115607E+03  0.00000000000E+00 0.  1.
<mgrwt>
<rscale>  0 0.19279215E+04</rscale>
<asrwt>0</asrwt>
<pdfrwt beam="1">  1        1 0.11720832E+00 0.19279215E+04</pdfrwt>
<pdfrwt beam="2">  1       -1 0.18764350E+00 0.19279215E+04</pdfrwt>
<totfact> 0.40945471E+00</totfact>
</mgrwt>
</event>
<event>
 6    1  0.4630212E-004  0.4402624E+04  0.7818608E-02  0.7927910E-01
          2   -1    0    0  501    0  0.00000000000E+00  0.00000000000E+00  0.18769169946E+04  0.18769169946E+04  0.00000000000E+00 0.  1.
         -2   -1    0    0    0  501 -0.00000000000E+00 -0.00000000000E+00 -0.25817736841E+04  0.25817736841E+04  0.00000000000E+00 0. -1.
         23    2    1    2    0    0  0.54854142445E+03 -0.21307425031E+04 -0.34193820957E+03  0.22287419950E+04  0.96993979167E+02 0.  0.
         11    1    3    3    0    0  0.20705103616E+03 -0.96208792587E+03 -0.12464123028E+03  0.99197718974E+03  0.00000000000E+00 0. -1.
        -11    1    3    3    0    0  0.34149038829E+03 -0.11686545773E+04 -0.21729697929E+03  0.12367648052E+04  0.00000000000E+00 0.  1.
         22    1    1    2    0    0 -0.54854142445E+03  0.21307425031E+04 -0.36291847985E+03  0.22299486837E+04  0.00000000000E+00 0.  1.
<mgrwt>
<rscale>  0 0.44026242E+04</rscale>
<asrwt>0</asrwt>
<pdfrwt beam="1">  1        2 0.28875646E+00 0.44026242E+04</pdfrwt>
<pdfrwt beam="2">  1       -2 0.39719595E+00 0.44026242E+04</pdfrwt>
<totfact> 0.46241683E-02</totfact>
</mgrwt>
</event>
<event>
 6    1  0.4630212E-004  0.1741246E+04  0.7818608E-02  0.8738184E-01
          2   -1    0    0  501    0  0.00000000000E+00  0.00000000000E+00  0.14280350469E+04  0.14280350469E+04  0.00000000000E+00 0.  1.
         -2   -1    0    0    0  501 -0.00000000000E+00 -0.00000000000E+00 -0.53078847363E+03  0.53078847363E+03  0.00000000000E+00 0. -1.
         23    2    1    2    0    0 -0.26926496816E+03  0.47712635855E+03 -0.30750491483E+03  0.63535106779E+03  0.94649466956E+02 0.  0.
         13    1    3    3    0    0 -0.16674151903E+03  0.32268958862E+03 -0.15338836734E+03  0.39428326874E+03  0.00000000000E+00 0. -1.
        -13    1    3    3    0    0 -0.10252344913E+03  0.15443676992E+03 -0.15411654749E+03  0.24106779905E+03  0.00000000000E+00 0.  1.
         22    1    1    2    0    0  0.26926496816E+03 -0.47712635855E+03  0.12047514881E+04  0.13234724527E+04  0.00000000000E+00 0.  1.
<mgrwt>
<rscale>  0 0.17412462E+04</rscale>
<asrwt>0</asrwt>
<pdfrwt beam="1">  1        2 0.21969770E+00 0.17412462E+04</pdfrwt>
<pdfrwt beam="2">  1       -2 0.81659766E-01 0.17412462E+04</pdfrwt>
<totfact> 0.17457193E+01</totfact>
</mgrwt>
</event>
<event>
 6    1  0.7642117E-004  0.3183774E+04  0.7818608E-02  0.8193116E-01
          2   -1    0    0  501    0  0.00000000000E+00  0.00000000000E+00  0.25699855836E+04  0.25699855836E+04  0.00000000000E+00 0.  1.
         -2   -1    0    0    0  501 -0.00000000000E+00 -0.00000000000E+00 -0.98603814394E+03  0.98603814394E+03  0.00000000000E+00 0. -1.
         23    2    1    2    0    0  0.11707542035E+04  0.39571985220E+03  0.19110297944E+04  0.22776487930E+04  0.91594447245E+02 0.  0.
         13    1    3    3    0    0  0.37710458237E+03  0.17242481817E+03  0.62623289494E+03  0.75106978548E+03  0.00000000000E+00 0.  1.
        -13    1    3    3    0    0  0.79364962117E+03  0.22329503403E+03  0.12847968995E+04  0.15265790075E+04  0.00000000000E+00 0. -1.
         22    1    1    2    0    0 -0.11707542035E+04 -0.39571985220E+03 -0.32708235470E+03  0.12783749345E+04  0.00000000000E+00 0. -1.
<mgrwt>
<rscale>  0 0.31837737E+04</rscale>
<asrwt>0</asrwt>
<pdfrwt beam="1">  1        2 0.39538240E+00 0.31837737E+04</pdfrwt>
<pdfrwt beam="2">  1       -2 0.15169818E+00 0.31837737E+04</pdfrwt>
<totfact> 0.77682359E-01</totfact>
</mgrwt>
</event>
<event>
 6    1  0.4630212E-004  0.5467098E+04  0.7818608E-02  0.7760233E-01
          2   -1    0    0  501    0  0.00000000000E+00  0.00000000000E+00  0.30724743443E+04  0.30724743443E+04  0.00000000000E+00 0.  1.
         -2   -1    0    0    0  501 -0.00000000000E+00 -0.00000000000E+00 -0.24320109868E+04  0.24320109868E+04  0.00000000000E+00 0. -1.
         23    2    1    2    0    0  0.12935315829E+04  0.23266587524E+04  0.94253803201E+03  0.28253410620E+04  0.87231122253E+02 0.  0.
         13    1    3    3    0    0  0.51849565803E+03  0.85561452243E+03  0.37491169963E+03  0.10683972767E+04  0.00000000000E+00 0.  1.
        -13    1    3    3    0    0  0.77503592482E+03  0.14710442300E+04  0.56762633238E+03  0.17569437853E+04  0.00000000000E+00 0. -1.
         22    1    1    2    0    0 -0.12935315829E+04 -0.23266587524E+04 -0.30207467446E+03  0.26791442692E+04  0.00000000000E+00 0.  1.
<mgrwt>
<rscale>  0 0.54670984E+04</rscale>
<asrwt>0</asrwt>
<pdfrwt beam="1">  1        2 0.47268836E+00 0.54670984E+04</pdfrwt>
<pdfrwt beam="2">  1       -2 0.37415553E+00 0.54670984E+04</pdfrwt>
<totfact> 0.12001577E-02</totfact>
</mgrwt>
</event>
<event>
 6    1  0.4630212E-004  0.3212466E+04  0.7818608E-02  0.8185533E-01
         -2   -1    0    0    0  501 -0.00000000000E+00  0.00000000000E+00  0.75036343558E+03  0.75036343558E+03  0.00000000000E+00 0. -1.
          2   -1    0    0  501    0  0.00000000000E+00 -0.00000000000E+00 -0.34383129067E+04  0.34383129067E+04  0.00000000000E+00 0.  1.
         23    2    1    2    0    0  0.10587215108E+04  0.89977824714E+03 -0.29804725948E+03  0.14242370298E+04  0.95534373833E+02 0.  0.
         13    1    3    3    0    0  0.70111580207E+03  0.61098856971E+03 -0.24368055374E+03  0.96137953614E+03  0.00000000000E+00 0. -1.
        -13    1    3    3    0    0  0.35760570873E+03  0.28878967743E+03 -0.54366705738E+02  0.46285749362E+03  0.00000000000E+00 0.  1.
         22    1    1    2    0    0 -0.10587215108E+04 -0.89977824714E+03 -0.23899022116E+04  0.27644393125E+04  0.00000000000E+00 0.  1.
<mgrwt>
<rscale>  0 0.32124659E+04</rscale>
<asrwt>0</asrwt>
<pdfrwt beam="1">  1        2 0.52897122E+00 0.32124659E+04</pdfrwt>
<pdfrwt beam="2">  1       -2 0.11544053E+00 0.32124659E+04</pdfrwt>
<totfact> 0.44041575E-01</totfact>
</mgrwt>
</event>
<event>
 6    1  0.4630212E-004  0.3618662E+04  0.7818608E-02  0.8086230E-01
          2   -1    0    0  501    0  0.00000000000E+00  0.00000000000E+00  0.17253656541E+04  0.17253656541E+04  0.00000000000E+00 0.  1.
         -2   -1    0    0    0  501 -0.00000000000E+00 -0.00000000000E+00 -0.18973830444E+04  0.18973830444E+04  0.00000000000E+00 0. -1.
         23    2    1    2    0    0  0.73496126769E+03  0.50294638340E+03 -0.16614876371E+04  0.18873395981E+04  0.91577623183E+02 0.  0.
         11    1    3    3    0    0  0.38925469505E+03  0.32102206239E+03 -0.94765297668E+03  0.10736016703E+04  0.00000000000E+00 0.  1.
        -11    1    3    3    0    0  0.34570657264E+03  0.18192432101E+03 -0.71383466038E+03  0.81373792790E+03  0.00000000000E+00 0. -1.
         22    1    1    2    0    0 -0.73496126769E+03 -0.50294638340E+03  0.14894702468E+04  0.17354091003E+04  0.00000000000E+00 0.  1.
<mgrwt>
<rscale>  0 0.36186625E+04</rscale>
<asrwt>0</asrwt>
<pdfrwt beam="1">  1        2 0.26544087E+00 0.36186625E+04</pdfrwt>
<pdfrwt beam="2">  1       -2 0.29190508E+00 0.36186625E+04</pdfrwt>
<totfact> 0.27519063E-01</totfact>
</mgrwt>
</event>
<event>
 6    1  0.4630212E-004  0.4578980E+04  0.7818608E-02  0.7896954E-01
          2   -1    0    0  501    0  0.00000000000E+00  0.00000000000E+00  0.19248968774E+04  0.19248968774E+04  0.00000000000E+00 0.  1.
         -2   -1    0    0    0  501 -0.00000000000E+00 -0.00000000000E+00 -0.27231408189E+04  0.27231408189E+04  0.00000000000E+00 0. -1.
         23    2    1    2    0    0 -0.36798034447E+03 -0.19158453827E+04 -0.16137247328E+04  0.25335916729E+04  0.95426345114E+02 0.  0.
         11    1    3    3    0    0 -0.34680194202E+03 -0.17806316716E+04 -0.14678056145E+04  0.23335325280E+04  0.00000000000E+00 0.  1.
        -11    1    3    3    0    0 -0.21178402451E+02 -0.13521371109E+03 -0.14591911830E+03  0.20005914496E+03  0.00000000000E+00 0. -1.
         22    1    1    2    0    0  0.36798034447E+03  0.19158453827E+04  0.81548079139E+03  0.21144460233E+04  0.00000000000E+00 0.  1.
<mgrwt>
<rscale>  0 0.45789803E+04</rscale>
<asrwt>0</asrwt>
<pdfrwt beam="1">  1        2 0.29613798E+00 0.45789803E+04</pdfrwt>
<pdfrwt beam="2">  1       -2 0.41894474E+00 0.45789803E+04</pdfrwt>
<totfact> 0.30872302E-02</totfact>
</mgrwt>
</event>
<event>
 6    1  0.4630212E-004  0.2300792E+04  0.7818608E-02  0.8477609E-01
         -2   -1    0    0    0  501 -0.00000000000E+00  0.00000000000E+00  0.59293329932E+03  0.59293329932E+03  0.00000000000E+00 0. -1.
          2   -1    0    0  501    0  0.00000000000E+00 -0.00000000000E+00 -0.22319722337E+04  0.22319722337E+04  0.00000000000E+00 0.  1.
         23    2    1    2    0    0  0.13583313212E+03  0.62251111280E+03  0.35221841570E+03  0.73419355869E+03  0.94929678877E+02 0.  0.
         11    1    3    3    0    0  0.13174794650E+03  0.60202503822E+03  0.31644868782E+03  0.69277084240E+03  0.00000000000E+00 0.  1.
        -11    1    3    3    0    0  0.40851856183E+01  0.20486074578E+02  0.35769727873E+02  0.41422716295E+02  0.00000000000E+00 0. -1.
         22    1    1    2    0    0 -0.13583313212E+03 -0.62251111280E+03 -0.19912573501E+04  0.20907119743E+04  0.00000000000E+00 0.  1.
<mgrwt>
<rscale>  0 0.23007917E+04</rscale>
<asrwt>0</asrwt>
<pdfrwt beam="1">  1        2 0.34338035E+00 0.23007917E+04</pdfrwt>
<pdfrwt beam="2">  1       -2 0.91220507E-01 0.23007917E+04</pdfrwt>
<totfact> 0.45999190E+00</totfact>
</mgrwt>
</event>
<event>
 6    1  0.4630212E-004  0.1668535E+04  0.7818608E-02  0.8779516E-01
         -2   -1    0    0    0  501 -0.00000000000E+00  0.00000000000E+00  0.33348123274E+03  0.33348123274E+03  0.00000000000E+00 0. -1.
          2   -1    0    0  501    0  0.00000000000E+00 -0.00000000000E+00 -0.20870800331E+04  0.20870800331E+04  0.00000000000E+00 0.  1.
         23    2    1    2    0    0  0.41020518320E+03  0.69868301926E+03 -0.11518631813E+04  0.14113477062E+04  0.93205716876E+02 0.  0.
         13    1    3    3    0    0  0.28597287358E+03  0.39692941400E+03 -0.68968545774E+03  0.84557641567E+03  0.00000000000E+00 0. -1.
        -13    1    3    3    0    0  0.12423230962E+03  0.30175360525E+03 -0.46217772361E+03  0.56577129057E+03  0.00000000000E+00 0.  1.
         22    1    1    2    0    0 -0.41020518320E+03 -0.69868301926E+03 -0.60173561905E+03  0.10092135596E+04  0.00000000000E+00 0. -1.
<mgrwt>
<rscale>  0 0.16685347E+04</rscale>
<asrwt>0</asrwt>
<pdfrwt beam="1">  1        2 0.32108923E+00 0.16685347E+04</pdfrwt>
<pdfrwt beam="2">  1       -2 0.51304805E-01 0.16685347E+04</pdfrwt>
<totfact> 0.20463843E+01</totfact>
</mgrwt>
</event>
<event>
 6    1  0.4630212E-004  0.3683533E+04  0.7818608E-02  0.8071621E-01
         -2   -1    0    0    0  501 -0.00000000000E+00  0.00000000000E+00  0.92927681706E+03  0.92927681706E+03  0.00000000000E+00 0. -1.
          2   -1    0    0  501    0  0.00000000000E+00 -0.00000000000E+00 -0.36502624175E+04  0.36502624175E+04  0.00000000000E+00 0.  1.
         23    2    1    2    0    0  0.12255516207E+04 -0.10944234189E+04 -0.23927536038E+04  0.29039868962E+04  0.90170340693E+02 0.  0.
         13    1    3    3    0    0  0.86768630990E+02 -0.55246216306E+02 -0.12597275167E+03  0.16263478688E+03  0.00000000000E+00 0. -1.
        -13    1    3    3    0    0  0.11387829897E+04 -0.10391772026E+04 -0.22667808521E+04  0.27413521094E+04  0.00000000000E+00 0.  1.
         22    1    1    2    0    0 -0.12255516207E+04  0.10944234189E+04 -0.32823199663E+03  0.16755523383E+04  0.00000000000E+00 0.  1.
<mgrwt>
<rscale>  0 0.36835332E+04</rscale>
<asrwt>0</asrwt>
<pdfrwt beam="1">  1        2 0.56157883E+00 0.36835332E+04</pdfrwt>
<pdfrwt beam="2">  1       -2 0.14296566E+00 0.36835332E+04</pdfrwt>
<totfact> 0.17439634E-01</totfact>
</mgrwt>
</event>
<event>
 6    1  0.4630212E-004  0.1088575E+04  0.7818608E-02  0.9216400E-01
         -2   -1    0    0    0  501 -0.00000000000E+00  0.00000000000E+00  0.60542943397E+03  0.60542943397E+03  0.00000000000E+00 0. -1.
          2   -1    0    0  501    0  0.00000000000E+00 -0.00000000000E+00 -0.48932009079E+03  0.48932009079E+03  0.00000000000E+00 0.  1.
         23    2    1    2    0    0 -0.62678059898E+02  0.44413144250E+03  0.36171464370E+03  0.58337564877E+03  0.91150352177E+02 0.  0.
         13    1    3    3    0    0  0.14709655424E+02  0.87613286982E+02  0.41917371783E+02  0.98232011461E+02  0.00000000000E+00 0. -1.
        -13    1    3    3    0    0 -0.77387715322E+02  0.35651815552E+03  0.31979727192E+03  0.48514363731E+03  0.00000000000E+00 0.  1.
         22    1    1    2    0    0  0.62678059898E+02 -0.44413144250E+03 -0.24560530052E+03  0.51137387600E+03  0.00000000000E+00 0.  1.
<mgrwt>
<rscale>  0 0.10885748E+04</rscale>
<asrwt>0</asrwt>
<pdfrwt beam="1">  1        2 0.75280014E-01 0.10885748E+04</pdfrwt>
<pdfrwt beam="2">  1       -2 0.93142990E-01 0.10885748E+04</pdfrwt>
<totfact> 0.61254174E+01</totfact>
</mgrwt>
</event>
<event>
 6    1  0.4630212E-004  0.6112589E+03  0.7818608E-02  0.9882319E-01
          2   -1    0    0  501    0  0.00000000000E+00  0.00000000000E+00  0.53725085544E+03  0.53725085544E+03  0.00000000000E+00 0.  1.
         -2   -1    0    0    0  501 -0.00000000000E+00 -0.00000000000E+00 -0.17386544953E+03  0.17386544953E+03  0.00000000000E+00 0. -1.
         23    2    1    2    0    0  0.23017163144E+03  0.18182128241E+03  0.11799198887E+03  0.32868214360E+03  0.89843661038E+02 0.  0.
         13    1    3    3    0    0  0.13640166497E+03  0.50629231972E+02  0.57858871537E+02  0.15657708118E+03  0.00000000000E+00 0. -1.
        -13    1    3    3    0    0  0.93769966470E+02  0.13119205044E+03  0.60133117330E+02  0.17210506242E+03  0.00000000000E+00 0.  1.
         22    1    1    2    0    0 -0.23017163144E+03 -0.18182128241E+03  0.24539341704E+03  0.38243416137E+03  0.00000000000E+00 0.  1.
<mgrwt>
<rscale>  0 0.61125890E+03</rscale>
<asrwt>0</asrwt>
<pdfrwt beam="1">  1        2 0.82653977E-01 0.61125890E+03</pdfrwt>
<pdfrwt beam="2">  1       -2 0.26748531E-01 0.61125890E+03</pdfrwt>
<totfact> 0.72111496E+02</totfact>
</mgrwt>
</event>
<event>
 6    1  0.4630212E-004  0.3470730E+04  0.7818608E-02  0.8120762E-01
         -2   -1    0    0    0  501 -0.00000000000E+00  0.00000000000E+00  0.85225896235E+03  0.85225896235E+03  0.00000000000E+00 0. -1.
          2   -1    0    0  501    0  0.00000000000E+00 -0.00000000000E+00 -0.35335411097E+04  0.35335411097E+04  0.00000000000E+00 0.  1.
         23    2    1    2    0    0  0.94600507971E+03  0.11998013881E+04 -0.23781076916E+04  0.28281211153E+04  0.91781634812E+02 0.  0.
         13    1    3    3    0    0  0.64525251492E+03  0.87200202963E+03 -0.16393065852E+04  0.19657223680E+04  0.00000000000E+00 0. -1.
        -13    1    3    3    0    0  0.30075256478E+03  0.32779935845E+03 -0.73880110639E+03  0.86239874734E+03  0.00000000000E+00 0.  1.
         22    1    1    2    0    0 -0.94600507971E+03 -0.11998013881E+04 -0.30317445578E+03  0.15576789567E+04  0.00000000000E+00 0. -1.
<mgrwt>
<rscale>  0 0.34707302E+04</rscale>
<asrwt>0</asrwt>
<pdfrwt beam="1">  1        2 0.54362171E+00 0.34707302E+04</pdfrwt>
<pdfrwt beam="2">  1       -2 0.13111676E+00 0.34707302E+04</pdfrwt>
<totfact> 0.26908034E-01</totfact>
</mgrwt>
</event>
<event>
 6    1  0.4630212E-004  0.1554048E+04  0.7818608E-02  0.8849286E-01
         -2   -1    0    0    0  501 -0.00000000000E+00  0.00000000000E+00  0.75916288007E+03  0.75916288007E+03  0.00000000000E+00 0. -1.
          2   -1    0    0  501    0  0.00000000000E+00 -0.00000000000E+00 -0.79530519240E+03  0.79530519240E+03  0.00000000000E+00 0.  1.
         23    2    1    2    0    0  0.69993129833E+03  0.25348554335E+03  0.19382131961E+03  0.77533906192E+03  0.97083541042E+02 0.  0.
         13    1    3    3    0    0  0.98971369752E+02  0.46762096639E+02 -0.46101217555E+01  0.10955947670E+03  0.00000000000E+00 0.  1.
        -13    1    3    3    0    0  0.60095992857E+03  0.20672344671E+03  0.19843144136E+03  0.66577958522E+03  0.00000000000E+00 0. -1.
         22    1    1    2    0    0 -0.69993129833E+03 -0.25348554335E+03 -0.22996363194E+03  0.77912901055E+03  0.00000000000E+00 0.  1.
<mgrwt>
<rscale>  0 0.15540479E+04</rscale>
<asrwt>0</asrwt>
<pdfrwt beam="1">  1        2 0.12235464E+00 0.15540479E+04</pdfrwt>
<pdfrwt beam="2">  1       -2 0.11679429E+00 0.15540479E+04</pdfrwt>
<totfact> 0.18966025E+01</totfact>
</mgrwt>
</event>
<event>
 6    1  0.4630212E-004  0.2541675E+04  0.7818608E-02  0.8388287E-01
          2   -1    0    0  501    0  0.00000000000E+00  0.00000000000E+00  0.17322814377E+04  0.17322814377E+04  0.00000000000E+00 0.  1.
         -2   -1    0    0    0  501 -0.00000000000E+00 -0.00000000000E+00 -0.93231248557E+03  0.93231248557E+03  0.00000000000E+00 0. -1.
         23    2    1    2    0    0 -0.90835252483E+03  0.63880321378E+03 -0.24371215730E+03  0.11406371937E+04  0.92107202924E+02 0.  0.
         11    1    3    3    0    0 -0.67361450806E+03  0.51916291957E+03 -0.17360920669E+03  0.86800161242E+03  0.00000000000E+00 0. -1.
        -11    1    3    3    0    0 -0.23473801678E+03  0.11964029422E+03 -0.70102950610E+02  0.27263558132E+03  0.00000000000E+00 0.  1.
         22    1    1    2    0    0  0.90835252483E+03 -0.63880321378E+03  0.10436811095E+04  0.15239567296E+04  0.00000000000E+00 0.  1.
<mgrwt>
<rscale>  0 0.25416747E+04</rscale>
<asrwt>0</asrwt>
<pdfrwt beam="1">  1        2 0.26650484E+00 0.25416747E+04</pdfrwt>
<pdfrwt beam="2">  1       -2 0.14343269E+00 0.25416747E+04</pdfrwt>
<totfact> 0.28202045E+00</totfact>
</mgrwt>
</event>
<event>
 6    1  0.4630212E-004  0.3436512E+04  0.7818608E-02  0.8129003E-01
         -2   -1    0    0    0  501 -0.00000000000E+00  0.00000000000E+00  0.19602187495E+04  0.19602187495E+04  0.00000000000E+00 0. -1.
          2   -1    0    0  501    0  0.00000000000E+00 -0.00000000000E+00 -0.15061600358E+04  0.15061600358E+04  0.00000000000E+00 0.  1.
         23    2    1    2    0    0 -0.68180561967E+03  0.12487017214E+04 -0.74285956834E+03  0.16071509171E+04  0.83539450803E+02 0.  0.
         11    1    3    3    0    0 -0.21352490153E+03  0.42951178415E+03 -0.21129056045E+03  0.52413448392E+03  0.00000000000E+00 0. -1.
        -11    1    3    3    0    0 -0.46828071814E+03  0.81918993728E+03 -0.53156900789E+03  0.10830164331E+04  0.00000000000E+00 0.  1.
         22    1    1    2    0    0  0.68180561967E+03 -0.12487017214E+04  0.11969182820E+04  0.18592278682E+04  0.00000000000E+00 0. -1.
<mgrwt>
<rscale>  0 0.34365117E+04</rscale>
<asrwt>0</asrwt>
<pdfrwt beam="1">  1        2 0.23171693E+00 0.34365117E+04</pdfrwt>
<pdfrwt beam="2">  1       -2 0.30157211E+00 0.34365117E+04</pdfrwt>
<totfact> 0.32330073E-01</totfact>
</mgrwt>
</event>
<event>
 6    1  0.4630212E-004  0.2086580E+04  0.7818608E-02  0.8567178E-01
         -2   -1    0    0    0  501 -0.00000000000E+00  0.00000000000E+00  0.39022960526E+03  0.39022960526E+03  0.00000000000E+00 0. -1.
          2   -1    0    0  501    0  0.00000000000E+00 -0.00000000000E+00 -0.27892657509E+04  0.27892657509E+04  0.00000000000E+00 0.  1.
         23    2    1    2    0    0  0.18994430181E+03  0.52029304127E+03 -0.25450865900E+04  0.26066826303E+04  0.10268835338E+03 0.  0.
         13    1    3    3    0    0  0.12782222294E+03  0.21868098056E+03 -0.12608745223E+04  0.12860654933E+04  0.00000000000E+00 0. -1.
        -13    1    3    3    0    0  0.62122078867E+02  0.30161206071E+03 -0.12842120677E+04  0.13206171371E+04  0.00000000000E+00 0.  1.
         22    1    1    2    0    0 -0.18994430181E+03 -0.52029304127E+03  0.14605044438E+03  0.57281272584E+03  0.00000000000E+00 0. -1.
<mgrwt>
<rscale>  0 0.20865800E+04</rscale>
<asrwt>0</asrwt>
<pdfrwt beam="1">  1        2 0.42911781E+00 0.20865800E+04</pdfrwt>
<pdfrwt beam="2">  1       -2 0.60035324E-01 0.20865800E+04</pdfrwt>
<totfact> 0.56075219E+00</totfact>
</mgrwt>
</event>
<event>
 6    1  0.4630212E-004  0.2351266E+04  0.7818608E-02  0.8457977E-01
         -4   -1    0    0    0  501 -0.00000000000E+00  0.00000000000E+00  0.18290045978E+04  0.18290045978E+04  0.00000000000E+00 0. -1.
          4   -1    0    0  501    0  0.00000000000E+00 -0.00000000000E+00 -0.75566426857E+03  0.75566426857E+03  0.00000000000E+00 0.  1.
         23    2    1    2    0    0  0.86801244465E+03 -0.75918512396E+03  0.29658787622E+03  0.11942904899E+04  0.92508104582E+02 0.  0.
         11    1    3    3    0    0  0.78836750449E+03 -0.66232203209E+03  0.28489530639E+03  0.10683441075E+04  0.00000000000E+00 0.  1.
        -11    1    3    3    0    0  0.79644940160E+02 -0.96863091874E+02  0.11692569831E+02  0.12594638244E+03  0.00000000000E+00 0. -1.
         22    1    1    2    0    0 -0.86801244465E+03  0.75918512396E+03  0.77675245301E+03  0.13903783765E+04  0.00000000000E+00 0. -1.
<mgrwt>
<rscale>  0 0.23512664E+04</rscale>
<asrwt>0</asrwt>
<pdfrwt beam="1">  1        4 0.11625604E+00 0.23512664E+04</pdfrwt>
<pdfrwt beam="2">  1       -4 0.28138532E+00 0.23512664E+04</pdfrwt>
<totfact> 0.41656671E-02</totfact>
</mgrwt>
</event>
<event>
 6    1  0.4630212E-004  0.2720039E+04  0.7818608E-02  0.8328532E-01
          2   -1    0    0  501    0  0.00000000000E+00  0.00000000000E+00  0.28068648166E+04  0.28068648166E+04  0.00000000000E+00 0.  1.
         -2   -1    0    0    0  501 -0.00000000000E+00 -0.00000000000E+00 -0.65897490529E+03  0.65897490529E+03  0.00000000000E+00 0. -1.
         23    2    1    2    0    0 -0.11991244704E+04  0.18617529798E+03  0.18531876986E+04  0.22170762811E+04  0.92530280074E+02 0.  0.
         13    1    3    3    0    0 -0.65747108520E+03  0.58979047771E+02  0.97340562882E+03  0.11761229843E+04  0.00000000000E+00 0.  1.
        -13    1    3    3    0    0 -0.54165338517E+03  0.12719625021E+03  0.87978206979E+03  0.10409532968E+04  0.00000000000E+00 0. -1.
         22    1    1    2    0    0  0.11991244704E+04 -0.18617529798E+03  0.29470221271E+03  0.12487634408E+04  0.00000000000E+00 0. -1.
<mgrwt>
<rscale>  0 0.27200393E+04</rscale>
<asrwt>0</asrwt>
<pdfrwt beam="1">  1        2 0.43182535E+00 0.27200393E+04</pdfrwt>
<pdfrwt beam="2">  1       -2 0.10138076E+00 0.27200393E+04</pdfrwt>
<totfact> 0.16032671E+00</totfact>
</mgrwt>
</event>
<event>
 6    1  0.4630212E-004  0.2394741E+04  0.7818608E-02  0.8441475E-01
          2   -1    0    0  501    0  0.00000000000E+00  0.00000000000E+00  0.18063780984E+04  0.18063780984E+04  0.00000000000E+00 0.  1.
         -2   -1    0    0    0  501 -0.00000000000E+00 -0.00000000000E+00 -0.79368582565E+03  0.79368582565E+03  0.00000000000E+00 0. -1.
         23    2    1    2    0    0 -0.56403818222E+03  0.38628876331E+03  0.15721183576E+04  0.17167091685E+04  0.90422117560E+02 0.  0.
         13    1    3    3    0    0 -0.15473241630E+03  0.11814697125E+03  0.55155604952E+03  0.58490589263E+03  0.00000000000E+00 0. -1.
        -13    1    3    3    0    0 -0.40930576591E+03  0.26814179205E+03  0.10205623081E+04  0.11318032759E+04  0.00000000000E+00 0.  1.
         22    1    1    2    0    0  0.56403818222E+03 -0.38628876331E+03 -0.55942608486E+03  0.88335475551E+03  0.00000000000E+00 0. -1.
<mgrwt>
<rscale>  0 0.23947415E+04</rscale>
<asrwt>0</asrwt>
<pdfrwt beam="1">  1        2 0.27790432E+00 0.23947415E+04</pdfrwt>
<pdfrwt beam="2">  1       -2 0.12210551E+00 0.23947415E+04</pdfrwt>
<totfact> 0.39153122E+00</totfact>
</mgrwt>
</event>
<event>
 6    1  0.4630212E-004  0.1532736E+04  0.7818608E-02  0.8862971E-01
          2   -1    0    0  501    0  0.00000000000E+00  0.00000000000E+00  0.27946522185E+04  0.27946522185E+04  0.00000000000E+00 0.  1.
         -2   -1    0    0    0  501 -0.00000000000E+00 -0.00000000000E+00 -0.21015854614E+03  0.21015854614E+03  0.00000000000E+00 0. -1.
         23    2    1    2    0    0  0.64645186276E+03  0.24705871962E+03  0.19298280334E+04  0.20521696357E+04  0.90697040569E+02 0.  0.
         13    1    3    3    0    0  0.18420451210E+03  0.33444026858E+02  0.58111257662E+03  0.61052570128E+03  0.00000000000E+00 0.  1.
        -13    1    3    3    0    0  0.46224735066E+03  0.21361469276E+03  0.13487154568E+04  0.14416439344E+04  0.00000000000E+00 0. -1.
         22    1    1    2    0    0 -0.64645186276E+03 -0.24705871962E+03  0.65466563897E+03  0.95264112900E+03  0.00000000000E+00 0. -1.
<mgrwt>
<rscale>  0 0.15327362E+04</rscale>
<asrwt>0</asrwt>
<pdfrwt beam="1">  1        2 0.42994647E+00 0.15327362E+04</pdfrwt>
<pdfrwt beam="2">  1       -2 0.32332086E-01 0.15327362E+04</pdfrwt>
<totfact> 0.20100268E+01</totfact>
</mgrwt>
</event>
<event>
 6    1  0.4630212E-004  0.5058361E+03  0.7818608E-02  0.1012267E+00
         -2   -1    0    0    0  501 -0.00000000000E+00  0.00000000000E+00  0.24062873686E+03  0.24062873686E+03  0.00000000000E+00 0. -1.
          2   -1    0    0  501    0  0.00000000000E+00 -0.00000000000E+00 -0.26583495576E+03  0.26583495576E+03  0.00000000000E+00 0.  1.
         23    2    1    2    0    0  0.12097639721E+03  0.32590442523E+02 -0.22345631835E+03  0.27194177987E+03  0.91225982039E+02 0.  0.
         13    1    3    3    0    0  0.48872946735E+02 -0.26158007346E+02 -0.12370826768E+03  0.13556010387E+03  0.00000000000E+00 0. -1.
        -13    1    3    3    0    0  0.72103450480E+02  0.58748449869E+02 -0.99748050673E+02  0.13638167599E+03  0.00000000000E+00 0.  1.
         22    1    1    2    0    0 -0.12097639721E+03 -0.32590442523E+02  0.19825009946E+03  0.23452191275E+03  0.00000000000E+00 0. -1.
<mgrwt>
<rscale>  0 0.50583606E+03</rscale>
<asrwt>0</asrwt>
<pdfrwt beam="1">  1        2 0.40897686E-01 0.50583606E+03</pdfrwt>
<pdfrwt beam="2">  1       -2 0.37019806E-01 0.50583606E+03</pdfrwt>
<totfact> 0.86672060E+02</totfact>
</mgrwt>
</event>
<event>
 6    1  0.4630212E-004  0.1382158E+04  0.7818608E-02  0.8966835E-01
          2   -1    0    0  501    0  0.00000000000E+00  0.00000000000E+00  0.15170784465E+04  0.15170784465E+04  0.00000000000E+00 0. -1.
         -2   -1    0    0    0  501 -0.00000000000E+00 -0.00000000000E+00 -0.31480934741E+03  0.31480934741E+03  0.00000000000E+00 0.  1.
         23    2    1    2    0    0 -0.38647454790E+03 -0.52128119164E+03  0.90676917780E+03  0.11188542320E+04  0.92237702110E+02 0.  0.
         13    1    3    3    0    0 -0.74983043879E+02 -0.15995115010E+03  0.21005920139E+03  0.27446620079E+03  0.00000000000E+00 0.  1.
        -13    1    3    3    0    0 -0.31149150402E+03 -0.36133004155E+03  0.69670997642E+03  0.84438803120E+03  0.00000000000E+00 0. -1.
         22    1    1    2    0    0  0.38647454790E+03  0.52128119164E+03  0.29549992125E+03  0.71303356190E+03  0.00000000000E+00 0.  1.
<mgrwt>
<rscale>  0 0.13821584E+04</rscale>
<asrwt>0</asrwt>
<pdfrwt beam="1">  1        2 0.23339668E+00 0.13821584E+04</pdfrwt>
<pdfrwt beam="2">  1       -2 0.48432208E-01 0.13821584E+04</pdfrwt>
<totfact> 0.48843636E+01</totfact>
</mgrwt>
</event>
<event>
 6    1  0.4630212E-004  0.2870410E+04  0.7818608E-02  0.8281736E-01
         -2   -1    0    0    0  501 -0.00000000000E+00  0.00000000000E+00  0.48532691466E+03  0.48532691466E+03  0.00000000000E+00 0. -1.
          2   -1    0    0  501    0  0.00000000000E+00 -0.00000000000E+00 -0.42441777173E+04  0.42441777173E+04  0.00000000000E+00 0.  1.
         23    2    1    2    0    0 -0.10100438192E+04 -0.47535308293E+03 -0.39898813043E+03  0.11890489768E+04  0.92178472290E+02 0.  0.
         13    1    3    3    0    0 -0.56394814324E+03 -0.30007143931E+03 -0.19268804671E+03  0.66723988212E+03  0.00000000000E+00 0. -1.
        -13    1    3    3    0    0 -0.44609567598E+03 -0.17528164362E+03 -0.20630008372E+03  0.52180909465E+03  0.00000000000E+00 0.  1.
         22    1    1    2    0    0  0.10100438192E+04  0.47535308293E+03 -0.33598626723E+04  0.35404556552E+04  0.00000000000E+00 0.  1.
<mgrwt>
<rscale>  0 0.28704102E+04</rscale>
<asrwt>0</asrwt>
<pdfrwt beam="1">  1        2 0.65295043E+00 0.28704102E+04</pdfrwt>
<pdfrwt beam="2">  1       -2 0.74665677E-01 0.28704102E+04</pdfrwt>
<totfact> 0.29693861E-01</totfact>
</mgrwt>
</event>
<event>
 6    1  0.5080635E-004  0.2529566E+04  0.7818608E-02  0.8392527E-01
         -2   -1    0    0    0  501 -0.00000000000E+00  0.00000000000E+00  0.11717575894E+04  0.11717575894E+04  0.00000000000E+00 0. -1.
          2   -1    0    0  501    0  0.00000000000E+00 -0.00000000000E+00 -0.13651939506E+04  0.13651939506E+04  0.00000000000E+00 0.  1.
         23    2    1    2    0    0  0.23567862869E+03 -0.52998956690E+03 -0.12227006369E+04  0.13555039931E+04  0.77206675291E+02 0.  0.
         13    1    3    3    0    0  0.94163291111E+02 -0.28020031828E+03 -0.55819889790E+03  0.63163672579E+03  0.00000000000E+00 0.  1.
        -13    1    3    3    0    0  0.14151533758E+03 -0.24978924862E+03 -0.66450173902E+03  0.72386726729E+03  0.00000000000E+00 0. -1.
         22    1    1    2    0    0 -0.23567862869E+03  0.52998956690E+03  0.10292642757E+04  0.11814475470E+04  0.00000000000E+00 0. -1.
<mgrwt>
<rscale>  0 0.25295663E+04</rscale>
<asrwt>0</asrwt>
<pdfrwt beam="1">  1        2 0.21002984E+00 0.25295663E+04</pdfrwt>
<pdfrwt beam="2">  1       -2 0.18027040E+00 0.25295663E+04</pdfrwt>
<totfact> 0.24343233E+00</totfact>
</mgrwt>
</event>
<event>
 6    1  0.4630212E-004  0.3001862E+04  0.7818608E-02  0.8243199E-01
         -1   -1    0    0    0  501 -0.00000000000E+00  0.00000000000E+00  0.34562013555E+04  0.34562013555E+04  0.00000000000E+00 0. -1.
          1   -1    0    0  501    0  0.00000000000E+00 -0.00000000000E+00 -0.65181219769E+03  0.65181219769E+03  0.00000000000E+00 0.  1.
         23    2    1    2    0    0 -0.13360315702E+04  0.16001853401E+03  0.23091318772E+04  0.26741843925E+04  0.92659868339E+02 0.  0.
         13    1    3    3    0    0 -0.37644126792E+03  0.11558461587E+02  0.69556249941E+03  0.79097965638E+03  0.00000000000E+00 0. -1.
        -13    1    3    3    0    0 -0.95959030233E+03  0.14846007243E+03  0.16135693778E+04  0.18832047362E+04  0.00000000000E+00 0.  1.
         22    1    1    2    0    0  0.13360315702E+04 -0.16001853401E+03  0.49525728062E+03  0.14338291606E+04  0.00000000000E+00 0.  1.
<mgrwt>
<rscale>  0 0.30018622E+04</rscale>
<asrwt>0</asrwt>
<pdfrwt beam="1">  1        1 0.10027880E+00 0.30018622E+04</pdfrwt>
<pdfrwt beam="2">  1       -1 0.53172328E+00 0.30018622E+04</pdfrwt>
<totfact> 0.24388728E-02</totfact>
</mgrwt>
</event>
<event>
 6    1  0.4630212E-004  0.6621507E+04  0.7818608E-02  0.7617781E-01
         -2   -1    0    0    0  501 -0.00000000000E+00  0.00000000000E+00  0.28523660659E+04  0.28523660659E+04  0.00000000000E+00 0. -1.
          2   -1    0    0  501    0  0.00000000000E+00 -0.00000000000E+00 -0.38428054081E+04  0.38428054081E+04  0.00000000000E+00 0.  1.
         23    2    1    2    0    0 -0.68763275971E+03 -0.15389899330E+04  0.23851357094E+04  0.29221308229E+04  0.92991223739E+02 0.  0.
         11    1    3    3    0    0 -0.48014717191E+03 -0.11596836449E+04  0.18100050136E+04  0.22026178997E+04  0.00000000000E+00 0.  1.
        -11    1    3    3    0    0 -0.20748558781E+03 -0.37930628808E+03  0.57513069577E+03  0.71951292313E+03  0.00000000000E+00 0. -1.
         22    1    1    2    0    0  0.68763275971E+03  0.15389899330E+04 -0.33755750516E+04  0.37730406511E+04  0.00000000000E+00 0.  1.
<mgrwt>
<rscale>  0 0.66215067E+04</rscale>
<asrwt>0</asrwt>
<pdfrwt beam="1">  1        2 0.59120083E+00 0.66215067E+04</pdfrwt>
<pdfrwt beam="2">  1       -2 0.43882555E+00 0.66215067E+04</pdfrwt>
<totfact> 0.12028463E-03</totfact>
</mgrwt>
</event>
<event>
 6    1  0.4630212E-004  0.1488747E+04  0.7818608E-02  0.8891971E-01
          2   -1    0    0  501    0  0.00000000000E+00  0.00000000000E+00  0.16771051844E+04  0.16771051844E+04  0.00000000000E+00 0.  1.
         -2   -1    0    0    0  501 -0.00000000000E+00 -0.00000000000E+00 -0.33038591192E+03  0.33038591192E+03  0.00000000000E+00 0. -1.
         23    2    1    2    0    0  0.33640110164E+03 -0.14978917415E+03 -0.19190919630E+03  0.42541016828E+03  0.92423880997E+02 0.  0.
         13    1    3    3    0    0  0.22859693400E+02 -0.41484486224E+02 -0.16423132054E+02  0.50132299430E+02  0.00000000000E+00 0. -1.
        -13    1    3    3    0    0  0.31354140824E+03 -0.10830468792E+03 -0.17548606425E+03  0.37527786885E+03  0.00000000000E+00 0.  1.
         22    1    1    2    0    0 -0.33640110164E+03  0.14978917415E+03  0.15386284688E+04  0.15820809280E+04  0.00000000000E+00 0.  1.
<mgrwt>
<rscale>  0 0.14887470E+04</rscale>
<asrwt>0</asrwt>
<pdfrwt beam="1">  1        2 0.25801618E+00 0.14887470E+04</pdfrwt>
<pdfrwt beam="2">  1       -2 0.50828603E-01 0.14887470E+04</pdfrwt>
<totfact> 0.35729315E+01</totfact>
</mgrwt>
</event>
<event>
 6    1  0.4630212E-004  0.2988059E+04  0.7818608E-02  0.8247149E-01
         -2   -1    0    0    0  501 -0.00000000000E+00  0.00000000000E+00  0.59314220969E+03  0.59314220969E+03  0.00000000000E+00 0. -1.
          2   -1    0    0  501    0  0.00000000000E+00 -0.00000000000E+00 -0.37632204230E+04  0.37632204230E+04  0.00000000000E+00 0.  1.
         23    2    1    2    0    0 -0.12806778182E+04 -0.75282403283E+03 -0.17979113913E+04  0.23340566505E+04  0.91953129982E+02 0.  0.
         13    1    3    3    0    0 -0.76151210308E+03 -0.46145897281E+03 -0.10087066869E+04  0.13454866209E+04  0.00000000000E+00 0.  1.
        -13    1    3    3    0    0 -0.51916571511E+03 -0.29136506002E+03 -0.78920470437E+03  0.98857002956E+03  0.00000000000E+00 0. -1.
         22    1    1    2    0    0  0.12806778182E+04  0.75282403283E+03 -0.13721668220E+04  0.20223059823E+04  0.00000000000E+00 0.  1.
<mgrwt>
<rscale>  0 0.29880595E+04</rscale>
<asrwt>0</asrwt>
<pdfrwt beam="1">  1        2 0.57895699E+00 0.29880595E+04</pdfrwt>
<pdfrwt beam="2">  1       -2 0.91252647E-01 0.29880595E+04</pdfrwt>
<totfact> 0.45893226E-01</totfact>
</mgrwt>
</event>
<event>
 6    1  0.4630212E-004  0.1610392E+04  0.7818608E-02  0.8814189E-01
          2   -1    0    0  501    0  0.00000000000E+00  0.00000000000E+00  0.79920753938E+03  0.79920753938E+03  0.00000000000E+00 0.  1.
         -2   -1    0    0    0  501 -0.00000000000E+00 -0.00000000000E+00 -0.81122959772E+03  0.81122959772E+03  0.00000000000E+00 0. -1.
         23    2    1    2    0    0  0.33968919784E+02 -0.66328427540E+03 -0.45658692722E+03  0.81122637632E+03  0.92285936223E+02 0.  0.
         13    1    3    3    0    0  0.37474026410E+02 -0.39047735140E+03 -0.21792114141E+03  0.44873877533E+03  0.00000000000E+00 0. -1.
        -13    1    3    3    0    0 -0.35051066265E+01 -0.27280692401E+03 -0.23866578581E+03  0.36248760099E+03  0.00000000000E+00 0.  1.
         22    1    1    2    0    0 -0.33968919784E+02  0.66328427540E+03  0.44456486888E+03  0.79921076078E+03  0.00000000000E+00 0.  1.
<mgrwt>
<rscale>  0 0.16103923E+04</rscale>
<asrwt>0</asrwt>
<pdfrwt beam="1">  1        2 0.12295501E+00 0.16103923E+04</pdfrwt>
<pdfrwt beam="2">  1       -2 0.12480455E+00 0.16103923E+04</pdfrwt>
<totfact> 0.15906796E+01</totfact>
</mgrwt>
</event>
<event>
 6    1  0.4630212E-004  0.3128814E+04  0.7818608E-02  0.8207874E-01
          2   -1    0    0  501    0  0.00000000000E+00  0.00000000000E+00  0.16247649304E+04  0.16247649304E+04  0.00000000000E+00 0.  1.
         -2   -1    0    0    0  501 -0.00000000000E+00 -0.00000000000E+00 -0.15062909685E+04  0.15062909685E+04  0.00000000000E+00 0. -1.
         23    2    1    2    0    0 -0.11163254652E+04 -0.69362654529E+03  0.90611936365E+03  0.15988399848E+04  0.89087974115E+02 0.  0.
         11    1    3    3    0    0 -0.10489965472E+04 -0.64624452778E+03  0.82188787637E+03  0.14810555111E+04  0.00000000000E+00 0. -1.
        -11    1    3    3    0    0 -0.67328918040E+02 -0.47382017518E+02  0.84231487286E+02  0.11778447368E+03  0.00000000000E+00 0.  1.
         22    1    1    2    0    0  0.11163254652E+04  0.69362654529E+03 -0.78764540176E+03  0.15322159142E+04  0.00000000000E+00 0. -1.
<mgrwt>
<rscale>  0 0.31288137E+04</rscale>
<asrwt>0</asrwt>
<pdfrwt beam="1">  1        2 0.24996384E+00 0.31288137E+04</pdfrwt>
<pdfrwt beam="2">  1       -2 0.23173707E+00 0.31288137E+04</pdfrwt>
<totfact> 0.76295880E-01</totfact>
</mgrwt>
</event>
<event>
 6    1  0.4630212E-004  0.3119705E+04  0.7818608E-02  0.8210351E-01
          2   -1    0    0  501    0  0.00000000000E+00  0.00000000000E+00  0.36228567069E+04  0.36228567069E+04  0.00000000000E+00 0.  1.
         -2   -1    0    0    0  501 -0.00000000000E+00 -0.00000000000E+00 -0.67160809531E+03  0.67160809531E+03  0.00000000000E+00 0. -1.
         23    2    1    2    0    0 -0.13607377848E+04  0.42717753317E+03  0.61168464393E+03  0.15544561302E+04  0.89932160483E+02 0.  0.
         11    1    3    3    0    0 -0.11863774666E+04  0.39520648229E+03  0.55727175457E+03  0.13690257358E+04  0.00000000000E+00 0. -1.
        -11    1    3    3    0    0 -0.17436031819E+03  0.31971050882E+02  0.54412889360E+02  0.18543039444E+03  0.00000000000E+00 0.  1.
         22    1    1    2    0    0  0.13607377848E+04 -0.42717753317E+03  0.23395639676E+04  0.27400086720E+04  0.00000000000E+00 0.  1.
<mgrwt>
<rscale>  0 0.31197050E+04</rscale>
<asrwt>0</asrwt>
<pdfrwt beam="1">  1        2 0.55736256E+00 0.31197050E+04</pdfrwt>
<pdfrwt beam="2">  1       -2 0.10332432E+00 0.31197050E+04</pdfrwt>
<totfact> 0.42994254E-01</totfact>
</mgrwt>
</event>
<event>
 6    1  0.4630212E-004  0.2898991E+04  0.7818608E-02  0.8273178E-01
          2   -1    0    0  501    0  0.00000000000E+00  0.00000000000E+00  0.39080327570E+04  0.39080327570E+04  0.00000000000E+00 0.  1.
         -2   -1    0    0    0  501 -0.00000000000E+00 -0.00000000000E+00 -0.53762002168E+03  0.53762002168E+03  0.00000000000E+00 0. -1.
         23    2    1    2    0    0  0.42097524317E+03 -0.13770447333E+04  0.19219007099E+04  0.24031887176E+04  0.90229267946E+02 0.  0.
         13    1    3    3    0    0  0.32348192460E+03 -0.92819819631E+03  0.13395397400E+04  0.16614930521E+04  0.00000000000E+00 0. -1.
        -13    1    3    3    0    0  0.97493318569E+02 -0.44884653703E+03  0.58236096991E+03  0.74169566551E+03  0.00000000000E+00 0.  1.
         22    1    1    2    0    0 -0.42097524317E+03  0.13770447333E+04  0.14485120255E+04  0.20424640611E+04  0.00000000000E+00 0. -1.
<mgrwt>
<rscale>  0 0.28989906E+04</rscale>
<asrwt>0</asrwt>
<pdfrwt beam="1">  1        2 0.60123579E+00 0.28989906E+04</pdfrwt>
<pdfrwt beam="2">  1       -2 0.82710775E-01 0.28989906E+04</pdfrwt>
<totfact> 0.44827792E-01</totfact>
</mgrwt>
</event>
<event>
 6    1  0.4630212E-004  0.4169598E+04  0.7818608E-02  0.7971181E-01
         -2   -1    0    0    0  501 -0.00000000000E+00  0.00000000000E+00  0.11314966947E+04  0.11314966947E+04  0.00000000000E+00 0. -1.
          2   -1    0    0  501    0  0.00000000000E+00 -0.00000000000E+00 -0.38412726697E+04  0.38412726697E+04  0.00000000000E+00 0.  1.
         23    2    1    2    0    0  0.16746599148E+04  0.91743665643E+02 -0.28302640984E+04  0.32912759453E+04  0.95915333577E+02 0.  0.
         13    1    3    3    0    0  0.11964973423E+04  0.10883374694E+03 -0.20283259559E+04  0.23574471061E+04  0.00000000000E+00 0. -1.
        -13    1    3    3    0    0  0.47816257254E+03 -0.17090081294E+02 -0.80193814245E+03  0.93382883923E+03  0.00000000000E+00 0.  1.
         22    1    1    2    0    0 -0.16746599148E+04 -0.91743665643E+02  0.12048812341E+03  0.16814934191E+04  0.00000000000E+00 0. -1.
<mgrwt>
<rscale>  0 0.41695982E+04</rscale>
<asrwt>0</asrwt>
<pdfrwt beam="1">  1        2 0.59096504E+00 0.41695982E+04</pdfrwt>
<pdfrwt beam="2">  1       -2 0.17407641E+00 0.41695982E+04</pdfrwt>
<totfact> 0.70650404E-02</totfact>
</mgrwt>
</event>
<event>
 6    1  0.4630212E-004  0.3447093E+04  0.7818608E-02  0.8126444E-01
          2   -1    0    0  501    0  0.00000000000E+00  0.00000000000E+00  0.42834235762E+04  0.42834235762E+04  0.00000000000E+00 0.  1.
         -2   -1    0    0    0  501 -0.00000000000E+00 -0.00000000000E+00 -0.69351375245E+03  0.69351375245E+03  0.00000000000E+00 0. -1.
         23    2    1    2    0    0 -0.11994160298E+04 -0.68345693810E+03  0.32832193350E+04  0.35628046423E+04  0.91299061220E+02 0.  0.
         13    1    3    3    0    0 -0.25350119120E+03 -0.17751575972E+03  0.80107730977E+03  0.85877794284E+03  0.00000000000E+00 0.  1.
        -13    1    3    3    0    0 -0.94591483857E+03 -0.50594117838E+03  0.24821420252E+04  0.27040266994E+04  0.00000000000E+00 0. -1.
         22    1    1    2    0    0  0.11994160298E+04  0.68345693810E+03  0.30669048871E+03  0.14141326863E+04  0.00000000000E+00 0. -1.
<mgrwt>
<rscale>  0 0.34470934E+04</rscale>
<asrwt>0</asrwt>
<pdfrwt beam="1">  1        2 0.65898823E+00 0.34470934E+04</pdfrwt>
<pdfrwt beam="2">  1       -2 0.10669443E+00 0.34470934E+04</pdfrwt>
<totfact> 0.11418011E-01</totfact>
</mgrwt>
</event>
<event>
 6    1  0.4630212E-004  0.3025520E+04  0.7818608E-02  0.8236481E-01
          2   -1    0    0  501    0  0.00000000000E+00  0.00000000000E+00  0.22738032937E+04  0.22738032937E+04  0.00000000000E+00 0.  1.
         -2   -1    0    0    0  501 -0.00000000000E+00 -0.00000000000E+00 -0.10064381799E+04  0.10064381799E+04  0.00000000000E+00 0. -1.
         23    2    1    2    0    0  0.83318880973E+03 -0.82335714582E+01  0.20013901481E+04  0.21698072634E+04  0.90717425435E+02 0.  0.
         11    1    3    3    0    0  0.38567369951E+03  0.11965859690E+02  0.10366689363E+04  0.11061509245E+04  0.00000000000E+00 0. -1.
        -11    1    3    3    0    0  0.44751511022E+03 -0.20199431149E+02  0.96472121174E+03  0.10636563389E+04  0.00000000000E+00 0.  1.
         22    1    1    2    0    0 -0.83318880973E+03  0.82335714582E+01 -0.73402503425E+03  0.11104342102E+04  0.00000000000E+00 0. -1.
<mgrwt>
<rscale>  0 0.30255198E+04</rscale>
<asrwt>0</asrwt>
<pdfrwt beam="1">  1        2 0.34981589E+00 0.30255198E+04</pdfrwt>
<pdfrwt beam="2">  1       -2 0.15483664E+00 0.30255198E+04</pdfrwt>
<totfact> 0.11032046E+00</totfact>
</mgrwt>
</event>
<event>
 6    1  0.4630212E-004  0.6157658E+03  0.7818608E-02  0.9873226E-01
         -2   -1    0    0    0  501 -0.00000000000E+00  0.00000000000E+00  0.44486290666E+02  0.44486290666E+02  0.00000000000E+00 0.  1.
          2   -1    0    0  501    0  0.00000000000E+00 -0.00000000000E+00 -0.21308110384E+04  0.21308110384E+04  0.00000000000E+00 0. -1.
         23    2    1    2    0    0  0.16961950192E+03 -0.23710475460E+03 -0.80113577172E+03  0.85745813396E+03  0.91795896840E+02 0.  0.
         13    1    3    3    0    0  0.15525639428E+03 -0.18466133122E+03 -0.55136057189E+03  0.60183289661E+03  0.00000000000E+00 0.  1.
        -13    1    3    3    0    0  0.14363107639E+02 -0.52443423385E+02 -0.24977519983E+03  0.25562523735E+03  0.00000000000E+00 0. -1.
         22    1    1    2    0    0 -0.16961950192E+03  0.23710475460E+03 -0.12851889760E+04  0.13178391951E+04  0.00000000000E+00 0. -1.
<mgrwt>
<rscale>  0 0.61576580E+03</rscale>
<asrwt>0</asrwt>
<pdfrwt beam="1">  1        2 0.32781709E+00 0.61576580E+03</pdfrwt>
<pdfrwt beam="2">  1       -2 0.68440445E-02 0.61576580E+03</pdfrwt>
<totfact> 0.73848181E+02</totfact>
</mgrwt>
</event>
<event>
 6    1  0.4630212E-004  0.2406406E+04  0.7818608E-02  0.8437109E-01
          1   -1    0    0  501    0  0.00000000000E+00  0.00000000000E+00  0.24449353393E+04  0.24449353393E+04  0.00000000000E+00 0.  1.
         -1   -1    0    0    0  501 -0.00000000000E+00 -0.00000000000E+00 -0.59212097833E+03  0.59212097833E+03  0.00000000000E+00 0. -1.
         23    2    1    2    0    0 -0.58567288773E+03  0.61109155295E+03 -0.14852168722E+03  0.86408793421E+03  0.90242168488E+02 0.  0.
         13    1    3    3    0    0 -0.44847381576E+03  0.50309212184E+03 -0.14530377793E+03  0.68945169110E+03  0.00000000000E+00 0. -1.
        -13    1    3    3    0    0 -0.13719907196E+03  0.10799943111E+03 -0.32179092882E+01  0.17463624311E+03  0.00000000000E+00 0.  1.
         22    1    1    2    0    0  0.58567288773E+03 -0.61109155295E+03  0.20013360482E+04  0.21729683834E+04  0.00000000000E+00 0.  1.
<mgrwt>
<rscale>  0 0.24064060E+04</rscale>
<asrwt>0</asrwt>
<pdfrwt beam="1">  1        1 0.37614389E+00 0.24064060E+04</pdfrwt>
<pdfrwt beam="2">  1       -1 0.91095536E-01 0.24064060E+04</pdfrwt>
<totfact> 0.15575466E+00</totfact>
</mgrwt>
</event>
<event>
 6    1  0.4630212E-004  0.2249363E+04  0.7818608E-02  0.8498159E-01
          2   -1    0    0  501    0  0.00000000000E+00  0.00000000000E+00  0.21796871065E+04  0.21796871065E+04  0.00000000000E+00 0.  1.
         -2   -1    0    0    0  501 -0.00000000000E+00 -0.00000000000E+00 -0.58031653753E+03  0.58031653753E+03  0.00000000000E+00 0. -1.
         23    2    1    2    0    0 -0.89500964371E+03  0.27307509787E+03  0.40712920522E+02  0.94203061440E+03  0.10075646459E+03 0.  0.
         11    1    3    3    0    0 -0.85084151506E+02  0.16577664404E+02  0.32039570942E+02  0.92415723233E+02  0.00000000000E+00 0. -1.
        -11    1    3    3    0    0 -0.80992549220E+03  0.25649743347E+03  0.86733495802E+01  0.84961489116E+03  0.00000000000E+00 0.  1.
         22    1    1    2    0    0  0.89500964371E+03 -0.27307509787E+03  0.15586576485E+04  0.18179730297E+04  0.00000000000E+00 0.  1.
<mgrwt>
<rscale>  0 0.22493630E+04</rscale>
<asrwt>0</asrwt>
<pdfrwt beam="1">  1        2 0.33533647E+00 0.22493630E+04</pdfrwt>
<pdfrwt beam="2">  1       -2 0.89279468E-01 0.22493630E+04</pdfrwt>
<totfact> 0.51952713E+00</totfact>
</mgrwt>
</event>
<event>
 6    1  0.4630212E-004  0.1795199E+04  0.7818608E-02  0.8708857E-01
         -1   -1    0    0    0  501 -0.00000000000E+00  0.00000000000E+00  0.96228633758E+03  0.96228633758E+03  0.00000000000E+00 0.  1.
          1   -1    0    0  501    0  0.00000000000E+00 -0.00000000000E+00 -0.83726087526E+03  0.83726087526E+03  0.00000000000E+00 0. -1.
         23    2    1    2    0    0 -0.75292068875E+03  0.47412150263E+03  0.16178023153E+03  0.90902395325E+03  0.92037717548E+02 0.  0.
         13    1    3    3    0    0 -0.40529494776E+03  0.26312061057E+03  0.41682194599E+02  0.48500912954E+03  0.00000000000E+00 0.  1.
        -13    1    3    3    0    0 -0.34762574099E+03  0.21100089206E+03  0.12009803693E+03  0.42401482371E+03  0.00000000000E+00 0. -1.
         22    1    1    2    0    0  0.75292068875E+03 -0.47412150263E+03 -0.36754769205E+02  0.89052325959E+03  0.00000000000E+00 0.  1.
<mgrwt>
<rscale>  0 0.17951988E+04</rscale>
<asrwt>0</asrwt>
<pdfrwt beam="1">  1        1 0.12880937E+00 0.17951988E+04</pdfrwt>
<pdfrwt beam="2">  1       -1 0.14804405E+00 0.17951988E+04</pdfrwt>
<totfact> 0.70064708E+00</totfact>
</mgrwt>
</event>
<event>
 6    1  0.4630212E-004  0.2486894E+04  0.7818608E-02  0.8407669E-01
          2   -1    0    0  501    0  0.00000000000E+00  0.00000000000E+00  0.15254763419E+04  0.15254763419E+04  0.00000000000E+00 0.  1.
         -2   -1    0    0    0  501 -0.00000000000E+00 -0.00000000000E+00 -0.10135593605E+04  0.10135593605E+04  0.00000000000E+00 0. -1.
         23    2    1    2    0    0  0.86934183147E+03 -0.59113804905E+03 -0.41879567615E+03  0.11349611089E+04  0.86876276654E+02 0.  0.
         13    1    3    3    0    0  0.54796752028E+03 -0.35482508804E+03 -0.21713849195E+03  0.68798137407E+03  0.00000000000E+00 0.  1.
        -13    1    3    3    0    0  0.32137431119E+03 -0.23631296101E+03 -0.20165718420E+03  0.44697973486E+03  0.00000000000E+00 0. -1.
         22    1    1    2    0    0 -0.86934183147E+03  0.59113804905E+03  0.93071265754E+03  0.14040745934E+04  0.00000000000E+00 0.  1.
<mgrwt>
<rscale>  0 0.24868943E+04</rscale>
<asrwt>0</asrwt>
<pdfrwt beam="1">  1        2 0.23468867E+00 0.24868943E+04</pdfrwt>
<pdfrwt beam="2">  1       -2 0.15593221E+00 0.24868943E+04</pdfrwt>
<totfact> 0.29622205E+00</totfact>
</mgrwt>
</event>
<event>
 6    1  0.4630212E-004  0.3851789E+04  0.7818608E-02  0.8035132E-01
          2   -1    0    0  501    0  0.00000000000E+00  0.00000000000E+00  0.35261094553E+04  0.35261094553E+04  0.00000000000E+00 0.  1.
         -2   -1    0    0    0  501 -0.00000000000E+00 -0.00000000000E+00 -0.10518870168E+04  0.10518870168E+04  0.00000000000E+00 0. -1.
         23    2    1    2    0    0  0.17582655593E+04  0.87205185604E+02  0.21609553197E+04  0.27899140329E+04  0.12161371570E+03 0.  0.
         13    1    3    3    0    0  0.77913004044E+03 -0.11178481363E+02  0.90102809564E+03  0.11912263460E+04  0.00000000000E+00 0. -1.
        -13    1    3    3    0    0  0.97913551889E+03  0.98383666967E+02  0.12599272240E+04  0.15986876869E+04  0.00000000000E+00 0.  1.
         22    1    1    2    0    0 -0.17582655593E+04 -0.87205185604E+02  0.31326711893E+03  0.17880824392E+04  0.00000000000E+00 0. -1.
<mgrwt>
<rscale>  0 0.38517885E+04</rscale>
<asrwt>0</asrwt>
<pdfrwt beam="1">  1        2 0.54247837E+00 0.38517885E+04</pdfrwt>
<pdfrwt beam="2">  1       -2 0.16182877E+00 0.38517885E+04</pdfrwt>
<totfact> 0.15166180E-01</totfact>
</mgrwt>
</event>
<event>
 6    1  0.4630212E-004  0.6233076E+04  0.7818608E-02  0.7662156E-01
          2   -1    0    0  501    0  0.00000000000E+00  0.00000000000E+00  0.22269775799E+04  0.22269775799E+04  0.00000000000E+00 0.  1.
         -2   -1    0    0    0  501 -0.00000000000E+00 -0.00000000000E+00 -0.43614304249E+04  0.43614304249E+04  0.00000000000E+00 0. -1.
         23    2    1    2    0    0 -0.29321417681E+03  0.19274626471E+04  0.15016652773E+04  0.24625818077E+04  0.90684867093E+02 0.  0.
         11    1    3    3    0    0 -0.19897887148E+03  0.14917238248E+04  0.11911227711E+04  0.19192722622E+04  0.00000000000E+00 0.  1.
        -11    1    3    3    0    0 -0.94235305332E+02  0.43573882227E+03  0.31054250616E+03  0.54330954541E+03  0.00000000000E+00 0. -1.
         22    1    1    2    0    0  0.29321417681E+03 -0.19274626471E+04 -0.36361181223E+04  0.41258261971E+04  0.00000000000E+00 0. -1.
<mgrwt>
<rscale>  0 0.62330756E+04</rscale>
<asrwt>0</asrwt>
<pdfrwt beam="1">  1        2 0.34261194E+00 0.62330756E+04</pdfrwt>
<pdfrwt beam="2">  1       -2 0.67098929E+00 0.62330756E+04</pdfrwt>
<totfact> 0.96415773E-04</totfact>
</mgrwt>
</event>
<event>
 6    1  0.4630212E-004  0.2038414E+04  0.7818608E-02  0.8588869E-01
          2   -1    0    0  501    0  0.00000000000E+00  0.00000000000E+00  0.11974732351E+04  0.11974732351E+04  0.00000000000E+00 0.  1.
         -2   -1    0    0    0  501 -0.00000000000E+00 -0.00000000000E+00 -0.86747875051E+03  0.86747875051E+03  0.00000000000E+00 0. -1.
         23    2    1    2    0    0  0.79564302626E+02 -0.79937603245E+03  0.79741327289E+03  0.11355366622E+04  0.90791321222E+02 0.  0.
         13    1    3    3    0    0  0.16213617328E+02 -0.17481072881E+03  0.22992409687E+03  0.28928664438E+03  0.00000000000E+00 0. -1.
        -13    1    3    3    0    0  0.63350685298E+02 -0.62456530364E+03  0.56748917602E+03  0.84625001787E+03  0.00000000000E+00 0.  1.
         22    1    1    2    0    0 -0.79564302626E+02  0.79937603245E+03 -0.46741878835E+03  0.92941532331E+03  0.00000000000E+00 0. -1.
<mgrwt>
<rscale>  0 0.20384137E+04</rscale>
<asrwt>0</asrwt>
<pdfrwt beam="1">  1        2 0.18422665E+00 0.20384137E+04</pdfrwt>
<pdfrwt beam="2">  1       -2 0.13345827E+00 0.20384137E+04</pdfrwt>
<totfact> 0.71525920E+00</totfact>
</mgrwt>
</event>
<event>
 6    1  0.4630212E-004  0.1546931E+04  0.7818608E-02  0.8853830E-01
          2   -1    0    0  501    0  0.00000000000E+00  0.00000000000E+00  0.16958634489E+04  0.16958634489E+04  0.00000000000E+00 0.  1.
         -2   -1    0    0    0  501 -0.00000000000E+00 -0.00000000000E+00 -0.35276969964E+03  0.35276969964E+03  0.00000000000E+00 0. -1.
         23    2    1    2    0    0  0.37218597241E+03 -0.67028859928E+03  0.77782576270E+03  0.10960907080E+04  0.92696918384E+02 0.  0.
         11    1    3    3    0    0  0.15287953414E+03 -0.32551196049E+03  0.30856395826E+03  0.47385852817E+03  0.00000000000E+00 0.  1.
        -11    1    3    3    0    0  0.21930643826E+03 -0.34477663880E+03  0.46926180445E+03  0.62223217985E+03  0.00000000000E+00 0. -1.
         22    1    1    2    0    0 -0.37218597241E+03  0.67028859928E+03  0.56526798658E+03  0.95254244054E+03  0.00000000000E+00 0.  1.
<mgrwt>
<rscale>  0 0.15469315E+04</rscale>
<asrwt>0</asrwt>
<pdfrwt beam="1">  1        2 0.26090206E+00 0.15469315E+04</pdfrwt>
<pdfrwt beam="2">  1       -2 0.54272263E-01 0.15469315E+04</pdfrwt>
<totfact> 0.30335998E+01</totfact>
</mgrwt>
</event>
<event>
 6    1  0.4630212E-004  0.1576296E+04  0.7818608E-02  0.8835244E-01
          2   -1    0    0  501    0  0.00000000000E+00  0.00000000000E+00  0.99017901591E+03  0.99017901591E+03  0.00000000000E+00 0.  1.
         -2   -1    0    0    0  501 -0.00000000000E+00 -0.00000000000E+00 -0.62733858959E+03  0.62733858959E+03  0.00000000000E+00 0. -1.
         23    2    1    2    0    0 -0.68712694681E+03 -0.36760019729E+03  0.28493290933E+03  0.83435547205E+03  0.87686628636E+02 0.  0.
         13    1    3    3    0    0 -0.58237017914E+03 -0.29377116910E+03  0.26760202308E+03  0.70503004766E+03  0.00000000000E+00 0. -1.
        -13    1    3    3    0    0 -0.10475676767E+03 -0.73829028191E+02  0.17330886257E+02  0.12932542439E+03  0.00000000000E+00 0.  1.
         22    1    1    2    0    0  0.68712694681E+03  0.36760019729E+03  0.77907516993E+02  0.78316213345E+03  0.00000000000E+00 0. -1.
<mgrwt>
<rscale>  0 0.15762963E+04</rscale>
<asrwt>0</asrwt>
<pdfrwt beam="1">  1        2 0.15233523E+00 0.15762963E+04</pdfrwt>
<pdfrwt beam="2">  1       -2 0.96513630E-01 0.15762963E+04</pdfrwt>
<totfact> 0.22056192E+01</totfact>
</mgrwt>
</event>
<event>
 6    1  0.4630212E-004  0.1618648E+04  0.7818608E-02  0.8809173E-01
         -2   -1    0    0    0  501 -0.00000000000E+00  0.00000000000E+00  0.70436144520E+03  0.70436144520E+03  0.00000000000E+00 0. -1.
          2   -1    0    0  501    0  0.00000000000E+00 -0.00000000000E+00 -0.92992829388E+03  0.92992829388E+03  0.00000000000E+00 0.  1.
         23    2    1    2    0    0  0.95171219626E+02  0.16938829947E+03  0.67732173078E+03  0.71073262447E+03  0.92877227861E+02 0.  0.
         13    1    3    3    0    0 -0.45184071191E+00  0.88974069484E+02  0.32286085622E+03  0.33489658356E+03  0.00000000000E+00 0.  1.
        -13    1    3    3    0    0  0.95623060338E+02  0.80414229985E+02  0.35446087456E+03  0.37583604090E+03  0.00000000000E+00 0. -1.
         22    1    1    2    0    0 -0.95171219626E+02 -0.16938829947E+03 -0.90288857946E+03  0.92355711461E+03  0.00000000000E+00 0.  1.
<mgrwt>
<rscale>  0 0.16186484E+04</rscale>
<asrwt>0</asrwt>
<pdfrwt beam="1">  1        2 0.14306589E+00 0.16186484E+04</pdfrwt>
<pdfrwt beam="2">  1       -2 0.10836330E+00 0.16186484E+04</pdfrwt>
<totfact> 0.18265727E+01</totfact>
</mgrwt>
</event>
<event>
 6    1  0.4630212E-004  0.3584362E+04  0.7818608E-02  0.8094083E-01
         -2   -1    0    0    0  501 -0.00000000000E+00  0.00000000000E+00  0.16237833259E+04  0.16237833259E+04  0.00000000000E+00 0. -1.
          2   -1    0    0  501    0  0.00000000000E+00 -0.00000000000E+00 -0.19780431591E+04  0.19780431591E+04  0.00000000000E+00 0.  1.
         23    2    1    2    0    0 -0.14241488976E+03 -0.11480167091E+04 -0.15515516683E+04  0.19369745085E+04  0.79582044955E+02 0.  0.
         11    1    3    3    0    0 -0.47060449304E+02 -0.67152751606E+03 -0.87468361900E+03  0.11037369814E+04  0.00000000000E+00 0.  1.
        -11    1    3    3    0    0 -0.95354440459E+02 -0.47648919302E+03 -0.67686804930E+03  0.83323752708E+03  0.00000000000E+00 0. -1.
         22    1    1    2    0    0  0.14241488976E+03  0.11480167091E+04  0.11972918351E+04  0.16648519765E+04  0.00000000000E+00 0. -1.
<mgrwt>
<rscale>  0 0.35843624E+04</rscale>
<asrwt>0</asrwt>
<pdfrwt beam="1">  1        2 0.30431433E+00 0.35843624E+04</pdfrwt>
<pdfrwt beam="2">  1       -2 0.24981282E+00 0.35843624E+04</pdfrwt>
<totfact> 0.36135578E-01</totfact>
</mgrwt>
</event>
<event>
 6    1  0.4630212E-004  0.2118643E+04  0.7818608E-02  0.8553075E-01
         -2   -1    0    0    0  501 -0.00000000000E+00  0.00000000000E+00  0.10788543179E+04  0.10788543179E+04  0.00000000000E+00 0. -1.
          2   -1    0    0  501    0  0.00000000000E+00 -0.00000000000E+00 -0.10401423400E+04  0.10401423400E+04  0.00000000000E+00 0.  1.
         23    2    1    2    0    0  0.24637135904E+03 -0.71489360819E+03  0.75874959464E+03  0.10748578324E+04  0.88581571677E+02 0.  0.
         11    1    3    3    0    0  0.13315983672E+03 -0.49000861945E+03  0.47212166969E+03  0.69335334443E+03  0.00000000000E+00 0. -1.
        -11    1    3    3    0    0  0.11321152232E+03 -0.22488498874E+03  0.28662792495E+03  0.38150448793E+03  0.00000000000E+00 0.  1.
         22    1    1    2    0    0 -0.24637135904E+03  0.71489360819E+03 -0.72003761672E+03  0.10441388256E+04  0.00000000000E+00 0.  1.
<mgrwt>
<rscale>  0 0.21186430E+04</rscale>
<asrwt>0</asrwt>
<pdfrwt beam="1">  1        2 0.16002190E+00 0.21186430E+04</pdfrwt>
<pdfrwt beam="2">  1       -2 0.16597759E+00 0.21186430E+04</pdfrwt>
<totfact> 0.49762789E+00</totfact>
</mgrwt>
</event>
<event>
 6    1  0.4630212E-004  0.1717475E+04  0.7818608E-02  0.8751460E-01
          2   -1    0    0  501    0  0.00000000000E+00  0.00000000000E+00  0.23766921208E+04  0.23766921208E+04  0.00000000000E+00 0.  1.
         -2   -1    0    0    0  501 -0.00000000000E+00 -0.00000000000E+00 -0.31027571262E+03  0.31027571262E+03  0.00000000000E+00 0. -1.
         23    2    1    2    0    0  0.16503344174E+03 -0.83920052074E+03  0.10996656351E+04  0.13961926368E+04  0.92713640777E+02 0.  0.
         13    1    3    3    0    0  0.82699768737E+02 -0.57004347056E+03  0.79039458234E+03  0.97801452232E+03  0.00000000000E+00 0.  1.
        -13    1    3    3    0    0  0.82333673006E+02 -0.26915705018E+03  0.30927105279E+03  0.41817811452E+03  0.00000000000E+00 0. -1.
         22    1    1    2    0    0 -0.16503344174E+03  0.83920052074E+03  0.96675077305E+03  0.12907751966E+04  0.00000000000E+00 0. -1.
<mgrwt>
<rscale>  0 0.17174747E+04</rscale>
<asrwt>0</asrwt>
<pdfrwt beam="1">  1        2 0.36564493E+00 0.17174747E+04</pdfrwt>
<pdfrwt beam="2">  1       -2 0.47734727E-01 0.17174747E+04</pdfrwt>
<totfact> 0.16216893E+01</totfact>
</mgrwt>
</event>
<event>
 6    1  0.4630212E-004  0.1303938E+04  0.7818608E-02  0.9026448E-01
         -2   -1    0    0    0  501 -0.00000000000E+00  0.00000000000E+00  0.95188732374E+03  0.95188732374E+03  0.00000000000E+00 0. -1.
          2   -1    0    0  501    0  0.00000000000E+00 -0.00000000000E+00 -0.44654828839E+03  0.44654828839E+03  0.00000000000E+00 0.  1.
         23    2    1    2    0    0  0.50500827103E+03 -0.34393214415E+03  0.20153300798E+02  0.61822546698E+03  0.92053782666E+02 0.  0.
         11    1    3    3    0    0  0.37070256847E+03 -0.23252320078E+03 -0.23921489916E+02  0.43824613045E+03  0.00000000000E+00 0.  1.
        -11    1    3    3    0    0  0.13430570255E+03 -0.11140894337E+03  0.44074790714E+02  0.17997933653E+03  0.00000000000E+00 0. -1.
         22    1    1    2    0    0 -0.50500827103E+03  0.34393214415E+03  0.48518573455E+03  0.78021014515E+03  0.00000000000E+00 0.  1.
<mgrwt>
<rscale>  0 0.13039381E+04</rscale>
<asrwt>0</asrwt>
<pdfrwt beam="1">  1        2 0.68699737E-01 0.13039381E+04</pdfrwt>
<pdfrwt beam="2">  1       -2 0.14644420E+00 0.13039381E+04</pdfrwt>
<totfact> 0.21929138E+01</totfact>
</mgrwt>
</event>
<event>
 6    1  0.4630212E-004  0.5475064E+03  0.7818608E-02  0.1002073E+00
          1   -1    0    0  501    0  0.00000000000E+00  0.00000000000E+00  0.32315371737E+03  0.32315371737E+03  0.00000000000E+00 0.  1.
         -1   -1    0    0    0  501 -0.00000000000E+00 -0.00000000000E+00 -0.23190451118E+03  0.23190451118E+03  0.00000000000E+00 0. -1.
         23    2    1    2    0    0 -0.14601885638E+03  0.18077685224E+01  0.27246897429E+03  0.32232366128E+03  0.91260211615E+02 0.  0.
         13    1    3    3    0    0 -0.11838512695E+03  0.25873511619E+02  0.14136490860E+03  0.18619482879E+03  0.00000000000E+00 0. -1.
        -13    1    3    3    0    0 -0.27633729433E+02 -0.24065743097E+02  0.13110406570E+03  0.13612883249E+03  0.00000000000E+00 0.  1.
         22    1    1    2    0    0  0.14601885638E+03 -0.18077685224E+01 -0.18121976810E+03  0.23273456726E+03  0.00000000000E+00 0. -1.
<mgrwt>
<rscale>  0 0.54750636E+03</rscale>
<asrwt>0</asrwt>
<pdfrwt beam="1">  1        1 0.49715957E-01 0.54750636E+03</pdfrwt>
<pdfrwt beam="2">  1       -1 0.35677617E-01 0.54750636E+03</pdfrwt>
<totfact> 0.60183473E+02</totfact>
</mgrwt>
</event>
<event>
 6    1  0.4630212E-004  0.2658784E+04  0.7818608E-02  0.8348503E-01
          2   -1    0    0  501    0  0.00000000000E+00  0.00000000000E+00  0.25494335575E+04  0.25494335575E+04  0.00000000000E+00 0.  1.
         -2   -1    0    0    0  501 -0.00000000000E+00 -0.00000000000E+00 -0.69320612118E+03  0.69320612118E+03  0.00000000000E+00 0. -1.
         23    2    1    2    0    0  0.12018189871E+04 -0.39653799314E+03  0.43918011906E+03  0.13427359029E+04  0.91919912331E+02 0.  0.
         13    1    3    3    0    0  0.70192719867E+03 -0.26410024047E+03  0.22491492368E+03  0.78296708241E+03  0.00000000000E+00 0.  1.
        -13    1    3    3    0    0  0.49989178844E+03 -0.13243775267E+03  0.21426519538E+03  0.55976882052E+03  0.00000000000E+00 0. -1.
         22    1    1    2    0    0 -0.12018189871E+04  0.39653799314E+03  0.14170473173E+04  0.18999037758E+04  0.00000000000E+00 0.  1.
<mgrwt>
<rscale>  0 0.26587839E+04</rscale>
<asrwt>0</asrwt>
<pdfrwt beam="1">  1        2 0.39222054E+00 0.26587839E+04</pdfrwt>
<pdfrwt beam="2">  1       -2 0.10664710E+00 0.26587839E+04</pdfrwt>
<totfact> 0.20301657E+00</totfact>
</mgrwt>
</event>
<event>
 6    1  0.4630212E-004  0.3359026E+04  0.7818608E-02  0.8148037E-01
          2   -1    0    0  501    0  0.00000000000E+00  0.00000000000E+00  0.32803583758E+04  0.32803583758E+04  0.00000000000E+00 0.  1.
         -2   -1    0    0    0  501 -0.00000000000E+00 -0.00000000000E+00 -0.85989500106E+03  0.85989500106E+03  0.00000000000E+00 0. -1.
         23    2    1    2    0    0 -0.12872268787E+04  0.77554372918E+03  0.21321009236E+04  0.26100331259E+04  0.89428502079E+02 0.  0.
         11    1    3    3    0    0 -0.52514554643E+03  0.27537175945E+03  0.79554977389E+03  0.99222320754E+03  0.00000000000E+00 0. -1.
        -11    1    3    3    0    0 -0.76208133223E+03  0.50017196973E+03  0.13365511497E+04  0.16178099184E+04  0.00000000000E+00 0.  1.
         22    1    1    2    0    0  0.12872268787E+04 -0.77554372918E+03  0.28836245109E+03  0.15302202509E+04  0.00000000000E+00 0. -1.
<mgrwt>
<rscale>  0 0.33590259E+04</rscale>
<asrwt>0</asrwt>
<pdfrwt beam="1">  1        2 0.50467051E+00 0.33590259E+04</pdfrwt>
<pdfrwt beam="2">  1       -2 0.13229154E+00 0.33590259E+04</pdfrwt>
<totfact> 0.39595417E-01</totfact>
</mgrwt>
</event>
<event>
 6    1  0.4630212E-004  0.1944437E+04  0.7818608E-02  0.8633048E-01
         -2   -1    0    0    0  501 -0.00000000000E+00  0.00000000000E+00  0.70239950517E+03  0.70239950517E+03  0.00000000000E+00 0.  1.
          2   -1    0    0  501    0  0.00000000000E+00 -0.00000000000E+00 -0.13456849290E+04  0.13456849290E+04  0.00000000000E+00 0. -1.
         23    2    1    2    0    0  0.75285642557E+03  0.14154392020E+03  0.30462118536E+03  0.82933326243E+03  0.90399749578E+02 0.  0.
         13    1    3    3    0    0  0.59501581953E+03  0.11966707247E+03  0.27881167560E+03  0.66790716733E+03  0.00000000000E+00 0.  1.
        -13    1    3    3    0    0  0.15784060605E+03  0.21876847724E+02  0.25809509761E+02  0.16142609509E+03  0.00000000000E+00 0. -1.
         22    1    1    2    0    0 -0.75285642557E+03 -0.14154392020E+03 -0.94790660918E+03  0.12187511717E+04  0.00000000000E+00 0. -1.
<mgrwt>
<rscale>  0 0.19444366E+04</rscale>
<asrwt>0</asrwt>
<pdfrwt beam="1">  1        2 0.20702845E+00 0.19444366E+04</pdfrwt>
<pdfrwt beam="2">  1       -2 0.10806146E+00 0.19444366E+04</pdfrwt>
<totfact> 0.99560172E+00</totfact>
</mgrwt>
</event>
<event>
 6    1  0.4630212E-004  0.1335304E+04  0.7818608E-02  0.9002028E-01
          2   -1    0    0  501    0  0.00000000000E+00  0.00000000000E+00  0.86609996629E+03  0.86609996629E+03  0.00000000000E+00 0.  1.
         -2   -1    0    0    0  501 -0.00000000000E+00 -0.00000000000E+00 -0.51467397921E+03  0.51467397921E+03  0.00000000000E+00 0. -1.
         23    2    1    2    0    0 -0.27010443349E+03  0.49987780872E+03  0.53311514657E+03  0.78424634403E+03  0.89422256558E+02 0.  0.
         11    1    3    3    0    0 -0.13086107664E+03  0.28568035519E+03  0.34721363302E+03  0.46828964721E+03  0.00000000000E+00 0.  1.
        -11    1    3    3    0    0 -0.13924335685E+03  0.21419745353E+03  0.18590151355E+03  0.31595669682E+03  0.00000000000E+00 0. -1.
         22    1    1    2    0    0  0.27010443349E+03 -0.49987780872E+03 -0.18168915949E+03  0.59652760148E+03  0.00000000000E+00 0. -1.
<mgrwt>
<rscale>  0 0.13353039E+04</rscale>
<asrwt>0</asrwt>
<pdfrwt beam="1">  1        2 0.13324615E+00 0.13353039E+04</pdfrwt>
<pdfrwt beam="2">  1       -2 0.79180612E-01 0.13353039E+04</pdfrwt>
<totfact> 0.42800782E+01</totfact>
</mgrwt>
</event>
<event>
 6    1  0.4630212E-004  0.2935852E+04  0.7818608E-02  0.8262290E-01
         -2   -1    0    0    0  501 -0.00000000000E+00  0.00000000000E+00  0.45218553644E+03  0.45218553644E+03  0.00000000000E+00 0.  1.
          2   -1    0    0  501    0  0.00000000000E+00 -0.00000000000E+00 -0.47653142351E+04  0.47653142351E+04  0.00000000000E+00 0. -1.
         23    2    1    2    0    0 -0.94848786040E+03 -0.66656883211E+02 -0.41427535709E+04  0.42515287339E+04  0.94958227362E+02 0.  0.
         11    1    3    3    0    0 -0.61036774145E+03 -0.12919251896E+02 -0.28039529575E+04  0.28696459494E+04  0.00000000000E+00 0. -1.
        -11    1    3    3    0    0 -0.33812011895E+03 -0.53737631315E+02 -0.13388006134E+04  0.13818827846E+04  0.00000000000E+00 0.  1.
         22    1    1    2    0    0  0.94848786040E+03  0.66656883211E+02 -0.17037512781E+03  0.96597103765E+03  0.00000000000E+00 0.  1.
<mgrwt>
<rscale>  0 0.29358516E+04</rscale>
<asrwt>0</asrwt>
<pdfrwt beam="1">  1        2 0.73312527E+00 0.29358516E+04</pdfrwt>
<pdfrwt beam="2">  1       -2 0.69567005E-01 0.29358516E+04</pdfrwt>
<totfact> 0.10558120E-01</totfact>
</mgrwt>
</event>
<event>
 6    1  0.4630212E-004  0.2210377E+04  0.7818608E-02  0.8514121E-01
          2   -1    0    0  501    0  0.00000000000E+00  0.00000000000E+00  0.12507925895E+04  0.12507925895E+04  0.00000000000E+00 0.  1.
         -2   -1    0    0    0  501 -0.00000000000E+00 -0.00000000000E+00 -0.97653407682E+03  0.97653407682E+03  0.00000000000E+00 0. -1.
         23    2    1    2    0    0 -0.85129468252E+03 -0.15202493672E+03 -0.55306402703E+03  0.10305489916E+04  0.91308204992E+02 0.  0.
         11    1    3    3    0    0 -0.48377517555E+03 -0.49171766830E+02 -0.34134854568E+03  0.59411708675E+03  0.00000000000E+00 0. -1.
        -11    1    3    3    0    0 -0.36751950697E+03 -0.10285316989E+03 -0.21171548135E+03  0.43643190489E+03  0.00000000000E+00 0.  1.
         22    1    1    2    0    0  0.85129468252E+03  0.15202493672E+03  0.82732253967E+03  0.11967776746E+04  0.00000000000E+00 0.  1.
<mgrwt>
<rscale>  0 0.22103770E+04</rscale>
<asrwt>0</asrwt>
<pdfrwt beam="1">  1        2 0.19242963E+00 0.22103770E+04</pdfrwt>
<pdfrwt beam="2">  1       -2 0.15023601E+00 0.22103770E+04</pdfrwt>
<totfact> 0.48150794E+00</totfact>
</mgrwt>
</event>
<event>
 6    1  0.4630212E-004  0.1173106E+04  0.7818608E-02  0.9136728E-01
          2   -1    0    0  501    0  0.00000000000E+00  0.00000000000E+00  0.19949553604E+04  0.19949553604E+04  0.00000000000E+00 0.  1.
         -2   -1    0    0    0  501 -0.00000000000E+00 -0.00000000000E+00 -0.17245706917E+03  0.17245706917E+03  0.00000000000E+00 0. -1.
         23    2    1    2    0    0  0.48866673021E+03  0.23254245733E+03  0.13177521388E+04  0.14273855071E+04  0.89930632773E+02 0.  0.
         11    1    3    3    0    0  0.14119407191E+03  0.11336445905E+03  0.41795564182E+03  0.45549334249E+03  0.00000000000E+00 0.  1.
        -11    1    3    3    0    0  0.34747265830E+03  0.11917799828E+03  0.89979649702E+03  0.97189216459E+03  0.00000000000E+00 0. -1.
         22    1    1    2    0    0 -0.48866673021E+03 -0.23254245733E+03  0.50474615243E+03  0.74002692253E+03  0.00000000000E+00 0. -1.
<mgrwt>
<rscale>  0 0.11731055E+04</rscale>
<asrwt>0</asrwt>
<pdfrwt beam="1">  1        2 0.30691619E+00 0.11731055E+04</pdfrwt>
<pdfrwt beam="2">  1       -2 0.26531858E-01 0.11731055E+04</pdfrwt>
<totfact> 0.85683082E+01</totfact>
</mgrwt>
</event>
<event>
 6    1  0.4630212E-004  0.2365455E+04  0.7818608E-02  0.8452551E-01
          2   -1    0    0  501    0  0.00000000000E+00  0.00000000000E+00  0.27667625592E+04  0.27667625592E+04  0.00000000000E+00 0.  1.
         -2   -1    0    0    0  501 -0.00000000000E+00 -0.00000000000E+00 -0.50558878307E+03  0.50558878307E+03  0.00000000000E+00 0. -1.
         23    2    1    2    0    0 -0.39956213287E+03  0.15460333133E+03  0.26547124844E+04  0.26906084411E+04  0.91232233735E+02 0.  0.
         11    1    3    3    0    0 -0.93147194532E+02 -0.27676971826E+01  0.61267060943E+03  0.61971714166E+03  0.00000000000E+00 0. -1.
        -11    1    3    3    0    0 -0.30641493834E+03  0.15737102852E+03  0.20420418750E+04  0.20708912994E+04  0.00000000000E+00 0.  1.
         22    1    1    2    0    0  0.39956213287E+03 -0.15460333133E+03 -0.39353870830E+03  0.58174290113E+03  0.00000000000E+00 0. -1.
<mgrwt>
<rscale>  0 0.23654548E+04</rscale>
<asrwt>0</asrwt>
<pdfrwt beam="1">  1        2 0.42565577E+00 0.23654548E+04</pdfrwt>
<pdfrwt beam="2">  1       -2 0.77782891E-01 0.23654548E+04</pdfrwt>
<totfact> 0.32159244E+00</totfact>
</mgrwt>
</event>
<event>
 6    1  0.4630212E-004  0.7513834E+03  0.7818608E-02  0.9633183E-01
          2   -1    0    0  501    0  0.00000000000E+00  0.00000000000E+00  0.34582145565E+03  0.34582145565E+03  0.00000000000E+00 0.  1.
         -2   -1    0    0    0  501 -0.00000000000E+00 -0.00000000000E+00 -0.40814196653E+03  0.40814196653E+03  0.00000000000E+00 0. -1.
         23    2    1    2    0    0 -0.33801362736E+03  0.10979801495E+03 -0.13522121632E+03  0.39116412612E+03  0.91737559676E+02 0.  0.
         11    1    3    3    0    0 -0.17267301354E+03  0.10050589151E+03 -0.92343815152E+02  0.22010175835E+03  0.00000000000E+00 0. -1.
        -11    1    3    3    0    0 -0.16534061382E+03  0.92921234393E+01 -0.42877401167E+02  0.17106236777E+03  0.00000000000E+00 0.  1.
         22    1    1    2    0    0  0.33801362736E+03 -0.10979801495E+03  0.72900705437E+02  0.36279929606E+03  0.00000000000E+00 0.  1.
<mgrwt>
<rscale>  0 0.75138339E+03</rscale>
<asrwt>0</asrwt>
<pdfrwt beam="1">  1        2 0.53203301E-01 0.75138339E+03</pdfrwt>
<pdfrwt beam="2">  1       -2 0.62791072E-01 0.75138339E+03</pdfrwt>
<totfact> 0.22218965E+02</totfact>
</mgrwt>
</event>
<event>
 6    1  0.4630212E-004  0.4716575E+04  0.7818608E-02  0.7873780E-01
         -2   -1    0    0    0  501 -0.00000000000E+00  0.00000000000E+00  0.26678915922E+04  0.26678915922E+04  0.00000000000E+00 0. -1.
          2   -1    0    0  501    0  0.00000000000E+00 -0.00000000000E+00 -0.20846127032E+04  0.20846127032E+04  0.00000000000E+00 0.  1.
         23    2    1    2    0    0 -0.17175488948E+04 -0.31493765854E+02  0.19185307426E+04  0.25767599226E+04  0.89249230720E+02 0.  0.
         11    1    3    3    0    0 -0.96729946702E+03  0.18488001545E+02  0.11175626864E+04  0.14781598097E+04  0.00000000000E+00 0.  1.
        -11    1    3    3    0    0 -0.75024942782E+03 -0.49981767399E+02  0.80096805618E+03  0.10986001129E+04  0.00000000000E+00 0. -1.
         22    1    1    2    0    0  0.17175488948E+04  0.31493765854E+02 -0.13352518535E+04  0.21757443728E+04  0.00000000000E+00 0.  1.
<mgrwt>
<rscale>  0 0.47165753E+04</rscale>
<asrwt>0</asrwt>
<pdfrwt beam="1">  1        2 0.32070964E+00 0.47165753E+04</pdfrwt>
<pdfrwt beam="2">  1       -2 0.41044486E+00 0.47165753E+04</pdfrwt>
<totfact> 0.28304588E-02</totfact>
</mgrwt>
</event>
<event>
 6    1  0.4630212E-004  0.7103206E+03  0.7818608E-02  0.9699744E-01
          2   -1    0    0  501    0  0.00000000000E+00  0.00000000000E+00  0.25016025797E+03  0.25016025797E+03  0.00000000000E+00 0.  1.
         -2   -1    0    0    0  501 -0.00000000000E+00 -0.00000000000E+00 -0.50423213853E+03  0.50423213853E+03  0.00000000000E+00 0. -1.
         23    2    1    2    0    0 -0.25000362994E+03  0.22226779240E+03 -0.24224537594E+02  0.34851730784E+03  0.94724332237E+02 0.  0.
         11    1    3    3    0    0 -0.15006161561E+03  0.85900866891E+02  0.19169671444E+02  0.17396816868E+03  0.00000000000E+00 0. -1.
        -11    1    3    3    0    0 -0.99942014338E+02  0.13636692551E+03 -0.43394209038E+02  0.17454913916E+03  0.00000000000E+00 0.  1.
         22    1    1    2    0    0  0.25000362994E+03 -0.22226779240E+03 -0.22984734297E+03  0.40587508866E+03  0.00000000000E+00 0. -1.
<mgrwt>
<rscale>  0 0.71032061E+03</rscale>
<asrwt>0</asrwt>
<pdfrwt beam="1">  1        2 0.38486194E-01 0.71032061E+03</pdfrwt>
<pdfrwt beam="2">  1       -2 0.77574175E-01 0.71032061E+03</pdfrwt>
<totfact> 0.20112922E+02</totfact>
</mgrwt>
</event>
<event>
 6    1  0.4630212E-004  0.4891819E+03  0.7818608E-02  0.1016642E+00
          1   -1    0    0  501    0  0.00000000000E+00  0.00000000000E+00  0.78158144938E+03  0.78158144938E+03  0.00000000000E+00 0. -1.
         -1   -1    0    0    0  501 -0.00000000000E+00 -0.00000000000E+00 -0.76543184053E+02  0.76543184053E+02  0.00000000000E+00 0.  1.
         23    2    1    2    0    0  0.99453779559E+02 -0.77602127527E+02  0.71492589183E+03  0.73159041031E+03  0.90511619035E+02 0.  0.
         11    1    3    3    0    0  0.91246908600E+02 -0.34643404520E+02  0.32837138079E+03  0.34256959516E+03  0.00000000000E+00 0.  1.
        -11    1    3    3    0    0  0.82068709583E+01 -0.42958723007E+02  0.38655451104E+03  0.38902081515E+03  0.00000000000E+00 0. -1.
         22    1    1    2    0    0 -0.99453779559E+02  0.77602127527E+02 -0.98876264990E+01  0.12653422313E+03  0.00000000000E+00 0.  1.
<mgrwt>
<rscale>  0 0.48918190E+03</rscale>
<asrwt>0</asrwt>
<pdfrwt beam="1">  1        1 0.12024329E+00 0.48918190E+03</pdfrwt>
<pdfrwt beam="2">  1       -1 0.11775875E-01 0.48918190E+03</pdfrwt>
<totfact> 0.11253554E+03</totfact>
</mgrwt>
</event>
<event>
 6    1  0.4630212E-004  0.8530645E+03  0.7818608E-02  0.9486233E-01
          2   -1    0    0  501    0  0.00000000000E+00  0.00000000000E+00  0.15399774153E+04  0.15399774153E+04  0.00000000000E+00 0.  1.
         -2   -1    0    0    0  501 -0.00000000000E+00 -0.00000000000E+00 -0.11813794626E+03  0.11813794626E+03  0.00000000000E+00 0. -1.
         23    2    1    2    0    0 -0.35167726350E+03 -0.12144845852E+03  0.33351093836E+03  0.50794771446E+03  0.91404096622E+02 0.  0.
         13    1    3    3    0    0 -0.27963650864E+03 -0.13384276093E+03  0.26890928273E+03  0.41039330398E+03  0.00000000000E+00 0. -1.
        -13    1    3    3    0    0 -0.72040754868E+02  0.12394302407E+02  0.64601655635E+02  0.97554410484E+02  0.00000000000E+00 0.  1.
         22    1    1    2    0    0  0.35167726350E+03  0.12144845852E+03  0.10883285307E+04  0.11501676471E+04  0.00000000000E+00 0. -1.
<mgrwt>
<rscale>  0 0.85306452E+03</rscale>
<asrwt>0</asrwt>
<pdfrwt beam="1">  1        2 0.23691959E+00 0.85306452E+03</pdfrwt>
<pdfrwt beam="2">  1       -2 0.18175070E-01 0.85306452E+03</pdfrwt>
<totfact> 0.30612685E+02</totfact>
</mgrwt>
</event>
<event>
 6    1  0.4630212E-004  0.4605133E+04  0.7818608E-02  0.7892485E-01
         -2   -1    0    0    0  501 -0.00000000000E+00  0.00000000000E+00  0.14520529345E+04  0.14520529345E+04  0.00000000000E+00 0. -1.
          2   -1    0    0  501    0  0.00000000000E+00 -0.00000000000E+00 -0.36512535925E+04  0.36512535925E+04  0.00000000000E+00 0.  1.
         23    2    1    2    0    0  0.39934747550E+03 -0.53694771766E+03  0.13403796815E+04  0.15010266603E+04  0.93124040270E+02 0.  0.
         11    1    3    3    0    0  0.17706002654E+03 -0.29950921480E+03  0.62894277277E+03  0.71876632793E+03  0.00000000000E+00 0.  1.
        -11    1    3    3    0    0  0.22228744896E+03 -0.23743850286E+03  0.71143690869E+03  0.78226033240E+03  0.00000000000E+00 0. -1.
         22    1    1    2    0    0 -0.39934747550E+03  0.53694771766E+03 -0.35395803395E+04  0.36022798666E+04  0.00000000000E+00 0.  1.
<mgrwt>
<rscale>  0 0.46051334E+04</rscale>
<asrwt>0</asrwt>
<pdfrwt beam="1">  1        2 0.56173132E+00 0.46051334E+04</pdfrwt>
<pdfrwt beam="2">  1       -2 0.22339276E+00 0.46051334E+04</pdfrwt>
<totfact> 0.44684400E-02</totfact>
</mgrwt>
</event>
<event>
 6    1  0.4630212E-004  0.7820908E+03  0.7818608E-02  0.9586308E-01
          2   -1    0    0  501    0  0.00000000000E+00  0.00000000000E+00  0.64644020377E+02  0.64644020377E+02  0.00000000000E+00 0.  1.
         -2   -1    0    0    0  501 -0.00000000000E+00 -0.00000000000E+00 -0.23655168217E+04  0.23655168217E+04  0.00000000000E+00 0. -1.
         23    2    1    2    0    0  0.94338847521E+02 -0.32536105447E+03 -0.63110418564E+03  0.72637480391E+03  0.12069891761E+03 0.  0.
         11    1    3    3    0    0  0.66601400717E+02 -0.10702298175E+03 -0.33118865415E+03  0.35436646263E+03  0.00000000000E+00 0. -1.
        -11    1    3    3    0    0  0.27737446804E+02 -0.21833807272E+03 -0.29991553149E+03  0.37200834128E+03  0.00000000000E+00 0.  1.
         22    1    1    2    0    0 -0.94338847521E+02  0.32536105447E+03 -0.16697686157E+04  0.17037860382E+04  0.00000000000E+00 0. -1.
<mgrwt>
<rscale>  0 0.78209083E+03</rscale>
<asrwt>0</asrwt>
<pdfrwt beam="1">  1        2 0.99452334E-02 0.78209083E+03</pdfrwt>
<pdfrwt beam="2">  1       -2 0.36392568E+00 0.78209083E+03</pdfrwt>
<totfact> 0.89502923E+00</totfact>
</mgrwt>
</event>
<event>
 6    1  0.4630212E-004  0.6737639E+03  0.7818608E-02  0.9763182E-01
         -2   -1    0    0    0  501 -0.00000000000E+00  0.00000000000E+00  0.96860971821E+02  0.96860971821E+02  0.00000000000E+00 0. -1.
          2   -1    0    0  501    0  0.00000000000E+00 -0.00000000000E+00 -0.11716737232E+04  0.11716737232E+04  0.00000000000E+00 0.  1.
         23    2    1    2    0    0  0.52181932958E+02 -0.17461509728E+03 -0.27866749970E+02  0.20584503374E+03  0.91554551147E+02 0.  0.
         11    1    3    3    0    0  0.37969797573E+02 -0.16040228636E+03  0.76749617619E+01  0.16501364803E+03  0.00000000000E+00 0. -1.
        -11    1    3    3    0    0  0.14212135385E+02 -0.14212810923E+02 -0.35541711732E+02  0.40831385714E+02  0.00000000000E+00 0.  1.
         22    1    1    2    0    0 -0.52181932958E+02  0.17461509728E+03 -0.10469460014E+04  0.10626896612E+04  0.00000000000E+00 0.  1.
<mgrwt>
<rscale>  0 0.67376392E+03</rscale>
<asrwt>0</asrwt>
<pdfrwt beam="1">  1        2 0.18025750E+00 0.67376392E+03</pdfrwt>
<pdfrwt beam="2">  1       -2 0.14901687E-01 0.67376392E+03</pdfrwt>
<totfact> 0.70466121E+02</totfact>
</mgrwt>
</event>
<event>
 6    1  0.4630212E-004  0.2147332E+04  0.7818608E-02  0.8540675E-01
         -4   -1    0    0    0  501 -0.00000000000E+00  0.00000000000E+00  0.21186742527E+04  0.21186742527E+04  0.00000000000E+00 0. -1.
          4   -1    0    0  501    0  0.00000000000E+00 -0.00000000000E+00 -0.54409428279E+03  0.54409428279E+03  0.00000000000E+00 0.  1.
         23    2    1    2    0    0  0.51061122961E+03 -0.61903253661E+03  0.16694109335E+04  0.18547351074E+04  0.95834986395E+02 0.  0.
         11    1    3    3    0    0  0.21318284786E+03 -0.20456753167E+03  0.54265945451E+03  0.61787869781E+03  0.00000000000E+00 0. -1.
        -11    1    3    3    0    0  0.29742838175E+03 -0.41446500494E+03  0.11267514790E+04  0.12368564096E+04  0.00000000000E+00 0.  1.
         22    1    1    2    0    0 -0.51061122961E+03  0.61903253661E+03 -0.94830963614E+02  0.80803342805E+03  0.00000000000E+00 0.  1.
<mgrwt>
<rscale>  0 0.21473319E+04</rscale>
<asrwt>0</asrwt>
<pdfrwt beam="1">  1        4 0.83706814E-01 0.21473319E+04</pdfrwt>
<pdfrwt beam="2">  1       -4 0.32594988E+00 0.21473319E+04</pdfrwt>
<totfact> 0.48747151E-02</totfact>
</mgrwt>
</event>
<event>
 6    1  0.4630212E-004  0.6747084E+03  0.7818608E-02  0.9761489E-01
         -2   -1    0    0    0  501 -0.00000000000E+00  0.00000000000E+00  0.59824393734E+03  0.59824393734E+03  0.00000000000E+00 0. -1.
          2   -1    0    0  501    0  0.00000000000E+00 -0.00000000000E+00 -0.19023654420E+03  0.19023654420E+03  0.00000000000E+00 0.  1.
         23    2    1    2    0    0  0.45912736433E+02 -0.18085862109E+03 -0.11229119799E+03  0.23573420691E+03  0.90241248713E+02 0.  0.
         13    1    3    3    0    0  0.53955866796E+02 -0.61344104765E+02 -0.73309009540E+02  0.10976586733E+03  0.00000000000E+00 0. -1.
        -13    1    3    3    0    0 -0.80431303628E+01 -0.11951451633E+03 -0.38982188453E+02  0.12596833958E+03  0.00000000000E+00 0.  1.
         22    1    1    2    0    0 -0.45912736433E+02  0.18085862109E+03  0.52029859113E+03  0.55274627464E+03  0.00000000000E+00 0. -1.
<mgrwt>
<rscale>  0 0.67470841E+03</rscale>
<asrwt>0</asrwt>
<pdfrwt beam="1">  1        2 0.29267161E-01 0.67470841E+03</pdfrwt>
<pdfrwt beam="2">  1       -2 0.92037528E-01 0.67470841E+03</pdfrwt>
<totfact> 0.18561966E+02</totfact>
</mgrwt>
</event>
<event>
 6    1  0.4630212E-004  0.4315573E+04  0.7818608E-02  0.7943745E-01
         -2   -1    0    0    0  501 -0.00000000000E+00  0.00000000000E+00  0.15435887933E+04  0.15435887933E+04  0.00000000000E+00 0.  1.
          2   -1    0    0  501    0  0.00000000000E+00 -0.00000000000E+00 -0.30163756090E+04  0.30163756090E+04  0.00000000000E+00 0. -1.
         23    2    1    2    0    0  0.27987374113E+03 -0.13637224401E+04  0.10039972454E+04  0.17187450356E+04  0.89475270443E+02 0.  0.
         13    1    3    3    0    0  0.15226045424E+03 -0.94630900081E+03  0.68291347436E+03  0.11768835050E+04  0.00000000000E+00 0.  1.
        -13    1    3    3    0    0  0.12761328689E+03 -0.41741343930E+03  0.32108377104E+03  0.54186153058E+03  0.00000000000E+00 0. -1.
         22    1    1    2    0    0 -0.27987374113E+03  0.13637224401E+04 -0.24767840610E+04  0.28412193667E+04  0.00000000000E+00 0. -1.
<mgrwt>
<rscale>  0 0.43155735E+04</rscale>
<asrwt>0</asrwt>
<pdfrwt beam="1">  1        2 0.46405778E+00 0.43155735E+04</pdfrwt>
<pdfrwt beam="2">  1       -2 0.23747520E+00 0.43155735E+04</pdfrwt>
<totfact> 0.10036767E-01</totfact>
</mgrwt>
</event>
<event>
 6    1  0.4630212E-004  0.5159550E+03  0.7818608E-02  0.1009696E+00
         -2   -1    0    0    0  501 -0.00000000000E+00  0.00000000000E+00  0.79233778758E+02  0.79233778758E+02  0.00000000000E+00 0. -1.
          2   -1    0    0  501    0  0.00000000000E+00 -0.00000000000E+00 -0.83994966684E+03  0.83994966684E+03  0.00000000000E+00 0.  1.
         23    2    1    2    0    0 -0.16296031032E+03  0.18201131439E+03 -0.37285277943E+03  0.46079281267E+03  0.11673319909E+03 0.  0.
         13    1    3    3    0    0 -0.12269016380E+03  0.96311984023E+02 -0.14065502397E+03  0.21003026050E+03  0.00000000000E+00 0. -1.
        -13    1    3    3    0    0 -0.40270146523E+02  0.85699330368E+02 -0.23219775546E+03  0.25076255217E+03  0.00000000000E+00 0.  1.
         22    1    1    2    0    0  0.16296031032E+03 -0.18201131439E+03 -0.38786310865E+03  0.45839063293E+03  0.00000000000E+00 0. -1.
<mgrwt>
<rscale>  0 0.51595498E+03</rscale>
<asrwt>0</asrwt>
<pdfrwt beam="1">  1        2 0.12922302E+00 0.51595498E+03</pdfrwt>
<pdfrwt beam="2">  1       -2 0.12189812E-01 0.51595498E+03</pdfrwt>
<totfact> 0.16056914E+03</totfact>
</mgrwt>
</event>
<event>
 6    1  0.4630212E-004  0.2674631E+04  0.7818608E-02  0.8343284E-01
         -2   -1    0    0    0  501 -0.00000000000E+00  0.00000000000E+00  0.76235294050E+03  0.76235294050E+03  0.00000000000E+00 0. -1.
          2   -1    0    0  501    0  0.00000000000E+00 -0.00000000000E+00 -0.23459115586E+04  0.23459115586E+04  0.00000000000E+00 0.  1.
         23    2    1    2    0    0  0.52820776591E+03  0.10685766449E+04 -0.92231557788E+02  0.11990982175E+04  0.92034694425E+02 0.  0.
         11    1    3    3    0    0  0.40800527587E+02  0.10365632644E+03 -0.34107202923E+02  0.11650158090E+03  0.00000000000E+00 0. -1.
        -11    1    3    3    0    0  0.48740723832E+03  0.96492031846E+03 -0.58124354865E+02  0.10825966366E+04  0.00000000000E+00 0.  1.
         22    1    1    2    0    0 -0.52820776591E+03 -0.10685766449E+04 -0.14913270604E+04  0.19091662816E+04  0.00000000000E+00 0.  1.
<mgrwt>
<rscale>  0 0.26746309E+04</rscale>
<asrwt>0</asrwt>
<pdfrwt beam="1">  1        2 0.36090947E+00 0.26746309E+04</pdfrwt>
<pdfrwt beam="2">  1       -2 0.11728507E+00 0.26746309E+04</pdfrwt>
<totfact> 0.21084831E+00</totfact>
</mgrwt>
</event>
<event>
 6    1  0.4630212E-004  0.5344360E+04  0.7818608E-02  0.7777476E-01
         -2   -1    0    0    0  501 -0.00000000000E+00  0.00000000000E+00  0.24068475235E+04  0.24068475235E+04  0.00000000000E+00 0. -1.
          2   -1    0    0  501    0  0.00000000000E+00 -0.00000000000E+00 -0.29667629615E+04  0.29667629615E+04  0.00000000000E+00 0.  1.
         23    2    1    2    0    0  0.25977262463E+04 -0.16232005467E+03 -0.88501755921E+03  0.27505929784E+04  0.89309584367E+02 0.  0.
         11    1    3    3    0    0  0.16553752723E+04 -0.61051169448E+02 -0.55497866141E+03  0.17469962370E+04  0.00000000000E+00 0. -1.
        -11    1    3    3    0    0  0.94235097399E+03 -0.10126888523E+03 -0.33003889781E+03  0.10035967414E+04  0.00000000000E+00 0.  1.
         22    1    1    2    0    0 -0.25977262463E+04  0.16232005467E+03  0.32510212118E+03  0.26230175066E+04  0.00000000000E+00 0. -1.
<mgrwt>
<rscale>  0 0.53443601E+04</rscale>
<asrwt>0</asrwt>
<pdfrwt beam="1">  1        2 0.45642507E+00 0.53443601E+04</pdfrwt>
<pdfrwt beam="2">  1       -2 0.37028423E+00 0.53443601E+04</pdfrwt>
<totfact> 0.14959109E-02</totfact>
</mgrwt>
</event>
<event>
 6    1  0.4630212E-004  0.3358634E+04  0.7818608E-02  0.8148134E-01
         -2   -1    0    0    0  501 -0.00000000000E+00  0.00000000000E+00  0.16560570458E+04  0.16560570458E+04  0.00000000000E+00 0. -1.
          2   -1    0    0  501    0  0.00000000000E+00 -0.00000000000E+00 -0.17029032799E+04  0.17029032799E+04  0.00000000000E+00 0.  1.
         23    2    1    2    0    0  0.50692503249E+03 -0.15593256585E+04 -0.38051204805E+03  0.16856993259E+04  0.91232126593E+02 0.  0.
         11    1    3    3    0    0  0.21607785189E+03 -0.56937302419E+03 -0.17496634446E+03  0.63363120224E+03  0.00000000000E+00 0.  1.
        -11    1    3    3    0    0  0.29084718060E+03 -0.98995263429E+03 -0.20554570359E+03  0.10520681237E+04  0.00000000000E+00 0. -1.
         22    1    1    2    0    0 -0.50692503249E+03  0.15593256585E+04  0.33366581399E+03  0.16732609997E+04  0.00000000000E+00 0. -1.
<mgrwt>
<rscale>  0 0.33586336E+04</rscale>
<asrwt>0</asrwt>
<pdfrwt beam="1">  1        2 0.26198512E+00 0.33586336E+04</pdfrwt>
<pdfrwt beam="2">  1       -2 0.25477801E+00 0.33586336E+04</pdfrwt>
<totfact> 0.48779565E-01</totfact>
</mgrwt>
</event>
<event>
 6    1  0.4630212E-004  0.2921023E+04  0.7818608E-02  0.8266650E-01
         -2   -1    0    0    0  501 -0.00000000000E+00  0.00000000000E+00  0.13254118545E+04  0.13254118545E+04  0.00000000000E+00 0. -1.
          2   -1    0    0  501    0  0.00000000000E+00 -0.00000000000E+00 -0.16093822865E+04  0.16093822865E+04  0.00000000000E+00 0.  1.
         23    2    1    2    0    0  0.88087447774E+02 -0.94364352017E+03 -0.12569732703E+04  0.15765021933E+04  0.84586473960E+02 0.  0.
         11    1    3    3    0    0  0.57882705915E+02 -0.51365834886E+03 -0.75282489871E+03  0.91320350148E+03  0.00000000000E+00 0.  1.
        -11    1    3    3    0    0  0.30204741859E+02 -0.42998517131E+03 -0.50414837161E+03  0.66329869183E+03  0.00000000000E+00 0. -1.
         22    1    1    2    0    0 -0.88087447774E+02  0.94364352017E+03  0.97300283832E+03  0.13582919476E+04  0.00000000000E+00 0. -1.
<mgrwt>
<rscale>  0 0.29210234E+04</rscale>
<asrwt>0</asrwt>
<pdfrwt beam="1">  1        2 0.24759728E+00 0.29210234E+04</pdfrwt>
<pdfrwt beam="2">  1       -2 0.20390952E+00 0.29210234E+04</pdfrwt>
<totfact> 0.11904445E+00</totfact>
</mgrwt>
</event>
<event>
 6    1  0.4630212E-004  0.3291872E+04  0.7818608E-02  0.8164967E-01
          2   -1    0    0  501    0  0.00000000000E+00  0.00000000000E+00  0.32982281830E+04  0.32982281830E+04  0.00000000000E+00 0.  1.
         -2   -1    0    0    0  501 -0.00000000000E+00 -0.00000000000E+00 -0.82138183363E+03  0.82138183363E+03  0.00000000000E+00 0. -1.
         23    2    1    2    0    0  0.56565325217E+03  0.13376491753E+04  0.22052208651E+04  0.26420954408E+04  0.91653349992E+02 0.  0.
         11    1    3    3    0    0  0.39060349475E+03  0.10243454644E+04  0.16698244099E+04  0.19975405579E+04  0.00000000000E+00 0. -1.
        -11    1    3    3    0    0  0.17504975742E+03  0.31330371091E+03  0.53539645523E+03  0.64455488294E+03  0.00000000000E+00 0.  1.
         22    1    1    2    0    0 -0.56565325217E+03 -0.13376491753E+04  0.27162548417E+03  0.14775145757E+04  0.00000000000E+00 0. -1.
<mgrwt>
<rscale>  0 0.32918716E+04</rscale>
<asrwt>0</asrwt>
<pdfrwt beam="1">  1        2 0.50741971E+00 0.32918716E+04</pdfrwt>
<pdfrwt beam="2">  1       -2 0.12636644E+00 0.32918716E+04</pdfrwt>
<totfact> 0.43500583E-01</totfact>
</mgrwt>
</event>
<event>
 6    1  0.4630212E-004  0.5254657E+04  0.7818608E-02  0.7790381E-01
          2   -1    0    0  501    0  0.00000000000E+00  0.00000000000E+00  0.40667671301E+04  0.40667671301E+04  0.00000000000E+00 0.  1.
         -2   -1    0    0    0  501 -0.00000000000E+00 -0.00000000000E+00 -0.16973811863E+04  0.16973811863E+04  0.00000000000E+00 0. -1.
         23    2    1    2    0    0  0.10216262421E+04  0.92965938771E+03 -0.12655392733E+04  0.18756179913E+04  0.91468253281E+02 0.  0.
         13    1    3    3    0    0  0.55100968198E+03  0.52231649142E+03 -0.63718979932E+03  0.99117961400E+03  0.00000000000E+00 0. -1.
        -13    1    3    3    0    0  0.47061656015E+03  0.40734289629E+03 -0.62834947395E+03  0.88443837731E+03  0.00000000000E+00 0.  1.
         22    1    1    2    0    0 -0.10216262421E+04 -0.92965938771E+03  0.36349252171E+04  0.38885303252E+04  0.00000000000E+00 0.  1.
<mgrwt>
<rscale>  0 0.52546566E+04</rscale>
<asrwt>0</asrwt>
<pdfrwt beam="1">  1        2 0.62565648E+00 0.52546566E+04</pdfrwt>
<pdfrwt beam="2">  1       -2 0.26113557E+00 0.52546566E+04</pdfrwt>
<totfact> 0.11752908E-02</totfact>
</mgrwt>
</event>
<event>
 6    1  0.4630212E-004  0.2848226E+04  0.7818608E-02  0.8288451E-01
         -1   -1    0    0    0  501 -0.00000000000E+00  0.00000000000E+00  0.84067569173E+03  0.84067569173E+03  0.00000000000E+00 0. -1.
          1   -1    0    0  501    0  0.00000000000E+00 -0.00000000000E+00 -0.24124615098E+04  0.24124615098E+04  0.00000000000E+00 0.  1.
         23    2    1    2    0    0 -0.30165095621E+03 -0.61140885768E+03  0.63946520403E+03  0.93916979178E+03  0.91159530443E+02 0.  0.
         11    1    3    3    0    0 -0.58133975235E+02 -0.56181424243E+02  0.61948508980E+02  0.10185052416E+03  0.00000000000E+00 0. -1.
        -11    1    3    3    0    0 -0.24351698098E+03 -0.55522743344E+03  0.57751669505E+03  0.83731926762E+03  0.00000000000E+00 0.  1.
         22    1    1    2    0    0  0.30165095621E+03  0.61140885768E+03 -0.22112510221E+04  0.23139674098E+04  0.00000000000E+00 0.  1.
<mgrwt>
<rscale>  0 0.28482259E+04</rscale>
<asrwt>0</asrwt>
<pdfrwt beam="1">  1        1 0.37114792E+00 0.28482259E+04</pdfrwt>
<pdfrwt beam="2">  1       -1 0.12933472E+00 0.28482259E+04</pdfrwt>
<totfact> 0.68966359E-01</totfact>
</mgrwt>
</event>
<event>
 6    1  0.4630212E-004  0.3699537E+04  0.7818608E-02  0.8068064E-01
         -2   -1    0    0    0  501 -0.00000000000E+00  0.00000000000E+00  0.15471012527E+04  0.15471012527E+04  0.00000000000E+00 0. -1.
          2   -1    0    0  501    0  0.00000000000E+00 -0.00000000000E+00 -0.22116484237E+04  0.22116484237E+04  0.00000000000E+00 0.  1.
         23    2    1    2    0    0 -0.28639755510E+03 -0.70590108986E+02 -0.21866615180E+04  0.22083179275E+04  0.90404377643E+02 0.  0.
         13    1    3    3    0    0 -0.25749210734E+03 -0.50830029594E+02 -0.20682925369E+04  0.20848788683E+04  0.00000000000E+00 0. -1.
        -13    1    3    3    0    0 -0.28905447759E+02 -0.19760079393E+02 -0.11836898106E+03  0.12343905916E+03  0.00000000000E+00 0.  1.
         22    1    1    2    0    0  0.28639755510E+03  0.70590108986E+02  0.15221143470E+04  0.15504317490E+04  0.00000000000E+00 0. -1.
<mgrwt>
<rscale>  0 0.36995373E+04</rscale>
<asrwt>0</asrwt>
<pdfrwt beam="1">  1        2 0.34025360E+00 0.36995373E+04</pdfrwt>
<pdfrwt beam="2">  1       -2 0.23801558E+00 0.36995373E+04</pdfrwt>
<totfact> 0.31337046E-01</totfact>
</mgrwt>
</event>
<event>
 6    1  0.4630212E-004  0.2734980E+04  0.7818608E-02  0.8323744E-01
         -2   -1    0    0    0  501 -0.00000000000E+00  0.00000000000E+00  0.71821314036E+03  0.71821314036E+03  0.00000000000E+00 0. -1.
          2   -1    0    0  501    0  0.00000000000E+00 -0.00000000000E+00 -0.26037237263E+04  0.26037237263E+04  0.00000000000E+00 0.  1.
         23    2    1    2    0    0 -0.52031253778E+03  0.86631483789E+01  0.59097077533E+03  0.79137168871E+03  0.78882858101E+02 0.  0.
         13    1    3    3    0    0 -0.13189482830E+03  0.30495445024E+02  0.18322108101E+03  0.22780733620E+03  0.00000000000E+00 0. -1.
        -13    1    3    3    0    0 -0.38841770948E+03 -0.21832296645E+02  0.40774969432E+03  0.56356435251E+03  0.00000000000E+00 0.  1.
         22    1    1    2    0    0  0.52031253778E+03 -0.86631483789E+01 -0.24764813613E+04  0.25305651779E+04  0.00000000000E+00 0.  1.
<mgrwt>
<rscale>  0 0.27349798E+04</rscale>
<asrwt>0</asrwt>
<pdfrwt beam="1">  1        2 0.40057288E+00 0.27349798E+04</pdfrwt>
<pdfrwt beam="2">  1       -2 0.11049433E+00 0.27349798E+04</pdfrwt>
<totfact> 0.17210082E+00</totfact>
</mgrwt>
</event>
<event>
 6    1  0.4630212E-004  0.1957527E+04  0.7818608E-02  0.8626740E-01
          2   -1    0    0  501    0  0.00000000000E+00  0.00000000000E+00  0.33186605085E+04  0.33186605085E+04  0.00000000000E+00 0.  1.
         -2   -1    0    0    0  501 -0.00000000000E+00 -0.00000000000E+00 -0.28866394790E+03  0.28866394790E+03  0.00000000000E+00 0. -1.
         23    2    1    2    0    0  0.31125389037E+03  0.91114425324E+03  0.12154035982E+04  0.15531067333E+04  0.88723075857E+02 0.  0.
         11    1    3    3    0    0 -0.54954572148E+01  0.21646494099E+02  0.22009946935E+02  0.31356156028E+02  0.00000000000E+00 0.  1.
        -11    1    3    3    0    0  0.31674934759E+03  0.88949775914E+03  0.11933936512E+04  0.15217505773E+04  0.00000000000E+00 0. -1.
         22    1    1    2    0    0 -0.31125389037E+03 -0.91114425324E+03  0.18145929624E+04  0.20542177230E+04  0.00000000000E+00 0. -1.
<mgrwt>
<rscale>  0 0.19575266E+04</rscale>
<asrwt>0</asrwt>
<pdfrwt beam="1">  1        2 0.51056313E+00 0.19575266E+04</pdfrwt>
<pdfrwt beam="2">  1       -2 0.44409840E-01 0.19575266E+04</pdfrwt>
<totfact> 0.48744398E+00</totfact>
</mgrwt>
</event>
<event>
 6    1  0.4630212E-004  0.2382359E+04  0.7818608E-02  0.8446138E-01
         -2   -1    0    0    0  501 -0.00000000000E+00  0.00000000000E+00  0.45752309918E+03  0.45752309918E+03  0.00000000000E+00 0. -1.
          2   -1    0    0  501    0  0.00000000000E+00 -0.00000000000E+00 -0.31012829910E+04  0.31012829910E+04  0.00000000000E+00 0.  1.
         23    2    1    2    0    0 -0.11653828890E+04  0.21018018504E+03 -0.11588021084E+04  0.16594923703E+04  0.93806249200E+02 0.  0.
         11    1    3    3    0    0 -0.10067990895E+04  0.20145220122E+03 -0.96656612454E+03  0.14101338480E+04  0.00000000000E+00 0.  1.
        -11    1    3    3    0    0 -0.15858379945E+03  0.87279838174E+01 -0.19223598387E+03  0.24935852230E+03  0.00000000000E+00 0. -1.
         22    1    1    2    0    0  0.11653828890E+04 -0.21018018504E+03 -0.14849577834E+04  0.18993137199E+04  0.00000000000E+00 0. -1.
<mgrwt>
<rscale>  0 0.23823590E+04</rscale>
<asrwt>0</asrwt>
<pdfrwt beam="1">  1        2 0.47712045E+00 0.23823590E+04</pdfrwt>
<pdfrwt beam="2">  1       -2 0.70388171E-01 0.23823590E+04</pdfrwt>
<totfact> 0.24860257E+00</totfact>
</mgrwt>
</event>
<event>
 6    1  0.4630212E-004  0.1827017E+04  0.7818608E-02  0.8692063E-01
          2   -1    0    0  501    0  0.00000000000E+00  0.00000000000E+00  0.22394360242E+04  0.22394360242E+04  0.00000000000E+00 0. -1.
         -2   -1    0    0    0  501 -0.00000000000E+00 -0.00000000000E+00 -0.37263736886E+03  0.37263736886E+03  0.00000000000E+00 0.  1.
         23    2    1    2    0    0  0.53472944878E+03  0.32412712376E+03 -0.12121247144E+02  0.63183755465E+03  0.89876554740E+02 0.  0.
         13    1    3    3    0    0  0.28211518177E+03  0.11865496202E+03 -0.22192675236E+01  0.30606028973E+03  0.00000000000E+00 0.  1.
        -13    1    3    3    0    0  0.25261426700E+03  0.20547216173E+03 -0.99019796207E+01  0.32577726492E+03  0.00000000000E+00 0. -1.
         22    1    1    2    0    0 -0.53472944878E+03 -0.32412712376E+03  0.18789199025E+04  0.19802358384E+04  0.00000000000E+00 0. -1.
<mgrwt>
<rscale>  0 0.18270167E+04</rscale>
<asrwt>0</asrwt>
<pdfrwt beam="1">  1        2 0.34452861E+00 0.18270167E+04</pdfrwt>
<pdfrwt beam="2">  1       -2 0.57328827E-01 0.18270167E+04</pdfrwt>
<totfact> 0.13179896E+01</totfact>
</mgrwt>
</event>
<event>
 6    1  0.4630212E-004  0.2710387E+04  0.7818608E-02  0.8331643E-01
          2   -1    0    0  501    0  0.00000000000E+00  0.00000000000E+00  0.23142974813E+04  0.23142974813E+04  0.00000000000E+00 0.  1.
         -2   -1    0    0    0  501 -0.00000000000E+00 -0.00000000000E+00 -0.79356641228E+03  0.79356641228E+03  0.00000000000E+00 0. -1.
         23    2    1    2    0    0  0.10550625942E+04  0.20771148032E+03  0.17040387256E+04  0.20170372191E+04  0.91597096716E+02 0.  0.
         13    1    3    3    0    0  0.24645651968E+03  0.47475561644E+02  0.47349968846E+03  0.53590736142E+03  0.00000000000E+00 0. -1.
        -13    1    3    3    0    0  0.80860607451E+03  0.16023591867E+03  0.12305390371E+04  0.14811298577E+04  0.00000000000E+00 0.  1.
         22    1    1    2    0    0 -0.10550625942E+04 -0.20771148032E+03 -0.18330765662E+03  0.10908266744E+04  0.00000000000E+00 0. -1.
<mgrwt>
<rscale>  0 0.27103865E+04</rscale>
<asrwt>0</asrwt>
<pdfrwt beam="1">  1        2 0.35604576E+00 0.27103865E+04</pdfrwt>
<pdfrwt beam="2">  1       -2 0.12208714E+00 0.27103865E+04</pdfrwt>
<totfact> 0.19836441E+00</totfact>
</mgrwt>
</event>
<event>
 6    1  0.4630212E-004  0.9617550E+03  0.7818608E-02  0.9351515E-01
          2   -1    0    0  501    0  0.00000000000E+00  0.00000000000E+00  0.11249732685E+04  0.11249732685E+04  0.00000000000E+00 0. -1.
         -2   -1    0    0    0  501 -0.00000000000E+00 -0.00000000000E+00 -0.20555438373E+03  0.20555438373E+03  0.00000000000E+00 0.  1.
         23    2    1    2    0    0  0.25660811592E+03  0.19927735650E+03 -0.17646833185E+02  0.33873566309E+03  0.94187306790E+02 0.  0.
         13    1    3    3    0    0  0.18050746175E+03  0.17005036004E+03 -0.46395823912E+02  0.25229475059E+03  0.00000000000E+00 0.  1.
        -13    1    3    3    0    0  0.76100654168E+02  0.29226996459E+02  0.28748990726E+02  0.86440912504E+02  0.00000000000E+00 0. -1.
         22    1    1    2    0    0 -0.25660811592E+03 -0.19927735650E+03  0.93706571793E+03  0.99179198912E+03  0.00000000000E+00 0. -1.
<mgrwt>
<rscale>  0 0.96175504E+03</rscale>
<asrwt>0</asrwt>
<pdfrwt beam="1">  1        2 0.17307281E+00 0.96175504E+03</pdfrwt>
<pdfrwt beam="2">  1       -2 0.31623752E-01 0.96175504E+03</pdfrwt>
<totfact> 0.19508066E+02</totfact>
</mgrwt>
</event>
<event>
 6    1  0.4630212E-004  0.4867649E+04  0.7818608E-02  0.7849254E-01
         -1   -1    0    0    0  501 -0.00000000000E+00  0.00000000000E+00  0.27673255194E+04  0.27673255194E+04  0.00000000000E+00 0. -1.
          1   -1    0    0  501    0  0.00000000000E+00 -0.00000000000E+00 -0.21405145314E+04  0.21405145314E+04  0.00000000000E+00 0.  1.
         23    2    1    2    0    0 -0.20701631432E+04  0.10761770606E+04 -0.38185887271E+03  0.23659613374E+04  0.90688182214E+02 0.  0.
         11    1    3    3    0    0 -0.10742888138E+04  0.52312006267E+03 -0.16232320098E+03  0.12058606375E+04  0.00000000000E+00 0. -1.
        -11    1    3    3    0    0 -0.99587432935E+03  0.55305699794E+03 -0.21953567172E+03  0.11601006999E+04  0.00000000000E+00 0.  1.
         22    1    1    2    0    0  0.20701631432E+04 -0.10761770606E+04  0.10086698607E+04  0.25418787133E+04  0.00000000000E+00 0.  1.
<mgrwt>
<rscale>  0 0.48676485E+04</rscale>
<asrwt>0</asrwt>
<pdfrwt beam="1">  1        1 0.32930993E+00 0.48676485E+04</pdfrwt>
<pdfrwt beam="2">  1       -1 0.42574239E+00 0.48676485E+04</pdfrwt>
<totfact> 0.83116068E-03</totfact>
</mgrwt>
</event>
<event>
 6    1  0.4630212E-004  0.5193841E+03  0.7818608E-02  0.1008840E+00
          2   -1    0    0  501    0  0.00000000000E+00  0.00000000000E+00  0.11033193119E+04  0.11033193119E+04  0.00000000000E+00 0.  1.
         -2   -1    0    0    0  501 -0.00000000000E+00 -0.00000000000E+00 -0.61124604697E+02  0.61124604697E+02  0.00000000000E+00 0. -1.
         23    2    1    2    0    0  0.84929247535E+01  0.23838253911E+03  0.71896944549E+03  0.76273141427E+03  0.89127897079E+02 0.  0.
         11    1    3    3    0    0  0.19760546408E+02  0.88899644256E+02  0.16096379714E+03  0.18494044969E+03  0.00000000000E+00 0. -1.
        -11    1    3    3    0    0 -0.11267621655E+02  0.14948289486E+03  0.55800564836E+03  0.57779096458E+03  0.00000000000E+00 0.  1.
         22    1    1    2    0    0 -0.84929247535E+01 -0.23838253911E+03  0.32322526176E+03  0.40171250237E+03  0.00000000000E+00 0. -1.
<mgrwt>
<rscale>  0 0.51938408E+03</rscale>
<asrwt>0</asrwt>
<pdfrwt beam="1">  1        2 0.16974142E+00 0.51938408E+03</pdfrwt>
<pdfrwt beam="2">  1       -2 0.94037861E-02 0.51938408E+03</pdfrwt>
<totfact> 0.16597528E+03</totfact>
</mgrwt>
</event>
<event>
 6    1  0.4630212E-004  0.9015102E+03  0.7818608E-02  0.9423696E-01
         -2   -1    0    0    0  501 -0.00000000000E+00  0.00000000000E+00  0.17029949400E+03  0.17029949400E+03  0.00000000000E+00 0. -1.
          2   -1    0    0  501    0  0.00000000000E+00 -0.00000000000E+00 -0.11930754793E+04  0.11930754793E+04  0.00000000000E+00 0.  1.
         23    2    1    2    0    0 -0.43102632151E+03 -0.74876006091E+02 -0.38234476430E+03  0.58778342167E+03  0.88947882974E+02 0.  0.
         11    1    3    3    0    0 -0.17733835944E+02  0.44039214767E+01  0.13127506215E+01  0.18319573572E+02  0.00000000000E+00 0. -1.
        -11    1    3    3    0    0 -0.41329248556E+03 -0.79279927567E+02 -0.38365751492E+03  0.56946384810E+03  0.00000000000E+00 0.  1.
         22    1    1    2    0    0  0.43102632151E+03  0.74876006091E+02 -0.64043122098E+03  0.77559155160E+03  0.00000000000E+00 0.  1.
<mgrwt>
<rscale>  0 0.90151018E+03</rscale>
<asrwt>0</asrwt>
<pdfrwt beam="1">  1        2 0.18355007E+00 0.90151018E+03</pdfrwt>
<pdfrwt beam="2">  1       -2 0.26199922E-01 0.90151018E+03</pdfrwt>
<totfact> 0.25213005E+02</totfact>
</mgrwt>
</event>
<event>
 6    1  0.4650695E-004  0.4242788E+04  0.7818608E-02  0.7957283E-01
         -2   -1    0    0    0  501 -0.00000000000E+00  0.00000000000E+00  0.14135069288E+04  0.14135069288E+04  0.00000000000E+00 0. -1.
          2   -1    0    0  501    0  0.00000000000E+00 -0.00000000000E+00 -0.31837926157E+04  0.31837926157E+04  0.00000000000E+00 0.  1.
         23    2    1    2    0    0 -0.35033844543E+03 -0.94189940833E+03 -0.29086990863E+04  0.30787816522E+04  0.91948711315E+02 0.  0.
         11    1    3    3    0    0 -0.21975899058E+03 -0.46503014425E+03 -0.14410499884E+04  0.15300889249E+04  0.00000000000E+00 0. -1.
        -11    1    3    3    0    0 -0.13057945485E+03 -0.47686926408E+03 -0.14676490978E+04  0.15486927272E+04  0.00000000000E+00 0.  1.
         22    1    1    2    0    0  0.35033844543E+03  0.94189940833E+03  0.11384133994E+04  0.15185178924E+04  0.00000000000E+00 0. -1.
<mgrwt>
<rscale>  0 0.42427882E+04</rscale>
<asrwt>0</asrwt>
<pdfrwt beam="1">  1        2 0.48981425E+00 0.42427882E+04</pdfrwt>
<pdfrwt beam="2">  1       -2 0.21746261E+00 0.42427882E+04</pdfrwt>
<totfact> 0.10533145E-01</totfact>
</mgrwt>
</event>
<event>
 6    1  0.4630212E-004  0.1181871E+04  0.7818608E-02  0.9128875E-01
          2   -1    0    0  501    0  0.00000000000E+00  0.00000000000E+00  0.20232726620E+04  0.20232726620E+04  0.00000000000E+00 0.  1.
         -2   -1    0    0    0  501 -0.00000000000E+00 -0.00000000000E+00 -0.17259392310E+03  0.17259392310E+03  0.00000000000E+00 0. -1.
         23    2    1    2    0    0  0.54322343992E+03 -0.14230842888E+03  0.12513047484E+04  0.13745307371E+04  0.90707108066E+02 0.  0.
         13    1    3    3    0    0  0.24455347612E+03 -0.59215014295E+02  0.45381750316E+03  0.51890572051E+03  0.00000000000E+00 0. -1.
        -13    1    3    3    0    0  0.29866996380E+03 -0.83093414585E+02  0.79748724520E+03  0.85562501663E+03  0.00000000000E+00 0.  1.
         22    1    1    2    0    0 -0.54322343992E+03  0.14230842888E+03  0.59937399052E+03  0.82133584795E+03  0.00000000000E+00 0. -1.
<mgrwt>
<rscale>  0 0.11818707E+04</rscale>
<asrwt>0</asrwt>
<pdfrwt beam="1">  1        2 0.31127270E+00 0.11818707E+04</pdfrwt>
<pdfrwt beam="2">  1       -2 0.26552913E-01 0.11818707E+04</pdfrwt>
<totfact> 0.82474599E+01</totfact>
</mgrwt>
</event>
<event>
 6    1  0.4630212E-004  0.1088877E+04  0.7818608E-02  0.9216101E-01
          3   -1    0    0  501    0  0.00000000000E+00  0.00000000000E+00  0.11618170072E+04  0.11618170072E+04  0.00000000000E+00 0. -1.
         -3   -1    0    0    0  501 -0.00000000000E+00 -0.00000000000E+00 -0.25512927728E+03  0.25512927728E+03  0.00000000000E+00 0.  1.
         23    2    1    2    0    0 -0.26620161215E+03 -0.41549828782E+03  0.16806737707E+03  0.52865458063E+03  0.87902769545E+02 0.  0.
         13    1    3    3    0    0 -0.16707670289E+03 -0.23248788778E+03  0.54096723318E+02  0.29136179929E+03  0.00000000000E+00 0.  1.
        -13    1    3    3    0    0 -0.99124909253E+02 -0.18301040004E+03  0.11397065375E+03  0.23729278133E+03  0.00000000000E+00 0. -1.
         22    1    1    2    0    0  0.26620161215E+03  0.41549828782E+03  0.73862035284E+03  0.88829170385E+03  0.00000000000E+00 0.  1.
<mgrwt>
<rscale>  0 0.10888775E+04</rscale>
<asrwt>0</asrwt>
<pdfrwt beam="1">  1        3 0.17874107E+00 0.10888775E+04</pdfrwt>
<pdfrwt beam="2">  1       -3 0.39250659E-01 0.10888775E+04</pdfrwt>
<totfact> 0.34065130E+00</totfact>
</mgrwt>
</event>
<event>
 6    1  0.4630212E-004  0.2695860E+04  0.7818608E-02  0.8336349E-01
          2   -1    0    0  501    0  0.00000000000E+00  0.00000000000E+00  0.31908290688E+04  0.31908290688E+04  0.00000000000E+00 0.  1.
         -2   -1    0    0    0  501 -0.00000000000E+00 -0.00000000000E+00 -0.56941803549E+03  0.56941803549E+03  0.00000000000E+00 0. -1.
         23    2    1    2    0    0 -0.19786138335E+03  0.10169775967E+04  0.25115348478E+04  0.27183904273E+04  0.91905735122E+02 0.  0.
         13    1    3    3    0    0 -0.12904589640E+03  0.44390045827E+03  0.11646208490E+04  0.12530132410E+04  0.00000000000E+00 0. -1.
        -13    1    3    3    0    0 -0.68815486948E+02  0.57307713846E+03  0.13469139988E+04  0.14653771863E+04  0.00000000000E+00 0.  1.
         22    1    1    2    0    0  0.19786138335E+03 -0.10169775967E+04  0.10987618549E+03  0.10418566770E+04  0.00000000000E+00 0. -1.
<mgrwt>
<rscale>  0 0.26958602E+04</rscale>
<asrwt>0</asrwt>
<pdfrwt beam="1">  1        2 0.49089677E+00 0.26958602E+04</pdfrwt>
<pdfrwt beam="2">  1       -2 0.87602776E-01 0.26958602E+04</pdfrwt>
<totfact> 0.12973564E+00</totfact>
</mgrwt>
</event>
<event>
 6    1  0.4630212E-004  0.5993206E+03  0.7818608E-02  0.9906817E-01
          2   -1    0    0  501    0  0.00000000000E+00  0.00000000000E+00  0.21005029789E+04  0.21005029789E+04  0.00000000000E+00 0.  1.
         -2   -1    0    0    0  501 -0.00000000000E+00 -0.00000000000E+00 -0.42749897371E+02  0.42749897371E+02  0.00000000000E+00 0. -1.
         23    2    1    2    0    0  0.27930781734E+03  0.65404059983E+02  0.12583075317E+04  0.12938979829E+04  0.92431583940E+02 0.  0.
         13    1    3    3    0    0  0.11485962285E+03  0.13220770406E+02  0.32933562350E+03  0.34904079223E+03  0.00000000000E+00 0.  1.
        -13    1    3    3    0    0  0.16444819449E+03  0.52183289577E+02  0.92897190824E+03  0.94485719063E+03  0.00000000000E+00 0. -1.
         22    1    1    2    0    0 -0.27930781734E+03 -0.65404059983E+02  0.79944554977E+03  0.84935489340E+03  0.00000000000E+00 0. -1.
<mgrwt>
<rscale>  0 0.59932057E+03</rscale>
<asrwt>0</asrwt>
<pdfrwt beam="1">  1        2 0.32315422E+00 0.59932057E+03</pdfrwt>
<pdfrwt beam="2">  1       -2 0.65769089E-02 0.59932057E+03</pdfrwt>
<totfact> 0.81776340E+02</totfact>
</mgrwt>
</event>
<event>
 6    1  0.4630212E-004  0.1963135E+04  0.7818608E-02  0.8624053E-01
          2   -1    0    0  501    0  0.00000000000E+00  0.00000000000E+00  0.10768051826E+04  0.10768051826E+04  0.00000000000E+00 0.  1.
         -2   -1    0    0    0  501 -0.00000000000E+00 -0.00000000000E+00 -0.89475284487E+03  0.89475284487E+03  0.00000000000E+00 0. -1.
         23    2    1    2    0    0  0.80152396804E+03 -0.55788143502E+03  0.16932026354E+03  0.99491353093E+03  0.86667268793E+02 0.  0.
         13    1    3    3    0    0  0.39368371892E+03 -0.26577451025E+03  0.38946936039E+02  0.47659188481E+03  0.00000000000E+00 0. -1.
        -13    1    3    3    0    0  0.40784024913E+03 -0.29210692477E+03  0.13037332751E+03  0.51832164612E+03  0.00000000000E+00 0.  1.
         22    1    1    2    0    0 -0.80152396804E+03  0.55788143502E+03  0.12732074167E+02  0.97664449653E+03  0.00000000000E+00 0.  1.
<mgrwt>
<rscale>  0 0.19631347E+04</rscale>
<asrwt>0</asrwt>
<pdfrwt beam="1">  1        2 0.16566234E+00 0.19631347E+04</pdfrwt>
<pdfrwt beam="2">  1       -2 0.13765428E+00 0.19631347E+04</pdfrwt>
<totfact> 0.78750652E+00</totfact>
</mgrwt>
</event>
<event>
 6    1  0.4630212E-004  0.2667721E+04  0.7818608E-02  0.8345555E-01
          2   -1    0    0  501    0  0.00000000000E+00  0.00000000000E+00  0.22133351830E+04  0.22133351830E+04  0.00000000000E+00 0.  1.
         -2   -1    0    0    0  501 -0.00000000000E+00 -0.00000000000E+00 -0.80384753696E+03  0.80384753696E+03  0.00000000000E+00 0. -1.
         23    2    1    2    0    0 -0.57718528969E+03  0.75571789274E+03 -0.34985015986E+03  0.10173022467E+04  0.90864375508E+02 0.  0.
         11    1    3    3    0    0 -0.44430938530E+03  0.54689112845E+03 -0.22235786122E+03  0.73888006786E+03  0.00000000000E+00 0. -1.
        -11    1    3    3    0    0 -0.13287590439E+03  0.20882676429E+03 -0.12749229865E+03  0.27842217883E+03  0.00000000000E+00 0.  1.
         22    1    1    2    0    0  0.57718528969E+03 -0.75571789274E+03  0.17593378059E+04  0.19998804732E+04  0.00000000000E+00 0.  1.
<mgrwt>
<rscale>  0 0.26677212E+04</rscale>
<asrwt>0</asrwt>
<pdfrwt beam="1">  1        2 0.34051310E+00 0.26677212E+04</pdfrwt>
<pdfrwt beam="2">  1       -2 0.12366885E+00 0.26677212E+04</pdfrwt>
<totfact> 0.21986493E+00</totfact>
</mgrwt>
</event>
<event>
 6    1  0.4630212E-004  0.2505586E+04  0.7818608E-02  0.8400998E-01
          2   -1    0    0  501    0  0.00000000000E+00  0.00000000000E+00  0.24403419008E+04  0.24403419008E+04  0.00000000000E+00 0.  1.
         -2   -1    0    0    0  501 -0.00000000000E+00 -0.00000000000E+00 -0.64314347673E+03  0.64314347673E+03  0.00000000000E+00 0. -1.
         23    2    1    2    0    0 -0.11782005463E+04  0.30380298155E+03  0.12581903856E+04  0.17527027340E+04  0.92038298280E+02 0.  0.
         11    1    3    3    0    0 -0.67327219971E+03  0.21161425119E+03  0.76650918920E+03  0.10419272447E+04  0.00000000000E+00 0. -1.
        -11    1    3    3    0    0 -0.50492834656E+03  0.92188730361E+02  0.49168119641E+03  0.71077548922E+03  0.00000000000E+00 0.  1.
         22    1    1    2    0    0  0.11782005463E+04 -0.30380298155E+03  0.53900803843E+03  0.13307826435E+04  0.00000000000E+00 0. -1.
<mgrwt>
<rscale>  0 0.25055857E+04</rscale>
<asrwt>0</asrwt>
<pdfrwt beam="1">  1        2 0.37543721E+00 0.25055857E+04</pdfrwt>
<pdfrwt beam="2">  1       -2 0.98945151E-01 0.25055857E+04</pdfrwt>
<totfact> 0.28452275E+00</totfact>
</mgrwt>
</event>
<event>
 6    1  0.4630212E-004  0.1182552E+04  0.7818608E-02  0.9128267E-01
         -2   -1    0    0    0  501 -0.00000000000E+00  0.00000000000E+00  0.28351529103E+03  0.28351529103E+03  0.00000000000E+00 0. -1.
          2   -1    0    0  501    0  0.00000000000E+00 -0.00000000000E+00 -0.12331161114E+04  0.12331161114E+04  0.00000000000E+00 0.  1.
         23    2    1    2    0    0 -0.37673731231E+03  0.76646770363E+02  0.92553809443E+02  0.40582448746E+03  0.91222678611E+02 0.  0.
         13    1    3    3    0    0 -0.14432159912E+03 -0.14469793343E+02  0.43335378907E+02  0.15138049397E+03  0.00000000000E+00 0. -1.
        -13    1    3    3    0    0 -0.23241571319E+03  0.91116563705E+02  0.49218430536E+02  0.25444399349E+03  0.00000000000E+00 0.  1.
         22    1    1    2    0    0  0.37673731231E+03 -0.76646770363E+02 -0.10421546298E+04  0.11108069150E+04  0.00000000000E+00 0.  1.
<mgrwt>
<rscale>  0 0.11825519E+04</rscale>
<asrwt>0</asrwt>
<pdfrwt beam="1">  1        2 0.18971017E+00 0.11825519E+04</pdfrwt>
<pdfrwt beam="2">  1       -2 0.43617738E-01 0.11825519E+04</pdfrwt>
<totfact> 0.89068550E+01</totfact>
</mgrwt>
</event>
<event>
 6    1  0.5110585E-004  0.3920279E+04  0.7818608E-02  0.8020825E-01
          2   -1    0    0  501    0  0.00000000000E+00  0.00000000000E+00  0.29077225360E+04  0.29077225360E+04  0.00000000000E+00 0.  1.
         -2   -1    0    0    0  501 -0.00000000000E+00 -0.00000000000E+00 -0.13213595949E+04  0.13213595949E+04  0.00000000000E+00 0. -1.
         23    2    1    2    0    0 -0.88036454356E+03  0.45589522700E+03 -0.10298126871E+04  0.14313585733E+04  0.73423478515E+02 0.  0.
         13    1    3    3    0    0 -0.32579372006E+03  0.19994663482E+03 -0.36424844555E+03  0.52801243820E+03  0.00000000000E+00 0.  1.
        -13    1    3    3    0    0 -0.55457082350E+03  0.25594859218E+03 -0.66556424153E+03  0.90334613506E+03  0.00000000000E+00 0. -1.
         22    1    1    2    0    0  0.88036454356E+03 -0.45589522700E+03  0.26161756282E+04  0.27977235577E+04  0.00000000000E+00 0.  1.
<mgrwt>
<rscale>  0 0.39202791E+04</rscale>
<asrwt>0</asrwt>
<pdfrwt beam="1">  1        2 0.44734193E+00 0.39202791E+04</pdfrwt>
<pdfrwt beam="2">  1       -2 0.20328609E+00 0.39202791E+04</pdfrwt>
<totfact> 0.19960512E-01</totfact>
</mgrwt>
</event>
<event>
 6    1  0.4630212E-004  0.6934715E+03  0.7818608E-02  0.9728462E-01
         -4   -1    0    0    0  501 -0.00000000000E+00  0.00000000000E+00  0.17912307611E+03  0.17912307611E+03  0.00000000000E+00 0. -1.
          4   -1    0    0  501    0  0.00000000000E+00 -0.00000000000E+00 -0.67119040554E+03  0.67119040554E+03  0.00000000000E+00 0.  1.
         23    2    1    2    0    0 -0.13215609569E+03 -0.30976489666E+03 -0.18799914217E+03  0.39657678780E+03  0.92249370361E+02 0.  0.
         11    1    3    3    0    0 -0.62124315461E+02 -0.14527045328E+03 -0.14089489867E+03  0.21169390081E+03  0.00000000000E+00 0.  1.
        -11    1    3    3    0    0 -0.70031780233E+02 -0.16449444339E+03 -0.47104243494E+02  0.18488288699E+03  0.00000000000E+00 0. -1.
         22    1    1    2    0    0  0.13215609569E+03  0.30976489666E+03 -0.30406818727E+03  0.45373669385E+03  0.00000000000E+00 0.  1.
<mgrwt>
<rscale>  0 0.69347153E+03</rscale>
<asrwt>0</asrwt>
<pdfrwt beam="1">  1        4 0.10326006E+00 0.69347153E+03</pdfrwt>
<pdfrwt beam="2">  1       -4 0.27557396E-01 0.69347153E+03</pdfrwt>
<totfact> 0.19224165E+01</totfact>
</mgrwt>
</event>
<event>
 6    1  0.4630212E-004  0.3271928E+04  0.7818608E-02  0.8170075E-01
         -2   -1    0    0    0  501 -0.00000000000E+00  0.00000000000E+00  0.18941705127E+04  0.18941705127E+04  0.00000000000E+00 0. -1.
          2   -1    0    0  501    0  0.00000000000E+00 -0.00000000000E+00 -0.14129553995E+04  0.14129553995E+04  0.00000000000E+00 0.  1.
         23    2    1    2    0    0 -0.15303574372E+04 -0.48810953959E+03 -0.66503358372E+02  0.16099988302E+04  0.86190072122E+02 0.  0.
         13    1    3    3    0    0 -0.92259870022E+03 -0.33662436041E+03 -0.28872043638E+02  0.98251611518E+03  0.00000000000E+00 0. -1.
        -13    1    3    3    0    0 -0.60775873694E+03 -0.15148517918E+03 -0.37631314735E+02  0.62748271505E+03  0.00000000000E+00 0.  1.
         22    1    1    2    0    0  0.15303574372E+04  0.48810953959E+03  0.54771847161E+03  0.16971270819E+04  0.00000000000E+00 0.  1.
<mgrwt>
<rscale>  0 0.32719281E+04</rscale>
<asrwt>0</asrwt>
<pdfrwt beam="1">  1        2 0.21737775E+00 0.32719281E+04</pdfrwt>
<pdfrwt beam="2">  1       -2 0.29141085E+00 0.32719281E+04</pdfrwt>
<totfact> 0.42713058E-01</totfact>
</mgrwt>
</event>
<event>
 6    1  0.4630212E-004  0.1556524E+04  0.7818608E-02  0.8847711E-01
         -2   -1    0    0    0  501 -0.00000000000E+00  0.00000000000E+00  0.58265924105E+03  0.58265924105E+03  0.00000000000E+00 0. -1.
          2   -1    0    0  501    0  0.00000000000E+00 -0.00000000000E+00 -0.10395297412E+04  0.10395297412E+04  0.00000000000E+00 0.  1.
         23    2    1    2    0    0 -0.13006498953E+03 -0.61584316531E+03  0.24307022476E+03  0.68086187430E+03  0.91159486344E+02 0.  0.
         11    1    3    3    0    0  0.11772884640E+02 -0.10559991243E+03  0.46181733572E+02  0.11585635431E+03  0.00000000000E+00 0.  1.
        -11    1    3    3    0    0 -0.14183787417E+03 -0.51024325287E+03  0.19688849118E+03  0.56500551999E+03  0.00000000000E+00 0. -1.
         22    1    1    2    0    0  0.13006498953E+03  0.61584316531E+03 -0.69994072486E+03  0.94132710791E+03  0.00000000000E+00 0. -1.
<mgrwt>
<rscale>  0 0.15565238E+04</rscale>
<asrwt>0</asrwt>
<pdfrwt beam="1">  1        2 0.15992765E+00 0.15565238E+04</pdfrwt>
<pdfrwt beam="2">  1       -2 0.89639883E-01 0.15565238E+04</pdfrwt>
<totfact> 0.24395724E+01</totfact>
</mgrwt>
</event>
<event>
 6    1  0.4630212E-004  0.2048263E+04  0.7818608E-02  0.8584383E-01
          2   -1    0    0  501    0  0.00000000000E+00  0.00000000000E+00  0.19187094814E+04  0.19187094814E+04  0.00000000000E+00 0.  1.
         -2   -1    0    0    0  501 -0.00000000000E+00 -0.00000000000E+00 -0.54664108221E+03  0.54664108221E+03  0.00000000000E+00 0. -1.
         23    2    1    2    0    0 -0.23740252640E+03  0.86964609925E+03  0.12671457519E+04  0.15577972267E+04  0.91812555362E+02 0.  0.
         11    1    3    3    0    0 -0.88455124941E+02  0.19716010418E+03  0.26857137860E+03  0.34471292579E+03  0.00000000000E+00 0. -1.
        -11    1    3    3    0    0 -0.14894740146E+03  0.67248599507E+03  0.99857437331E+03  0.12130843009E+04  0.00000000000E+00 0.  1.
         22    1    1    2    0    0  0.23740252640E+03 -0.86964609925E+03  0.10492264727E+03  0.90755333694E+03  0.00000000000E+00 0. -1.
<mgrwt>
<rscale>  0 0.20482631E+04</rscale>
<asrwt>0</asrwt>
<pdfrwt beam="1">  1        2 0.29518607E+00 0.20482631E+04</pdfrwt>
<pdfrwt beam="2">  1       -2 0.84098629E-01 0.20482631E+04</pdfrwt>
<totfact> 0.84694847E+00</totfact>
</mgrwt>
</event>
<event>
 6    1  0.4630212E-004  0.1758252E+04  0.7818608E-02  0.8728821E-01
         -2   -1    0    0    0  501 -0.00000000000E+00  0.00000000000E+00  0.32927051788E+03  0.32927051788E+03  0.00000000000E+00 0. -1.
          2   -1    0    0  501    0  0.00000000000E+00 -0.00000000000E+00 -0.23471955335E+04  0.23471955335E+04  0.00000000000E+00 0.  1.
         23    2    1    2    0    0  0.40596032934E+03 -0.19230210268E+03 -0.21573563489E+04  0.22061204503E+04  0.10486723857E+03 0.  0.
         13    1    3    3    0    0  0.48431595231E+02 -0.33197196911E+02 -0.48744982541E+03  0.49097352840E+03  0.00000000000E+00 0. -1.
        -13    1    3    3    0    0  0.35752873411E+03 -0.15910490577E+03 -0.16699065235E+04  0.17151469219E+04  0.00000000000E+00 0.  1.
         22    1    1    2    0    0 -0.40596032934E+03  0.19230210268E+03  0.13943133327E+03  0.47034560101E+03  0.00000000000E+00 0. -1.
<mgrwt>
<rscale>  0 0.17582517E+04</rscale>
<asrwt>0</asrwt>
<pdfrwt beam="1">  1        2 0.36110701E+00 0.17582517E+04</pdfrwt>
<pdfrwt beam="2">  1       -2 0.50657002E-01 0.17582517E+04</pdfrwt>
<totfact> 0.14885296E+01</totfact>
</mgrwt>
</event>
<event>
 6    1  0.4630212E-004  0.2171864E+04  0.7818608E-02  0.8530231E-01
          2   -1    0    0  501    0  0.00000000000E+00  0.00000000000E+00  0.99939975026E+03  0.99939975026E+03  0.00000000000E+00 0.  1.
         -2   -1    0    0    0  501 -0.00000000000E+00 -0.00000000000E+00 -0.11799560956E+04  0.11799560956E+04  0.00000000000E+00 0. -1.
         23    2    1    2    0    0 -0.50952034808E+03 -0.91742919061E+03 -0.36391276709E+03  0.11140357614E+04  0.85766373248E+02 0.  0.
         11    1    3    3    0    0 -0.27742393292E+03 -0.47993583984E+03 -0.14796845698E+03  0.57375701580E+03  0.00000000000E+00 0.  1.
        -11    1    3    3    0    0 -0.23209641516E+03 -0.43749335077E+03 -0.21594431012E+03  0.54027874562E+03  0.00000000000E+00 0. -1.
         22    1    1    2    0    0  0.50952034808E+03  0.91742919061E+03  0.18335642177E+03  0.10653200844E+04  0.00000000000E+00 0. -1.
<mgrwt>
<rscale>  0 0.21718636E+04</rscale>
<asrwt>0</asrwt>
<pdfrwt beam="1">  1        2 0.15375381E+00 0.21718636E+04</pdfrwt>
<pdfrwt beam="2">  1       -2 0.18153171E+00 0.21718636E+04</pdfrwt>
<totfact> 0.40865847E+00</totfact>
</mgrwt>
</event>
<event>
 6    1  0.4630212E-004  0.1267464E+04  0.7818608E-02  0.9055772E-01
         -2   -1    0    0    0  501 -0.00000000000E+00  0.00000000000E+00  0.18726092954E+03  0.18726092954E+03  0.00000000000E+00 0. -1.
          2   -1    0    0  501    0  0.00000000000E+00 -0.00000000000E+00 -0.21446886807E+04  0.21446886807E+04  0.00000000000E+00 0.  1.
         23    2    1    2    0    0  0.57147136981E+03 -0.26584874913E+03 -0.99979164006E+03  0.11855107740E+04  0.92722100120E+02 0.  0.
         13    1    3    3    0    0  0.42148455716E+03 -0.15957648601E+03 -0.75669531320E+03  0.88073928256E+03  0.00000000000E+00 0.  1.
        -13    1    3    3    0    0  0.14998681265E+03 -0.10627226311E+03 -0.24309632686E+03  0.30477149146E+03  0.00000000000E+00 0. -1.
         22    1    1    2    0    0 -0.57147136981E+03  0.26584874913E+03 -0.95763611109E+03  0.11464388362E+04  0.00000000000E+00 0. -1.
<mgrwt>
<rscale>  0 0.12674642E+04</rscale>
<asrwt>0</asrwt>
<pdfrwt beam="1">  1        2 0.32995211E+00 0.12674642E+04</pdfrwt>
<pdfrwt beam="2">  1       -2 0.28809373E-01 0.12674642E+04</pdfrwt>
<totfact> 0.60368718E+01</totfact>
</mgrwt>
</event>
<event>
 6    1  0.4630212E-004  0.3878316E+04  0.7818608E-02  0.8029554E-01
         -2   -1    0    0    0  501 -0.00000000000E+00  0.00000000000E+00  0.16386577814E+04  0.16386577814E+04  0.00000000000E+00 0. -1.
          2   -1    0    0  501    0  0.00000000000E+00 -0.00000000000E+00 -0.22947646140E+04  0.22947646140E+04  0.00000000000E+00 0.  1.
         23    2    1    2    0    0  0.13777292043E+04  0.26117712116E+03 -0.16851058107E+04  0.21941150201E+04  0.90597345481E+02 0.  0.
         13    1    3    3    0    0  0.11053673665E+04  0.23397641070E+03 -0.13136233574E+04  0.17326824004E+04  0.00000000000E+00 0.  1.
        -13    1    3    3    0    0  0.27236183779E+03  0.27200710465E+02 -0.37148245334E+03  0.46143261965E+03  0.00000000000E+00 0. -1.
         22    1    1    2    0    0 -0.13777292043E+04 -0.26117712116E+03  0.10289989781E+04  0.17393073754E+04  0.00000000000E+00 0. -1.
<mgrwt>
<rscale>  0 0.38783161E+04</rscale>
<asrwt>0</asrwt>
<pdfrwt beam="1">  1        2 0.35304071E+00 0.38783161E+04</pdfrwt>
<pdfrwt beam="2">  1       -2 0.25210120E+00 0.38783161E+04</pdfrwt>
<totfact> 0.22686020E-01</totfact>
</mgrwt>
</event>
<event>
 6    1  0.4630212E-004  0.1200253E+04  0.7818608E-02  0.9112635E-01
         -2   -1    0    0    0  501 -0.00000000000E+00  0.00000000000E+00  0.18690734634E+03  0.18690734634E+03  0.00000000000E+00 0. -1.
          2   -1    0    0  501    0  0.00000000000E+00 -0.00000000000E+00 -0.19269005760E+04  0.19269005760E+04  0.00000000000E+00 0.  1.
         23    2    1    2    0    0  0.68866144128E+02  0.38734446522E+03 -0.16648622753E+04  0.17132795952E+04  0.93713900173E+02 0.  0.
         13    1    3    3    0    0  0.32008462830E+02  0.32098277595E+03 -0.12167480168E+04  0.12587812442E+04  0.00000000000E+00 0.  1.
        -13    1    3    3    0    0  0.36857681298E+02  0.66361689265E+02 -0.44811425841E+03  0.45449835100E+03  0.00000000000E+00 0. -1.
         22    1    1    2    0    0 -0.68866144128E+02 -0.38734446522E+03 -0.75130954378E+02  0.40052832715E+03  0.00000000000E+00 0. -1.
<mgrwt>
<rscale>  0 0.12002531E+04</rscale>
<asrwt>0</asrwt>
<pdfrwt beam="1">  1        2 0.29644626E+00 0.12002531E+04</pdfrwt>
<pdfrwt beam="2">  1       -2 0.28754975E-01 0.12002531E+04</pdfrwt>
<totfact> 0.80403026E+01</totfact>
</mgrwt>
</event>
<event>
 6    1  0.4630212E-004  0.1656216E+04  0.7818608E-02  0.8786737E-01
         -1   -1    0    0    0  501 -0.00000000000E+00  0.00000000000E+00  0.83641722524E+03  0.83641722524E+03  0.00000000000E+00 0.  1.
          1   -1    0    0  501    0  0.00000000000E+00 -0.00000000000E+00 -0.81988171744E+03  0.81988171744E+03  0.00000000000E+00 0. -1.
         23    2    1    2    0    0 -0.31887489264E+03 -0.59606642108E+03  0.48212381893E+03  0.83547688465E+03  0.92746280337E+02 0.  0.
         13    1    3    3    0    0 -0.26231847837E+03 -0.46982473020E+03  0.33662516473E+03  0.63471470972E+03  0.00000000000E+00 0.  1.
        -13    1    3    3    0    0 -0.56556414270E+02 -0.12624169088E+03  0.14549865420E+03  0.20076217493E+03  0.00000000000E+00 0. -1.
         22    1    1    2    0    0  0.31887489264E+03  0.59606642108E+03 -0.46558831112E+03  0.82082205803E+03  0.00000000000E+00 0. -1.
<mgrwt>
<rscale>  0 0.16562164E+04</rscale>
<asrwt>0</asrwt>
<pdfrwt beam="1">  1        1 0.12613565E+00 0.16562164E+04</pdfrwt>
<pdfrwt beam="2">  1       -1 0.12867957E+00 0.16562164E+04</pdfrwt>
<totfact> 0.10563131E+01</totfact>
</mgrwt>
</event>
<event>
 6    1  0.4630212E-004  0.2559885E+04  0.7818608E-02  0.8381956E-01
          2   -1    0    0  501    0  0.00000000000E+00  0.00000000000E+00  0.31183354130E+04  0.31183354130E+04  0.00000000000E+00 0.  1.
         -2   -1    0    0    0  501 -0.00000000000E+00 -0.00000000000E+00 -0.52536151009E+03  0.52536151009E+03  0.00000000000E+00 0. -1.
         23    2    1    2    0    0  0.10108780457E+04  0.71238609258E+03  0.17586799682E+04  0.21519145202E+04  0.91719700878E+02 0.  0.
         13    1    3    3    0    0  0.37952066823E+03  0.21734372466E+03  0.59363884273E+03  0.73734748108E+03  0.00000000000E+00 0.  1.
        -13    1    3    3    0    0  0.63135737744E+03  0.49504236793E+03  0.11650411254E+04  0.14145670391E+04  0.00000000000E+00 0. -1.
         22    1    1    2    0    0 -0.10108780457E+04 -0.71238609258E+03  0.83429393474E+03  0.14917824029E+04  0.00000000000E+00 0. -1.
<mgrwt>
<rscale>  0 0.25598855E+04</rscale>
<asrwt>0</asrwt>
<pdfrwt beam="1">  1        2 0.47974390E+00 0.25598855E+04</pdfrwt>
<pdfrwt beam="2">  1       -2 0.80824849E-01 0.25598855E+04</pdfrwt>
<totfact> 0.17560559E+00</totfact>
</mgrwt>
</event>
<event>
 6    1  0.4630212E-004  0.4718875E+04  0.7818608E-02  0.7873400E-01
         -2   -1    0    0    0  501 -0.00000000000E+00  0.00000000000E+00  0.17629398246E+04  0.17629398246E+04  0.00000000000E+00 0. -1.
          2   -1    0    0  501    0  0.00000000000E+00 -0.00000000000E+00 -0.31577625128E+04  0.31577625128E+04  0.00000000000E+00 0.  1.
         23    2    1    2    0    0  0.41553622608E+03 -0.93200351448E+03  0.15196586618E+04  0.18327414493E+04  0.90982776038E+02 0.  0.
         11    1    3    3    0    0  0.22287733211E+03 -0.39998207985E+03  0.64444940624E+03  0.79055360765E+03  0.00000000000E+00 0.  1.
        -11    1    3    3    0    0  0.19265889398E+03 -0.53202143463E+03  0.87520925556E+03  0.10421878417E+04  0.00000000000E+00 0. -1.
         22    1    1    2    0    0 -0.41553622608E+03  0.93200351448E+03 -0.29144813500E+04  0.30879608880E+04  0.00000000000E+00 0.  1.
<mgrwt>
<rscale>  0 0.47188750E+04</rscale>
<asrwt>0</asrwt>
<pdfrwt beam="1">  1        2 0.48580962E+00 0.47188750E+04</pdfrwt>
<pdfrwt beam="2">  1       -2 0.27122151E+00 0.47188750E+04</pdfrwt>
<totfact> 0.48951402E-02</totfact>
</mgrwt>
</event>
<event>
 6    1  0.4630212E-004  0.1772296E+04  0.7818608E-02  0.8721173E-01
         -1   -1    0    0    0  501 -0.00000000000E+00  0.00000000000E+00  0.49258376096E+03  0.49258376096E+03  0.00000000000E+00 0.  1.
          1   -1    0    0  501    0  0.00000000000E+00 -0.00000000000E+00 -0.15941616327E+04  0.15941616327E+04  0.00000000000E+00 0. -1.
         23    2    1    2    0    0 -0.40976910100E+03 -0.47769164923E+03  0.17825149163E+03  0.66053950838E+03  0.91863050173E+02 0.  0.
         11    1    3    3    0    0 -0.28116787536E+03 -0.35641090203E+03  0.89351360122E+02  0.46267458410E+03  0.00000000000E+00 0.  1.
        -11    1    3    3    0    0 -0.12860122564E+03 -0.12128074720E+03  0.88900131507E+02  0.19786492428E+03  0.00000000000E+00 0. -1.
         22    1    1    2    0    0  0.40976910100E+03  0.47769164923E+03 -0.12798293634E+04  0.14262058853E+04  0.00000000000E+00 0. -1.
<mgrwt>
<rscale>  0 0.17722958E+04</rscale>
<asrwt>0</asrwt>
<pdfrwt beam="1">  1        1 0.24525564E+00 0.17722958E+04</pdfrwt>
<pdfrwt beam="2">  1       -1 0.75782116E-01 0.17722958E+04</pdfrwt>
<totfact> 0.93182902E+00</totfact>
</mgrwt>
</event>
<event>
 6    1  0.4630212E-004  0.1620463E+04  0.7818608E-02  0.8808074E-01
         -2   -1    0    0    0  501 -0.00000000000E+00  0.00000000000E+00  0.36834664121E+03  0.36834664121E+03  0.00000000000E+00 0. -1.
          2   -1    0    0  501    0  0.00000000000E+00 -0.00000000000E+00 -0.17822217383E+04  0.17822217383E+04  0.00000000000E+00 0.  1.
         23    2    1    2    0    0 -0.26242238945E+03  0.35542742638E+03  0.18774150397E+03  0.48913228303E+03  0.93858148744E+02 0.  0.
         11    1    3    3    0    0 -0.77126641073E+02  0.65231759249E+02  0.78436438403E+02  0.12789048458E+03  0.00000000000E+00 0. -1.
        -11    1    3    3    0    0 -0.18529574837E+03  0.29019566714E+03  0.10930506556E+03  0.36124179845E+03  0.00000000000E+00 0.  1.
         22    1    1    2    0    0  0.26242238945E+03 -0.35542742638E+03 -0.16016166011E+04  0.16614360965E+04  0.00000000000E+00 0.  1.
<mgrwt>
<rscale>  0 0.16204634E+04</rscale>
<asrwt>0</asrwt>
<pdfrwt beam="1">  1        2 0.27418796E+00 0.16204634E+04</pdfrwt>
<pdfrwt beam="2">  1       -2 0.56668713E-01 0.16204634E+04</pdfrwt>
<totfact> 0.24683773E+01</totfact>
</mgrwt>
</event>
<event>
 6    1  0.5442282E-004  0.2319754E+04  0.7818608E-02  0.8470173E-01
         -2   -1    0    0    0  501 -0.00000000000E+00  0.00000000000E+00  0.94479952967E+03  0.94479952967E+03  0.00000000000E+00 0. -1.
          2   -1    0    0  501    0  0.00000000000E+00 -0.00000000000E+00 -0.14239154789E+04  0.14239154789E+04  0.00000000000E+00 0.  1.
         23    2    1    2    0    0  0.15881644885E+03 -0.41388975313E+03  0.85229223485E+03  0.96544199707E+03  0.95649380300E+02 0.  0.
         13    1    3    3    0    0  0.13597146094E+03 -0.22355550514E+03  0.50438010249E+03  0.56821174738E+03  0.00000000000E+00 0. -1.
        -13    1    3    3    0    0  0.22844987917E+02 -0.19033424798E+03  0.34791213236E+03  0.39723024970E+03  0.00000000000E+00 0.  1.
         22    1    1    2    0    0 -0.15881644885E+03  0.41388975313E+03 -0.13314081841E+04  0.14032730115E+04  0.00000000000E+00 0.  1.
<mgrwt>
<rscale>  0 0.23197540E+04</rscale>
<asrwt>0</asrwt>
<pdfrwt beam="1">  1        2 0.21906392E+00 0.23197540E+04</pdfrwt>
<pdfrwt beam="2">  1       -2 0.14535377E+00 0.23197540E+04</pdfrwt>
<totfact> 0.41330222E+00</totfact>
</mgrwt>
</event>
<event>
 6    1  0.4630212E-004  0.1046465E+04  0.7818608E-02  0.9259001E-01
          1   -1    0    0  501    0  0.00000000000E+00  0.00000000000E+00  0.10932504352E+04  0.10932504352E+04  0.00000000000E+00 0.  1.
         -1   -1    0    0    0  501 -0.00000000000E+00 -0.00000000000E+00 -0.25042055865E+03  0.25042055865E+03  0.00000000000E+00 0. -1.
         23    2    1    2    0    0 -0.16091768325E+03 -0.12471114012E+03  0.10373928922E+04  0.10620646439E+04  0.10173458470E+03 0.  0.
         13    1    3    3    0    0 -0.65962227569E+02 -0.10451398975E+03  0.70635949015E+03  0.71708989593E+03  0.00000000000E+00 0.  1.
        -13    1    3    3    0    0 -0.94955455678E+02 -0.20197150379E+02  0.33103340208E+03  0.34497474797E+03  0.00000000000E+00 0. -1.
         22    1    1    2    0    0  0.16091768325E+03  0.12471114012E+03 -0.19456301568E+03  0.28160634994E+03  0.00000000000E+00 0. -1.
<mgrwt>
<rscale>  0 0.10464653E+04</rscale>
<asrwt>0</asrwt>
<pdfrwt beam="1">  1        1 0.16819237E+00 0.10464653E+04</pdfrwt>
<pdfrwt beam="2">  1       -1 0.38526240E-01 0.10464653E+04</pdfrwt>
<totfact> 0.83596583E+01</totfact>
</mgrwt>
</event>
<event>
 6    1  0.4630212E-004  0.3729927E+04  0.7818608E-02  0.8061362E-01
         -2   -1    0    0    0  501 -0.00000000000E+00  0.00000000000E+00  0.18298620037E+04  0.18298620037E+04  0.00000000000E+00 0. -1.
          2   -1    0    0  501    0  0.00000000000E+00 -0.00000000000E+00 -0.19007379822E+04  0.19007379822E+04  0.00000000000E+00 0.  1.
         23    2    1    2    0    0  0.95207635436E+03  0.11345272226E+04 -0.11671820729E+04  0.18879148646E+04  0.91143520692E+02 0.  0.
         11    1    3    3    0    0  0.66723661817E+03  0.73228871620E+03 -0.76080855698E+03  0.12491121362E+04  0.00000000000E+00 0. -1.
        -11    1    3    3    0    0  0.28483973619E+03  0.40223850645E+03 -0.40637351592E+03  0.63880272841E+03  0.00000000000E+00 0.  1.
         22    1    1    2    0    0 -0.95207635436E+03 -0.11345272226E+04  0.10963060944E+04  0.18426851213E+04  0.00000000000E+00 0. -1.
<mgrwt>
<rscale>  0 0.37299267E+04</rscale>
<asrwt>0</asrwt>
<pdfrwt beam="1">  1        2 0.29242123E+00 0.37299267E+04</pdfrwt>
<pdfrwt beam="2">  1       -2 0.28151723E+00 0.37299267E+04</pdfrwt>
<totfact> 0.25220971E-01</totfact>
</mgrwt>
</event>
<event>
 6    1  0.4630212E-004  0.3140460E+04  0.7818608E-02  0.8204721E-01
          2   -1    0    0  501    0  0.00000000000E+00  0.00000000000E+00  0.14274945848E+04  0.14274945848E+04  0.00000000000E+00 0.  1.
         -2   -1    0    0    0  501 -0.00000000000E+00 -0.00000000000E+00 -0.17272373016E+04  0.17272373016E+04  0.00000000000E+00 0. -1.
         23    2    1    2    0    0  0.60709610759E+03 -0.14182051660E+04  0.13746459328E+03  0.15512912705E+04  0.87957460516E+02 0.  0.
         13    1    3    3    0    0  0.30528824661E+03 -0.60311157424E+03  0.54828296755E+02  0.67819659880E+03  0.00000000000E+00 0.  1.
        -13    1    3    3    0    0  0.30180786098E+03 -0.81509359174E+03  0.82636296525E+02  0.87309467170E+03  0.00000000000E+00 0. -1.
         22    1    1    2    0    0 -0.60709610759E+03  0.14182051660E+04 -0.43720731015E+03  0.16034406159E+04  0.00000000000E+00 0. -1.
<mgrwt>
<rscale>  0 0.31404598E+04</rscale>
<asrwt>0</asrwt>
<pdfrwt beam="1">  1        2 0.21961455E+00 0.31404598E+04</pdfrwt>
<pdfrwt beam="2">  1       -2 0.26572882E+00 0.31404598E+04</pdfrwt>
<totfact> 0.60783118E-01</totfact>
</mgrwt>
</event>
<event>
 6    1  0.4630212E-004  0.3324118E+04  0.7818608E-02  0.8156786E-01
          2   -1    0    0  501    0  0.00000000000E+00  0.00000000000E+00  0.16983820242E+04  0.16983820242E+04  0.00000000000E+00 0. -1.
         -2   -1    0    0    0  501 -0.00000000000E+00 -0.00000000000E+00 -0.16265127409E+04  0.16265127409E+04  0.00000000000E+00 0.  1.
         23    2    1    2    0    0  0.61643607090E+02 -0.14702492161E+04 -0.73422622577E+03  0.16470322375E+04  0.90522643814E+02 0.  0.
         13    1    3    3    0    0  0.74785638990E+02 -0.91381662812E+03 -0.48409339386E+03  0.10368221331E+04  0.00000000000E+00 0. -1.
        -13    1    3    3    0    0 -0.13142031900E+02 -0.55643258797E+03 -0.25013283191E+03  0.61021010444E+03  0.00000000000E+00 0.  1.
         22    1    1    2    0    0 -0.61643607090E+02  0.14702492161E+04  0.80609550910E+03  0.16778625276E+04  0.00000000000E+00 0. -1.
<mgrwt>
<rscale>  0 0.33241179E+04</rscale>
<asrwt>0</asrwt>
<pdfrwt beam="1">  1        2 0.26128954E+00 0.33241179E+04</pdfrwt>
<pdfrwt beam="2">  1       -2 0.25023273E+00 0.33241179E+04</pdfrwt>
<totfact> 0.52470292E-01</totfact>
</mgrwt>
</event>
<event>
 6    1  0.4630212E-004  0.1223304E+04  0.7818608E-02  0.9092700E-01
         -3   -1    0    0    0  501 -0.00000000000E+00  0.00000000000E+00  0.17561055060E+04  0.17561055060E+04  0.00000000000E+00 0.  1.
          3   -1    0    0  501    0  0.00000000000E+00 -0.00000000000E+00 -0.21303838275E+03  0.21303838275E+03  0.00000000000E+00 0. -1.
         23    2    1    2    0    0 -0.19634280382E+03  0.28359339361E+03 -0.30893542454E+02  0.35783141543E+03  0.90073311186E+02 0.  0.
         11    1    3    3    0    0 -0.11669772297E+02  0.79912401573E+02  0.29871529148E+01  0.80815212635E+02  0.00000000000E+00 0. -1.
        -11    1    3    3    0    0 -0.18467303153E+03  0.20368099204E+03 -0.33880695369E+02  0.27701620279E+03  0.00000000000E+00 0.  1.
         22    1    1    2    0    0  0.19634280382E+03 -0.28359339361E+03  0.15739606657E+04  0.16113124733E+04  0.00000000000E+00 0.  1.
<mgrwt>
<rscale>  0 0.12233035E+04</rscale>
<asrwt>0</asrwt>
<pdfrwt beam="1">  1        3 0.32775137E-01 0.12233035E+04</pdfrwt>
<pdfrwt beam="2">  1       -3 0.27017007E+00 0.12233035E+04</pdfrwt>
<totfact> 0.13329631E+00</totfact>
</mgrwt>
</event>
<event>
 6    1  0.4630212E-004  0.4011559E+04  0.7818608E-02  0.8002219E-01
         -2   -1    0    0    0  501 -0.00000000000E+00  0.00000000000E+00  0.17682037376E+04  0.17682037376E+04  0.00000000000E+00 0. -1.
          2   -1    0    0  501    0  0.00000000000E+00 -0.00000000000E+00 -0.22752755228E+04  0.22752755228E+04  0.00000000000E+00 0.  1.
         23    2    1    2    0    0 -0.17152697246E+04  0.10296531063E+04 -0.12375219435E+03  0.20065036454E+04  0.91687109678E+02 0.  0.
         11    1    3    3    0    0 -0.34180031354E+03  0.18388319776E+03  0.73304317009E+01  0.38819353419E+03  0.00000000000E+00 0. -1.
        -11    1    3    3    0    0 -0.13734694110E+04  0.84576990852E+03 -0.13108262605E+03  0.16183101112E+04  0.00000000000E+00 0.  1.
         22    1    1    2    0    0  0.17152697246E+04 -0.10296531063E+04 -0.38331959080E+03  0.20369756150E+04  0.00000000000E+00 0. -1.
<mgrwt>
<rscale>  0 0.40115586E+04</rscale>
<asrwt>0</asrwt>
<pdfrwt beam="1">  1        2 0.35004239E+00 0.40115586E+04</pdfrwt>
<pdfrwt beam="2">  1       -2 0.27203134E+00 0.40115586E+04</pdfrwt>
<totfact> 0.17383643E-01</totfact>
</mgrwt>
</event>
<event>
 6    1  0.4630212E-004  0.3665170E+04  0.7818608E-02  0.8075725E-01
          2   -1    0    0  501    0  0.00000000000E+00  0.00000000000E+00  0.35744200843E+04  0.35744200843E+04  0.00000000000E+00 0.  1.
         -2   -1    0    0    0  501 -0.00000000000E+00 -0.00000000000E+00 -0.93955620121E+03  0.93955620121E+03  0.00000000000E+00 0. -1.
         23    2    1    2    0    0  0.13597793518E+04 -0.12223564497E+04  0.14504928362E+04  0.23354699273E+04  0.85645419719E+02 0.  0.
         13    1    3    3    0    0  0.10382483423E+04 -0.93119254591E+03  0.10590888348E+04  0.17512133902E+04  0.00000000000E+00 0.  1.
        -13    1    3    3    0    0  0.32153100957E+03 -0.29116390381E+03  0.39140400133E+03  0.58425653719E+03  0.00000000000E+00 0. -1.
         22    1    1    2    0    0 -0.13597793518E+04  0.12223564497E+04  0.11843710469E+04  0.21785063582E+04  0.00000000000E+00 0. -1.
<mgrwt>
<rscale>  0 0.36651704E+04</rscale>
<asrwt>0</asrwt>
<pdfrwt beam="1">  1        2 0.54991077E+00 0.36651704E+04</pdfrwt>
<pdfrwt beam="2">  1       -2 0.14454711E+00 0.36651704E+04</pdfrwt>
<totfact> 0.19252442E-01</totfact>
</mgrwt>
</event>
<event>
 6    1  0.4630212E-004  0.6942352E+03  0.7818608E-02  0.9727142E-01
          2   -1    0    0  501    0  0.00000000000E+00  0.00000000000E+00  0.43414009732E+03  0.43414009732E+03  0.00000000000E+00 0.  1.
         -2   -1    0    0    0  501 -0.00000000000E+00 -0.00000000000E+00 -0.27753859104E+03  0.27753859104E+03  0.00000000000E+00 0. -1.
         23    2    1    2    0    0 -0.36592517536E+02 -0.28268550176E+03 -0.11254590326E+03  0.31964497385E+03  0.90863764625E+02 0.  0.
         13    1    3    3    0    0 -0.26407949830E+01 -0.23591710225E+03 -0.64768989002E+02  0.24466073422E+03  0.00000000000E+00 0.  1.
        -13    1    3    3    0    0 -0.33951722553E+02 -0.46768399515E+02 -0.47776914262E+02  0.74984239636E+02  0.00000000000E+00 0. -1.
         22    1    1    2    0    0  0.36592517536E+02  0.28268550176E+03  0.26914740954E+03  0.39203371451E+03  0.00000000000E+00 0.  1.
<mgrwt>
<rscale>  0 0.69423521E+03</rscale>
<asrwt>0</asrwt>
<pdfrwt beam="1">  1        2 0.66790784E-01 0.69423521E+03</pdfrwt>
<pdfrwt beam="2">  1       -2 0.42698245E-01 0.69423521E+03</pdfrwt>
<totfact> 0.37995840E+02</totfact>
</mgrwt>
</event>
<event>
 6    1  0.4630212E-004  0.2557531E+04  0.7818608E-02  0.8382772E-01
          2   -1    0    0  501    0  0.00000000000E+00  0.00000000000E+00  0.39200276625E+04  0.39200276625E+04  0.00000000000E+00 0.  1.
         -2   -1    0    0    0  501 -0.00000000000E+00 -0.00000000000E+00 -0.41715049365E+03  0.41715049365E+03  0.00000000000E+00 0. -1.
         23    2    1    2    0    0 -0.65271210882E+03  0.49861938057E+03  0.34120938005E+04  0.35108029365E+04  0.93267205140E+02 0.  0.
         11    1    3    3    0    0 -0.27045130431E+03  0.16376393613E+03  0.14381073078E+04  0.14724520921E+04  0.00000000000E+00 0.  1.
        -11    1    3    3    0    0 -0.38226080451E+03  0.33485544444E+03  0.19739864927E+04  0.20383508443E+04  0.00000000000E+00 0. -1.
         22    1    1    2    0    0  0.65271210882E+03 -0.49861938057E+03  0.90783368306E+02  0.82637521964E+03  0.00000000000E+00 0. -1.
<mgrwt>
<rscale>  0 0.25575312E+04</rscale>
<asrwt>0</asrwt>
<pdfrwt beam="1">  1        2 0.60308115E+00 0.25575312E+04</pdfrwt>
<pdfrwt beam="2">  1       -2 0.64177002E-01 0.25575312E+04</pdfrwt>
<totfact> 0.79151041E-01</totfact>
</mgrwt>
</event>
<event>
 6    1  0.4630212E-004  0.1068023E+04  0.7818608E-02  0.9236932E-01
          2   -1    0    0  501    0  0.00000000000E+00  0.00000000000E+00  0.10666703663E+04  0.10666703663E+04  0.00000000000E+00 0.  1.
         -2   -1    0    0    0  501 -0.00000000000E+00 -0.00000000000E+00 -0.26734430622E+03  0.26734430622E+03  0.00000000000E+00 0. -1.
         23    2    1    2    0    0  0.81751738710E+02  0.30858497650E+03 -0.12595418021E+03  0.35521359080E+03  0.91674451588E+02 0.  0.
         13    1    3    3    0    0  0.70664863711E+02  0.27033988872E+03 -0.72713141605E+02  0.28872890288E+03  0.00000000000E+00 0. -1.
        -13    1    3    3    0    0  0.11086874999E+02  0.38245087784E+02 -0.53241038602E+02  0.66484687923E+02  0.00000000000E+00 0.  1.
         22    1    1    2    0    0 -0.81751738710E+02 -0.30858497650E+03  0.92528024025E+03  0.97880108168E+03  0.00000000000E+00 0.  1.
<mgrwt>
<rscale>  0 0.10680229E+04</rscale>
<asrwt>0</asrwt>
<pdfrwt beam="1">  1        2 0.16410313E+00 0.10680229E+04</pdfrwt>
<pdfrwt beam="2">  1       -2 0.41129894E-01 0.10680229E+04</pdfrwt>
<totfact> 0.12717368E+02</totfact>
</mgrwt>
</event>
<event>
 6    1  0.4630212E-004  0.1269138E+04  0.7818608E-02  0.9054404E-01
          2   -1    0    0  501    0  0.00000000000E+00  0.00000000000E+00  0.62523762996E+03  0.62523762996E+03  0.00000000000E+00 0.  1.
         -2   -1    0    0    0  501 -0.00000000000E+00 -0.00000000000E+00 -0.64403959522E+03  0.64403959522E+03  0.00000000000E+00 0. -1.
         23    2    1    2    0    0  0.10768503166E+02 -0.42825444176E+03 -0.47323820215E+03  0.64475330974E+03  0.90744734867E+02 0.  0.
         11    1    3    3    0    0 -0.32193632022E+02 -0.26102246543E+03 -0.25337043193E+03  0.36519273430E+03  0.00000000000E+00 0. -1.
        -11    1    3    3    0    0  0.42962135188E+02 -0.16723197632E+03 -0.21986777022E+03  0.27956057545E+03  0.00000000000E+00 0.  1.
         22    1    1    2    0    0 -0.10768503166E+02  0.42825444176E+03  0.45443623690E+03  0.62452391544E+03  0.00000000000E+00 0.  1.
<mgrwt>
<rscale>  0 0.12691380E+04</rscale>
<asrwt>0</asrwt>
<pdfrwt beam="1">  1        2 0.96190405E-01 0.12691380E+04</pdfrwt>
<pdfrwt beam="2">  1       -2 0.99083015E-01 0.12691380E+04</pdfrwt>
<totfact> 0.39122131E+01</totfact>
</mgrwt>
</event>
<event>
 6    1  0.4630212E-004  0.1729887E+04  0.7818608E-02  0.8744500E-01
          2   -1    0    0  501    0  0.00000000000E+00  0.00000000000E+00  0.36730613849E+04  0.36730613849E+04  0.00000000000E+00 0. -1.
         -2   -1    0    0    0  501 -0.00000000000E+00 -0.00000000000E+00 -0.20367956518E+03  0.20367956518E+03  0.00000000000E+00 0.  1.
         23    2    1    2    0    0 -0.61205518025E+03 -0.34404416321E+03  0.61687539814E+03  0.93909379376E+03  0.91564003554E+02 0.  0.
         11    1    3    3    0    0 -0.12343075318E+03 -0.11274071694E+03  0.15731877204E+03  0.22955351473E+03  0.00000000000E+00 0.  1.
        -11    1    3    3    0    0 -0.48862442707E+03 -0.23130344627E+03  0.45955662610E+03  0.70954027904E+03  0.00000000000E+00 0. -1.
         22    1    1    2    0    0  0.61205518025E+03  0.34404416321E+03  0.28525064215E+04  0.29376471563E+04  0.00000000000E+00 0. -1.
<mgrwt>
<rscale>  0 0.17298873E+04</rscale>
<asrwt>0</asrwt>
<pdfrwt beam="1">  1        2 0.56508632E+00 0.17298873E+04</pdfrwt>
<pdfrwt beam="2">  1       -2 0.31335320E-01 0.17298873E+04</pdfrwt>
<totfact> 0.55454677E+00</totfact>
</mgrwt>
</event>
<event>
 6    1  0.4630212E-004  0.4135947E+04  0.7818608E-02  0.7977670E-01
         -2   -1    0    0    0  501 -0.00000000000E+00  0.00000000000E+00  0.22351327877E+04  0.22351327877E+04  0.00000000000E+00 0. -1.
          2   -1    0    0  501    0  0.00000000000E+00 -0.00000000000E+00 -0.19133154462E+04  0.19133154462E+04  0.00000000000E+00 0.  1.
         23    2    1    2    0    0 -0.10197651982E+03 -0.34600095994E+03  0.22023786000E+04  0.22336045008E+04  0.91660750778E+02 0.  0.
         13    1    3    3    0    0 -0.78989449445E+02 -0.27568515381E+03  0.14862236608E+04  0.15136387968E+04  0.00000000000E+00 0. -1.
        -13    1    3    3    0    0 -0.22987070378E+02 -0.70315806137E+02  0.71615493925E+03  0.71996570405E+03  0.00000000000E+00 0.  1.
         22    1    1    2    0    0  0.10197651982E+03  0.34600095994E+03 -0.18805612586E+04  0.19148437331E+04  0.00000000000E+00 0.  1.
<mgrwt>
<rscale>  0 0.41359469E+04</rscale>
<asrwt>0</asrwt>
<pdfrwt beam="1">  1        2 0.29435622E+00 0.41359469E+04</pdfrwt>
<pdfrwt beam="2">  1       -2 0.34386658E+00 0.41359469E+04</pdfrwt>
<totfact> 0.99036057E-02</totfact>
</mgrwt>
</event>
<event>
 6    1  0.4630212E-004  0.1020984E+04  0.7818608E-02  0.9285825E-01
          2   -1    0    0  501    0  0.00000000000E+00  0.00000000000E+00  0.11962699477E+04  0.11962699477E+04  0.00000000000E+00 0.  1.
         -2   -1    0    0    0  501 -0.00000000000E+00 -0.00000000000E+00 -0.21784534246E+03  0.21784534246E+03  0.00000000000E+00 0. -1.
         23    2    1    2    0    0  0.47838370291E+03  0.56588295791E+02  0.27525818459E+03  0.56176781551E+03  0.88106798414E+02 0.  0.
         13    1    3    3    0    0  0.33334569383E+03  0.25249423526E+02  0.14527477328E+03  0.36450191321E+03  0.00000000000E+00 0. -1.
        -13    1    3    3    0    0  0.14503800908E+03  0.31338872265E+02  0.12998341131E+03  0.19726590230E+03  0.00000000000E+00 0.  1.
         22    1    1    2    0    0 -0.47838370291E+03 -0.56588295791E+02  0.70316642067E+03  0.85234747468E+03  0.00000000000E+00 0.  1.
<mgrwt>
<rscale>  0 0.10209835E+04</rscale>
<asrwt>0</asrwt>
<pdfrwt beam="1">  1        2 0.18404153E+00 0.10209835E+04</pdfrwt>
<pdfrwt beam="2">  1       -2 0.33514669E-01 0.10209835E+04</pdfrwt>
<totfact> 0.15780363E+02</totfact>
</mgrwt>
</event>
<event>
 6    1  0.4630212E-004  0.2603763E+04  0.7818608E-02  0.8366924E-01
         -2   -1    0    0    0  501 -0.00000000000E+00  0.00000000000E+00  0.77759156812E+03  0.77759156812E+03  0.00000000000E+00 0. -1.
          2   -1    0    0  501    0  0.00000000000E+00 -0.00000000000E+00 -0.21796735356E+04  0.21796735356E+04  0.00000000000E+00 0.  1.
         23    2    1    2    0    0  0.10096431370E+04 -0.36417294462E+02  0.22798543155E+03  0.10394994223E+04  0.88748006154E+02 0.  0.
         13    1    3    3    0    0  0.13809744221E+03 -0.18220025082E+02  0.60283331531E+02  0.15177929015E+03  0.00000000000E+00 0. -1.
        -13    1    3    3    0    0  0.87154569478E+03 -0.18197269380E+02  0.16770210002E+03  0.88772013216E+03  0.00000000000E+00 0.  1.
         22    1    1    2    0    0 -0.10096431370E+04  0.36417294462E+02 -0.16300673990E+04  0.19177656814E+04  0.00000000000E+00 0.  1.
<mgrwt>
<rscale>  0 0.26037632E+04</rscale>
<asrwt>0</asrwt>
<pdfrwt beam="1">  1        2 0.33533439E+00 0.26037632E+04</pdfrwt>
<pdfrwt beam="2">  1       -2 0.11962947E+00 0.26037632E+04</pdfrwt>
<totfact> 0.25084168E+00</totfact>
</mgrwt>
</event>
<event>
 6    1  0.4630212E-004  0.2997747E+04  0.7818608E-02  0.8244374E-01
          2   -1    0    0  501    0  0.00000000000E+00  0.00000000000E+00  0.19504973803E+04  0.19504973803E+04  0.00000000000E+00 0.  1.
         -2   -1    0    0    0  501 -0.00000000000E+00 -0.00000000000E+00 -0.11518200444E+04  0.11518200444E+04  0.00000000000E+00 0. -1.
         23    2    1    2    0    0  0.70677370169E+03 -0.38576465699E+03 -0.90695774481E+03  0.12161746770E+04  0.90360710733E+02 0.  0.
         13    1    3    3    0    0  0.35367863527E+03 -0.21979355570E+03 -0.41021128264E+03  0.58452637287E+03  0.00000000000E+00 0. -1.
        -13    1    3    3    0    0  0.35309506641E+03 -0.16597110129E+03 -0.49674646217E+03  0.63164830410E+03  0.00000000000E+00 0.  1.
         22    1    1    2    0    0 -0.70677370169E+03  0.38576465699E+03  0.17056350807E+04  0.18861427477E+04  0.00000000000E+00 0.  1.
<mgrwt>
<rscale>  0 0.29977471E+04</rscale>
<asrwt>0</asrwt>
<pdfrwt beam="1">  1        2 0.30007652E+00 0.29977471E+04</pdfrwt>
<pdfrwt beam="2">  1       -2 0.17720308E+00 0.29977471E+04</pdfrwt>
<totfact> 0.11558057E+00</totfact>
</mgrwt>
</event>
<event>
 6    1  0.4630212E-004  0.2953771E+04  0.7818608E-02  0.8257056E-01
         -2   -1    0    0    0  501 -0.00000000000E+00  0.00000000000E+00  0.65107559167E+03  0.65107559167E+03  0.00000000000E+00 0. -1.
          2   -1    0    0  501    0  0.00000000000E+00 -0.00000000000E+00 -0.33501338601E+04  0.33501338601E+04  0.00000000000E+00 0.  1.
         23    2    1    2    0    0  0.13864445723E+04 -0.37638451277E+03 -0.18067596223E+04  0.23100291753E+04  0.89222220222E+02 0.  0.
         13    1    3    3    0    0  0.53317504859E+03 -0.13728721395E+03 -0.76182386208E+03  0.93994627952E+03  0.00000000000E+00 0.  1.
        -13    1    3    3    0    0  0.85326952370E+03 -0.23909729882E+03 -0.10449357602E+04  0.13700828958E+04  0.00000000000E+00 0. -1.
         22    1    1    2    0    0 -0.13864445723E+04  0.37638451277E+03 -0.89229864611E+03  0.16911802764E+04  0.00000000000E+00 0. -1.
<mgrwt>
<rscale>  0 0.29537707E+04</rscale>
<asrwt>0</asrwt>
<pdfrwt beam="1">  1        2 0.51540521E+00 0.29537707E+04</pdfrwt>
<pdfrwt beam="2">  1       -2 0.10016547E+00 0.29537707E+04</pdfrwt>
<totfact> 0.72824701E-01</totfact>
</mgrwt>
</event>
<event>
 6    1  0.4630212E-004  0.2199643E+04  0.7818608E-02  0.8518577E-01
         -2   -1    0    0    0  501 -0.00000000000E+00  0.00000000000E+00  0.12728966880E+04  0.12728966880E+04  0.00000000000E+00 0. -1.
          2   -1    0    0  501    0  0.00000000000E+00 -0.00000000000E+00 -0.95027928505E+03  0.95027928505E+03  0.00000000000E+00 0.  1.
         23    2    1    2    0    0  0.39428633059E+03  0.83416421709E+03  0.76328666621E+03  0.12006882953E+04  0.88057913013E+02 0.  0.
         11    1    3    3    0    0  0.11878798235E+03  0.35008282761E+03  0.29315897559E+03  0.47181644302E+03  0.00000000000E+00 0. -1.
        -11    1    3    3    0    0  0.27549834824E+03  0.48408138948E+03  0.47012769063E+03  0.72887185226E+03  0.00000000000E+00 0.  1.
         22    1    1    2    0    0 -0.39428633059E+03 -0.83416421709E+03 -0.44066926329E+03  0.10224876778E+04  0.00000000000E+00 0.  1.
<mgrwt>
<rscale>  0 0.21996430E+04</rscale>
<asrwt>0</asrwt>
<pdfrwt beam="1">  1        2 0.14619681E+00 0.21996430E+04</pdfrwt>
<pdfrwt beam="2">  1       -2 0.19583026E+00 0.21996430E+04</pdfrwt>
<totfact> 0.35142099E+00</totfact>
</mgrwt>
</event>
<event>
 6    1  0.4630212E-004  0.1078814E+04  0.7818608E-02  0.9226090E-01
         -2   -1    0    0    0  501 -0.00000000000E+00  0.00000000000E+00  0.11478130640E+03  0.11478130640E+03  0.00000000000E+00 0. -1.
          2   -1    0    0  501    0  0.00000000000E+00 -0.00000000000E+00 -0.25349079545E+04  0.25349079545E+04  0.00000000000E+00 0.  1.
         23    2    1    2    0    0  0.42806439976E+02  0.15156081957E+03 -0.24756560055E+04  0.24826964981E+04  0.10052945207E+03 0.  0.
         11    1    3    3    0    0 -0.97395899909E+01  0.17662365091E+02 -0.96434634793E+03  0.96455725466E+03  0.00000000000E+00 0.  1.
        -11    1    3    3    0    0  0.52546029967E+02  0.13389845448E+03 -0.15113096575E+04  0.15181392434E+04  0.00000000000E+00 0. -1.
         22    1    1    2    0    0 -0.42806439976E+02 -0.15156081957E+03  0.55529357325E+02  0.16699276289E+03  0.00000000000E+00 0. -1.
<mgrwt>
<rscale>  0 0.10788143E+04</rscale>
<asrwt>0</asrwt>
<pdfrwt beam="1">  1        2 0.38998581E+00 0.10788143E+04</pdfrwt>
<pdfrwt beam="2">  1       -2 0.17658664E-01 0.10788143E+04</pdfrwt>
<totfact> 0.88596868E+01</totfact>
</mgrwt>
</event>
<event>
 6    1  0.4630212E-004  0.3863853E+04  0.7818608E-02  0.8032589E-01
          1   -1    0    0  501    0  0.00000000000E+00  0.00000000000E+00  0.18455272022E+04  0.18455272022E+04  0.00000000000E+00 0. -1.
         -1   -1    0    0    0  501 -0.00000000000E+00 -0.00000000000E+00 -0.20223702186E+04  0.20223702186E+04  0.00000000000E+00 0.  1.
         23    2    1    2    0    0 -0.35197185565E+03  0.18951586519E+04 -0.20051119199E+03  0.19401861650E+04  0.92774532783E+02 0.  0.
         11    1    3    3    0    0 -0.14218929754E+03  0.53640875448E+03 -0.54332990129E+02  0.55758786037E+03  0.00000000000E+00 0. -1.
        -11    1    3    3    0    0 -0.20978255811E+03  0.13587498974E+04 -0.14617820186E+03  0.13825983047E+04  0.00000000000E+00 0.  1.
         22    1    1    2    0    0  0.35197185565E+03 -0.18951586519E+04  0.23668175589E+02  0.19277112557E+04  0.00000000000E+00 0. -1.
<mgrwt>
<rscale>  0 0.38638526E+04</rscale>
<asrwt>0</asrwt>
<pdfrwt beam="1">  1        1 0.28392726E+00 0.38638526E+04</pdfrwt>
<pdfrwt beam="2">  1       -1 0.31113388E+00 0.38638526E+04</pdfrwt>
<totfact> 0.83937425E-02</totfact>
</mgrwt>
</event>
<event>
 6    1  0.4630212E-004  0.2201175E+04  0.7818608E-02  0.8517939E-01
          2   -1    0    0  501    0  0.00000000000E+00  0.00000000000E+00  0.24468039793E+04  0.24468039793E+04  0.00000000000E+00 0.  1.
         -2   -1    0    0    0  501 -0.00000000000E+00 -0.00000000000E+00 -0.49505112895E+03  0.49505112895E+03  0.00000000000E+00 0. -1.
         23    2    1    2    0    0  0.62060352474E+03 -0.85097447399E+03  0.13946540786E+04  0.17503580114E+04  0.96885905976E+02 0.  0.
         13    1    3    3    0    0  0.38425644369E+03 -0.56592697666E+03  0.83711824015E+03  0.10810611941E+04  0.00000000000E+00 0.  1.
        -13    1    3    3    0    0  0.23634708105E+03 -0.28504749732E+03  0.55753583849E+03  0.66929681731E+03  0.00000000000E+00 0. -1.
         22    1    1    2    0    0 -0.62060352474E+03  0.85097447399E+03  0.55709877169E+03  0.11914970968E+04  0.00000000000E+00 0. -1.
<mgrwt>
<rscale>  0 0.22011752E+04</rscale>
<asrwt>0</asrwt>
<pdfrwt beam="1">  1        2 0.37643137E+00 0.22011752E+04</pdfrwt>
<pdfrwt beam="2">  1       -2 0.76161714E-01 0.22011752E+04</pdfrwt>
<totfact> 0.52702544E+00</totfact>
</mgrwt>
</event>
<event>
 6    1  0.4630212E-004  0.1308265E+04  0.7818608E-02  0.9023037E-01
         -2   -1    0    0    0  501 -0.00000000000E+00  0.00000000000E+00  0.18620219711E+03  0.18620219711E+03  0.00000000000E+00 0. -1.
          2   -1    0    0  501    0  0.00000000000E+00 -0.00000000000E+00 -0.22979809686E+04  0.22979809686E+04  0.00000000000E+00 0.  1.
         23    2    1    2    0    0 -0.19681222726E+03 -0.61199371859E+03 -0.12433892728E+04  0.14037334048E+04  0.10573184792E+03 0.  0.
         13    1    3    3    0    0 -0.13532182170E+03 -0.36109045523E+03 -0.84628121721E+03  0.92999473702E+03  0.00000000000E+00 0.  1.
        -13    1    3    3    0    0 -0.61490405559E+02 -0.25090326336E+03 -0.39710805559E+03  0.47373866778E+03  0.00000000000E+00 0. -1.
         22    1    1    2    0    0  0.19681222726E+03  0.61199371859E+03 -0.86838949865E+03  0.10804497609E+04  0.00000000000E+00 0. -1.
<mgrwt>
<rscale>  0 0.13082647E+04</rscale>
<asrwt>0</asrwt>
<pdfrwt beam="1">  1        2 0.35353555E+00 0.13082647E+04</pdfrwt>
<pdfrwt beam="2">  1       -2 0.28646491E-01 0.13082647E+04</pdfrwt>
<totfact> 0.49899952E+01</totfact>
</mgrwt>
</event>
<event>
 6    1  0.4630212E-004  0.1222626E+04  0.7818608E-02  0.9093279E-01
          2   -1    0    0  501    0  0.00000000000E+00  0.00000000000E+00  0.10982883592E+04  0.10982883592E+04  0.00000000000E+00 0.  1.
         -2   -1    0    0    0  501 -0.00000000000E+00 -0.00000000000E+00 -0.34026018427E+03  0.34026018427E+03  0.00000000000E+00 0. -1.
         23    2    1    2    0    0  0.13093566944E+03  0.42818420082E+03 -0.10285220721E+03  0.46818732634E+03  0.90193883687E+02 0.  0.
         11    1    3    3    0    0  0.13220011139E+03  0.30544428350E+03 -0.89936941576E+02  0.34476330030E+03  0.00000000000E+00 0. -1.
        -11    1    3    3    0    0 -0.12644419542E+01  0.12273991732E+03 -0.12915265633E+02  0.12342402604E+03  0.00000000000E+00 0.  1.
         22    1    1    2    0    0 -0.13093566944E+03 -0.42818420082E+03  0.86088038214E+03  0.97036121713E+03  0.00000000000E+00 0.  1.
<mgrwt>
<rscale>  0 0.12226264E+04</rscale>
<asrwt>0</asrwt>
<pdfrwt beam="1">  1        2 0.16896744E+00 0.12226264E+04</pdfrwt>
<pdfrwt beam="2">  1       -2 0.52347721E-01 0.12226264E+04</pdfrwt>
<totfact> 0.74100289E+01</totfact>
</mgrwt>
</event>
<event>
 6    1  0.4630212E-004  0.3854479E+04  0.7818608E-02  0.8034564E-01
          2   -1    0    0  501    0  0.00000000000E+00  0.00000000000E+00  0.29476814318E+04  0.29476814318E+04  0.00000000000E+00 0.  1.
         -2   -1    0    0    0  501 -0.00000000000E+00 -0.00000000000E+00 -0.12600588639E+04  0.12600588639E+04  0.00000000000E+00 0. -1.
         23    2    1    2    0    0  0.43933982777E+03  0.14286846917E+04 -0.48194432153E+03  0.15731283850E+04  0.91121644513E+02 0.  0.
         13    1    3    3    0    0  0.23836418259E+03  0.64424813316E+03 -0.24655266724E+03  0.72983652851E+03  0.00000000000E+00 0.  1.
        -13    1    3    3    0    0  0.20097564518E+03  0.78443655852E+03 -0.23539165430E+03  0.84329185648E+03  0.00000000000E+00 0. -1.
         22    1    1    2    0    0 -0.43933982777E+03 -0.14286846917E+04  0.21695668895E+04  0.26346119108E+04  0.00000000000E+00 0. -1.
<mgrwt>
<rscale>  0 0.38544790E+04</rscale>
<asrwt>0</asrwt>
<pdfrwt beam="1">  1        2 0.45348945E+00 0.38544790E+04</pdfrwt>
<pdfrwt beam="2">  1       -2 0.19385521E+00 0.38544790E+04</pdfrwt>
<totfact> 0.21874128E-01</totfact>
</mgrwt>
</event>
<event>
 6    1  0.4630212E-004  0.3628792E+04  0.7818608E-02  0.8083928E-01
          2   -1    0    0  501    0  0.00000000000E+00  0.00000000000E+00  0.28740071928E+04  0.28740071928E+04  0.00000000000E+00 0.  1.
         -2   -1    0    0    0  501 -0.00000000000E+00 -0.00000000000E+00 -0.11454505715E+04  0.11454505715E+04  0.00000000000E+00 0. -1.
         23    2    1    2    0    0  0.11876599312E+04  0.84853646893E+03  0.20564585976E+04  0.25234397305E+04  0.90420452134E+02 0.  0.
         13    1    3    3    0    0  0.34283607464E+03  0.22763257418E+03  0.51528646331E+03  0.65944924154E+03  0.00000000000E+00 0. -1.
        -13    1    3    3    0    0  0.84482385659E+03  0.62090389475E+03  0.15411721343E+04  0.18639904889E+04  0.00000000000E+00 0.  1.
         22    1    1    2    0    0 -0.11876599312E+04 -0.84853646893E+03 -0.32790197631E+03  0.14960180338E+04  0.00000000000E+00 0. -1.
<mgrwt>
<rscale>  0 0.36287922E+04</rscale>
<asrwt>0</asrwt>
<pdfrwt beam="1">  1        2 0.44215495E+00 0.36287922E+04</pdfrwt>
<pdfrwt beam="2">  1       -2 0.17622317E+00 0.36287922E+04</pdfrwt>
<totfact> 0.32632365E-01</totfact>
</mgrwt>
</event>
<event>
 6    1  0.4630212E-004  0.1890824E+04  0.7818608E-02  0.8659437E-01
          2   -1    0    0  501    0  0.00000000000E+00  0.00000000000E+00  0.58569234657E+03  0.58569234657E+03  0.00000000000E+00 0.  1.
         -2   -1    0    0    0  501 -0.00000000000E+00 -0.00000000000E+00 -0.15260636811E+04  0.15260636811E+04  0.00000000000E+00 0. -1.
         23    2    1    2    0    0  0.56399472229E+03  0.57300491915E+03  0.78675743474E+02  0.81372612381E+03  0.97650641615E+02 0.  0.
         13    1    3    3    0    0  0.36727091932E+03  0.30715465993E+03  0.59263106390E+02  0.48243551805E+03  0.00000000000E+00 0.  1.
        -13    1    3    3    0    0  0.19672380297E+03  0.26585025923E+03  0.19412637084E+02  0.33129060576E+03  0.00000000000E+00 0. -1.
         22    1    1    2    0    0 -0.56399472229E+03 -0.57300491915E+03 -0.10190470780E+04  0.12980299039E+04  0.00000000000E+00 0. -1.
<mgrwt>
<rscale>  0 0.18908240E+04</rscale>
<asrwt>0</asrwt>
<pdfrwt beam="1">  1        2 0.90106515E-01 0.18908240E+04</pdfrwt>
<pdfrwt beam="2">  1       -2 0.23477903E+00 0.18908240E+04</pdfrwt>
<totfact> 0.38184747E+00</totfact>
</mgrwt>
</event>
<event>
 6    1  0.4630212E-004  0.1934669E+04  0.7818608E-02  0.8637789E-01
          2   -1    0    0  501    0  0.00000000000E+00  0.00000000000E+00  0.29304250116E+04  0.29304250116E+04  0.00000000000E+00 0. -1.
         -2   -1    0    0    0  501 -0.00000000000E+00 -0.00000000000E+00 -0.31931744444E+03  0.31931744444E+03  0.00000000000E+00 0.  1.
         23    2    1    2    0    0 -0.80595998679E+03  0.35007141218E+03  0.63832790484E+03  0.10901172362E+04  0.93656717358E+02 0.  0.
         13    1    3    3    0    0 -0.42347262080E+03  0.23149723867E+03  0.32852291965E+03  0.58382132611E+03  0.00000000000E+00 0.  1.
        -13    1    3    3    0    0 -0.38248736599E+03  0.11857417351E+03  0.30980498519E+03  0.50629591013E+03  0.00000000000E+00 0. -1.
         22    1    1    2    0    0  0.80595998679E+03 -0.35007141218E+03  0.19727796623E+04  0.21596252198E+04  0.00000000000E+00 0.  1.
<mgrwt>
<rscale>  0 0.19346688E+04</rscale>
<asrwt>0</asrwt>
<pdfrwt beam="1">  1        2 0.45083460E+00 0.19346688E+04</pdfrwt>
<pdfrwt beam="2">  1       -2 0.49125763E-01 0.19346688E+04</pdfrwt>
<totfact> 0.70664704E+00</totfact>
</mgrwt>
</event>
<event>
 6    1  0.4630212E-004  0.1261576E+04  0.7818608E-02  0.9060603E-01
          2   -1    0    0  501    0  0.00000000000E+00  0.00000000000E+00  0.23958698049E+04  0.23958698049E+04  0.00000000000E+00 0.  1.
         -2   -1    0    0    0  501 -0.00000000000E+00 -0.00000000000E+00 -0.16607475252E+03  0.16607475252E+03  0.00000000000E+00 0. -1.
         23    2    1    2    0    0  0.31946295831E+02  0.12136114345E+03  0.23692138777E+04  0.23743633701E+04  0.93155364910E+02 0.  0.
         11    1    3    3    0    0 -0.30450779201E+02  0.56769663826E+02  0.11844148728E+04  0.11861655177E+04  0.00000000000E+00 0.  1.
        -11    1    3    3    0    0  0.62397075032E+02  0.64591479620E+02  0.11847990050E+04  0.11881978524E+04  0.00000000000E+00 0. -1.
         22    1    1    2    0    0 -0.31946295831E+02 -0.12136114345E+03 -0.13941882537E+03  0.18758118728E+03  0.00000000000E+00 0. -1.
<mgrwt>
<rscale>  0 0.12615760E+04</rscale>
<asrwt>0</asrwt>
<pdfrwt beam="1">  1        2 0.36859533E+00 0.12615760E+04</pdfrwt>
<pdfrwt beam="2">  1       -2 0.25549964E-01 0.12615760E+04</pdfrwt>
<totfact> 0.54394530E+01</totfact>
</mgrwt>
</event>
<event>
 6    1  0.4630212E-004  0.3857023E+04  0.7818608E-02  0.8034027E-01
         -2   -1    0    0    0  501 -0.00000000000E+00  0.00000000000E+00  0.16963674070E+04  0.16963674070E+04  0.00000000000E+00 0. -1.
          2   -1    0    0  501    0  0.00000000000E+00 -0.00000000000E+00 -0.21924240651E+04  0.21924240651E+04  0.00000000000E+00 0.  1.
         23    2    1    2    0    0  0.10834928105E+04  0.83464667412E+03  0.11211191542E+04  0.17708090952E+04  0.90911784833E+02 0.  0.
         11    1    3    3    0    0  0.72743633895E+03  0.51253870949E+03  0.70076739287E+03  0.11326669832E+04  0.00000000000E+00 0. -1.
        -11    1    3    3    0    0  0.35605647158E+03  0.32210796463E+03  0.42035176133E+03  0.63814211198E+03  0.00000000000E+00 0.  1.
         22    1    1    2    0    0 -0.10834928105E+04 -0.83464667412E+03 -0.16171758123E+04  0.21179823769E+04  0.00000000000E+00 0.  1.
<mgrwt>
<rscale>  0 0.38570231E+04</rscale>
<asrwt>0</asrwt>
<pdfrwt beam="1">  1        2 0.33729601E+00 0.38570231E+04</pdfrwt>
<pdfrwt beam="2">  1       -2 0.26097960E+00 0.38570231E+04</pdfrwt>
<totfact> 0.22903197E-01</totfact>
</mgrwt>
</event>
<event>
 6    1  0.4630212E-004  0.3519926E+04  0.7818608E-02  0.8109084E-01
          2   -1    0    0  501    0  0.00000000000E+00  0.00000000000E+00  0.49300168485E+04  0.49300168485E+04  0.00000000000E+00 0.  1.
         -2   -1    0    0    0  501 -0.00000000000E+00 -0.00000000000E+00 -0.62828781094E+03  0.62828781094E+03  0.00000000000E+00 0. -1.
         23    2    1    2    0    0 -0.12092864854E+04 -0.31679654820E+03  0.41059302242E+04  0.42929703037E+04  0.90538200509E+02 0.  0.
         13    1    3    3    0    0 -0.52186481504E+03 -0.16869736513E+03  0.16883051019E+04  0.17751551491E+04  0.00000000000E+00 0. -1.
        -13    1    3    3    0    0 -0.68742167032E+03 -0.14809918307E+03  0.24176251223E+04  0.25178151546E+04  0.00000000000E+00 0.  1.
         22    1    1    2    0    0  0.12092864854E+04  0.31679654820E+03  0.19579881341E+03  0.12653343558E+04  0.00000000000E+00 0. -1.
<mgrwt>
<rscale>  0 0.35199258E+04</rscale>
<asrwt>0</asrwt>
<pdfrwt beam="1">  1        2 0.75846411E+00 0.35199258E+04</pdfrwt>
<pdfrwt beam="2">  1       -2 0.96659666E-01 0.35199258E+04</pdfrwt>
<totfact> 0.30555727E-02</totfact>
</mgrwt>
</event>
<event>
 6    1  0.4630212E-004  0.3506311E+04  0.7818608E-02  0.8112296E-01
         -2   -1    0    0    0  501 -0.00000000000E+00  0.00000000000E+00  0.16502670013E+04  0.16502670013E+04  0.00000000000E+00 0. -1.
          2   -1    0    0  501    0  0.00000000000E+00 -0.00000000000E+00 -0.18624585727E+04  0.18624585727E+04  0.00000000000E+00 0.  1.
         23    2    1    2    0    0  0.12750076580E+04 -0.11613188249E+04 -0.41472591194E+03  0.17762561386E+04  0.93714176750E+02 0.  0.
         13    1    3    3    0    0  0.11288676646E+04 -0.99129252009E+03 -0.37687831775E+03  0.15488835757E+04  0.00000000000E+00 0. -1.
        -13    1    3    3    0    0  0.14613999337E+03 -0.17002630483E+03 -0.37847594191E+02  0.22737256295E+03  0.00000000000E+00 0.  1.
         22    1    1    2    0    0 -0.12750076580E+04  0.11613188249E+04  0.20253434044E+03  0.17364694354E+04  0.00000000000E+00 0.  1.
<mgrwt>
<rscale>  0 0.35063108E+04</rscale>
<asrwt>0</asrwt>
<pdfrwt beam="1">  1        2 0.28653209E+00 0.35063108E+04</pdfrwt>
<pdfrwt beam="2">  1       -2 0.25388723E+00 0.35063108E+04</pdfrwt>
<totfact> 0.39797108E-01</totfact>
</mgrwt>
</event>
<event>
 6    1  0.4630212E-004  0.1329511E+04  0.7818608E-02  0.9006484E-01
          2   -1    0    0  501    0  0.00000000000E+00  0.00000000000E+00  0.20776603192E+04  0.20776603192E+04  0.00000000000E+00 0.  1.
         -2   -1    0    0    0  501 -0.00000000000E+00 -0.00000000000E+00 -0.21269121912E+03  0.21269121912E+03  0.00000000000E+00 0. -1.
         23    2    1    2    0    0 -0.18111394315E+03  0.32253129232E+03  0.18818556978E+04  0.19200626618E+04  0.91820820520E+02 0.  0.
         11    1    3    3    0    0  0.56029577895E+01  0.22181410028E+02  0.20797611445E+03  0.20923066761E+03  0.00000000000E+00 0. -1.
        -11    1    3    3    0    0 -0.18671690094E+03  0.30034988229E+03  0.16738795833E+04  0.17108319942E+04  0.00000000000E+00 0.  1.
         22    1    1    2    0    0  0.18111394315E+03 -0.32253129232E+03 -0.16886597647E+02  0.37028887657E+03  0.00000000000E+00 0. -1.
<mgrwt>
<rscale>  0 0.13295113E+04</rscale>
<asrwt>0</asrwt>
<pdfrwt beam="1">  1        2 0.31964004E+00 0.13295113E+04</pdfrwt>
<pdfrwt beam="2">  1       -2 0.32721727E-01 0.13295113E+04</pdfrwt>
<totfact> 0.51576710E+01</totfact>
</mgrwt>
</event>
<event>
 6    1  0.4630212E-004  0.1901836E+04  0.7818608E-02  0.8653943E-01
         -2   -1    0    0    0  501 -0.00000000000E+00  0.00000000000E+00  0.15126319166E+04  0.15126319166E+04  0.00000000000E+00 0. -1.
          2   -1    0    0  501    0  0.00000000000E+00 -0.00000000000E+00 -0.59779606710E+03  0.59779606710E+03  0.00000000000E+00 0.  1.
         23    2    1    2    0    0 -0.45591777480E+03  0.47977929723E+03  0.12127586586E+04  0.13846131371E+04  0.91218331415E+02 0.  0.
         13    1    3    3    0    0 -0.19347444726E+03  0.15642600465E+03  0.51675739920E+03  0.57353262008E+03  0.00000000000E+00 0. -1.
        -13    1    3    3    0    0 -0.26244332754E+03  0.32335329258E+03  0.69600125940E+03  0.81108051701E+03  0.00000000000E+00 0.  1.
         22    1    1    2    0    0  0.45591777480E+03 -0.47977929723E+03 -0.29792280907E+03  0.72581484663E+03  0.00000000000E+00 0.  1.
<mgrwt>
<rscale>  0 0.19018364E+04</rscale>
<asrwt>0</asrwt>
<pdfrwt beam="1">  1        2 0.91968626E-01 0.19018364E+04</pdfrwt>
<pdfrwt beam="2">  1       -2 0.23271260E+00 0.19018364E+04</pdfrwt>
<totfact> 0.38339963E+00</totfact>
</mgrwt>
</event>
<event>
 6    1  0.4630212E-004  0.3160799E+04  0.7818608E-02  0.8199248E-01
          2   -1    0    0  501    0  0.00000000000E+00  0.00000000000E+00  0.19681517641E+04  0.19681517641E+04  0.00000000000E+00 0.  1.
         -2   -1    0    0    0  501 -0.00000000000E+00 -0.00000000000E+00 -0.12690393477E+04  0.12690393477E+04  0.00000000000E+00 0. -1.
         23    2    1    2    0    0 -0.10023983659E+04 -0.81971649025E+03 -0.57577632389E+03  0.14200287887E+04  0.90696069943E+02 0.  0.
         13    1    3    3    0    0 -0.33892488412E+03 -0.31654486950E+03 -0.17226616944E+03  0.49471847005E+03  0.00000000000E+00 0.  1.
        -13    1    3    3    0    0 -0.66347348181E+03 -0.50317162075E+03 -0.40351015445E+03  0.92531031861E+03  0.00000000000E+00 0. -1.
         22    1    1    2    0    0  0.10023983659E+04  0.81971649025E+03  0.12748887403E+04  0.18171623231E+04  0.00000000000E+00 0.  1.
<mgrwt>
<rscale>  0 0.31607987E+04</rscale>
<asrwt>0</asrwt>
<pdfrwt beam="1">  1        2 0.30279258E+00 0.31607987E+04</pdfrwt>
<pdfrwt beam="2">  1       -2 0.19523682E+00 0.31607987E+04</pdfrwt>
<totfact> 0.84079065E-01</totfact>
</mgrwt>
</event>
<event>
 6    1  0.4630212E-004  0.1181602E+04  0.7818608E-02  0.9129114E-01
         -1   -1    0    0    0  501 -0.00000000000E+00  0.00000000000E+00  0.49350795325E+03  0.49350795325E+03  0.00000000000E+00 0. -1.
          1   -1    0    0  501    0  0.00000000000E+00 -0.00000000000E+00 -0.70727543637E+03  0.70727543637E+03  0.00000000000E+00 0.  1.
         23    2    1    2    0    0 -0.58198208987E+03 -0.55559064753E+01 -0.18705726596E+03  0.61816219474E+03  0.91651826167E+02 0.  0.
         13    1    3    3    0    0 -0.22209757759E+03  0.17934126404E+02 -0.11359680572E+03  0.25010637963E+03  0.00000000000E+00 0.  1.
        -13    1    3    3    0    0 -0.35988451227E+03 -0.23490032879E+02 -0.73460460238E+02  0.36805581511E+03  0.00000000000E+00 0. -1.
         22    1    1    2    0    0  0.58198208987E+03  0.55559064753E+01 -0.26710217165E+02  0.58262119488E+03  0.00000000000E+00 0. -1.
<mgrwt>
<rscale>  0 0.11816024E+04</rscale>
<asrwt>0</asrwt>
<pdfrwt beam="1">  1        1 0.10881160E+00 0.11816024E+04</pdfrwt>
<pdfrwt beam="2">  1       -1 0.75924301E-01 0.11816024E+04</pdfrwt>
<totfact> 0.46330710E+01</totfact>
</mgrwt>
</event>
<event>
 6    1  0.4630212E-004  0.8664864E+03  0.7818608E-02  0.9468473E-01
          2   -1    0    0  501    0  0.00000000000E+00  0.00000000000E+00  0.53237958875E+03  0.53237958875E+03  0.00000000000E+00 0. -1.
         -2   -1    0    0    0  501 -0.00000000000E+00 -0.00000000000E+00 -0.35256738629E+03  0.35256738629E+03  0.00000000000E+00 0.  1.
         23    2    1    2    0    0  0.23588479032E+03 -0.53631233630E+02  0.45240422326E+03  0.52049621935E+03  0.87913534893E+02 0.  0.
         11    1    3    3    0    0  0.17010961367E+03 -0.56337201548E+02  0.24952194813E+03  0.30720085212E+03  0.00000000000E+00 0. -1.
        -11    1    3    3    0    0  0.65775176647E+02  0.27059679171E+01  0.20288227513E+03  0.21329536724E+03  0.00000000000E+00 0.  1.
         22    1    1    2    0    0 -0.23588479032E+03  0.53631233630E+02 -0.27259202080E+03  0.36445075569E+03  0.00000000000E+00 0.  1.
<mgrwt>
<rscale>  0 0.86648642E+03</rscale>
<asrwt>0</asrwt>
<pdfrwt beam="1">  1        2 0.81904553E-01 0.86648642E+03</pdfrwt>
<pdfrwt beam="2">  1       -2 0.54241136E-01 0.86648642E+03</pdfrwt>
<totfact> 0.18400970E+02</totfact>
</mgrwt>
</event>
<event>
 6    1  0.4630212E-004  0.2569322E+04  0.7818608E-02  0.8378697E-01
          2   -1    0    0  501    0  0.00000000000E+00  0.00000000000E+00  0.43849992813E+04  0.43849992813E+04  0.00000000000E+00 0.  1.
         -2   -1    0    0    0  501 -0.00000000000E+00 -0.00000000000E+00 -0.37636346834E+03  0.37636346834E+03  0.00000000000E+00 0. -1.
         23    2    1    2    0    0 -0.10344573296E+04  0.50281934921E+03  0.30605174826E+04  0.32707730566E+04  0.90883780932E+02 0.  0.
         13    1    3    3    0    0 -0.46929677334E+03  0.27678387976E+03  0.14794167941E+04  0.15765540994E+04  0.00000000000E+00 0.  1.
        -13    1    3    3    0    0 -0.56516055627E+03  0.22603546944E+03  0.15811006885E+04  0.16942189572E+04  0.00000000000E+00 0. -1.
         22    1    1    2    0    0  0.10344573296E+04 -0.50281934921E+03  0.94811833038E+03  0.14905896931E+04  0.00000000000E+00 0. -1.
<mgrwt>
<rscale>  0 0.25693217E+04</rscale>
<asrwt>0</asrwt>
<pdfrwt beam="1">  1        2 0.67461524E+00 0.25693217E+04</pdfrwt>
<pdfrwt beam="2">  1       -2 0.57902075E-01 0.25693217E+04</pdfrwt>
<totfact> 0.39414239E-01</totfact>
</mgrwt>
</event>
<event>
 6    1  0.4630212E-004  0.2088325E+04  0.7818608E-02  0.8566404E-01
          1   -1    0    0  501    0  0.00000000000E+00  0.00000000000E+00  0.31434785074E+04  0.31434785074E+04  0.00000000000E+00 0.  1.
         -1   -1    0    0    0  501 -0.00000000000E+00 -0.00000000000E+00 -0.34683714700E+03  0.34683714700E+03  0.00000000000E+00 0. -1.
         23    2    1    2    0    0  0.43467240881E+03  0.18668290422E+03  0.29523233262E+04  0.29922920764E+04  0.11750846127E+03 0.  0.
         13    1    3    3    0    0  0.20075099274E+03  0.97756770732E+02  0.17510212590E+04  0.17652004976E+04  0.00000000000E+00 0.  1.
        -13    1    3    3    0    0  0.23392141607E+03  0.88926133488E+02  0.12013020672E+04  0.12270915788E+04  0.00000000000E+00 0. -1.
         22    1    1    2    0    0 -0.43467240881E+03 -0.18668290422E+03 -0.15568196583E+03  0.49802357795E+03  0.00000000000E+00 0. -1.
<mgrwt>
<rscale>  0 0.20883248E+04</rscale>
<asrwt>0</asrwt>
<pdfrwt beam="1">  1        1 0.48361206E+00 0.20883248E+04</pdfrwt>
<pdfrwt beam="2">  1       -1 0.53359563E-01 0.20883248E+04</pdfrwt>
<totfact> 0.15311467E+00</totfact>
</mgrwt>
</event>
<event>
 6    1  0.6924782E-004  0.3968870E+04  0.7818608E-02  0.8010856E-01
          2   -1    0    0  501    0  0.00000000000E+00  0.00000000000E+00  0.20436696145E+04  0.20436696145E+04  0.00000000000E+00 0.  1.
         -2   -1    0    0    0  501 -0.00000000000E+00 -0.00000000000E+00 -0.19269174288E+04  0.19269174288E+04  0.00000000000E+00 0. -1.
         23    2    1    2    0    0 -0.17763255039E+04  0.58515249003E+03 -0.60200510426E+03  0.19670033106E+04  0.94636916046E+02 0.  0.
         11    1    3    3    0    0 -0.76068882548E+03  0.22096964126E+03 -0.29417288071E+03  0.84499275459E+03  0.00000000000E+00 0.  1.
        -11    1    3    3    0    0 -0.10156366784E+04  0.36418284876E+03 -0.30783222356E+03  0.11220105560E+04  0.00000000000E+00 0. -1.
         22    1    1    2    0    0  0.17763255039E+04 -0.58515249003E+03  0.71875728995E+03  0.20035837328E+04  0.00000000000E+00 0.  1.
<mgrwt>
<rscale>  0 0.39688702E+04</rscale>
<asrwt>0</asrwt>
<pdfrwt beam="1">  1        2 0.31441071E+00 0.39688702E+04</pdfrwt>
<pdfrwt beam="2">  1       -2 0.29644883E+00 0.39688702E+04</pdfrwt>
<totfact> 0.16694723E-01</totfact>
</mgrwt>
</event>
<event>
 6    1  0.4630212E-004  0.9347681E+03  0.7818608E-02  0.9383134E-01
         -2   -1    0    0    0  501 -0.00000000000E+00  0.00000000000E+00  0.65777196869E+03  0.65777196869E+03  0.00000000000E+00 0. -1.
          2   -1    0    0  501    0  0.00000000000E+00 -0.00000000000E+00 -0.33210271958E+03  0.33210271958E+03  0.00000000000E+00 0.  1.
         23    2    1    2    0    0 -0.19925065943E+03 -0.31819390187E+03  0.45110804989E+03  0.59404255565E+03  0.91868932553E+02 0.  0.
         11    1    3    3    0    0 -0.96802638788E+02 -0.21940635511E+03  0.23867288652E+03  0.33834102071E+03  0.00000000000E+00 0. -1.
        -11    1    3    3    0    0 -0.10244802064E+03 -0.98787546764E+02  0.21243516337E+03  0.25570153493E+03  0.00000000000E+00 0.  1.
         22    1    1    2    0    0  0.19925065943E+03  0.31819390187E+03 -0.12543880079E+03  0.39583213262E+03  0.00000000000E+00 0.  1.
<mgrwt>
<rscale>  0 0.93476812E+03</rscale>
<asrwt>0</asrwt>
<pdfrwt beam="1">  1        2 0.51092726E-01 0.93476812E+03</pdfrwt>
<pdfrwt beam="2">  1       -2 0.10119569E+00 0.93476812E+03</pdfrwt>
<totfact> 0.78835894E+01</totfact>
</mgrwt>
</event>
<event>
 6    1  0.4630212E-004  0.5277258E+04  0.7818608E-02  0.7787105E-01
          2   -1    0    0  501    0  0.00000000000E+00  0.00000000000E+00  0.18071254134E+04  0.18071254134E+04  0.00000000000E+00 0.  1.
         -2   -1    0    0    0  501 -0.00000000000E+00 -0.00000000000E+00 -0.38527280804E+04  0.38527280804E+04  0.00000000000E+00 0. -1.
         23    2    1    2    0    0 -0.23523457597E+04 -0.10246357683E+04 -0.16797484080E+04  0.30680860718E+04  0.90489772201E+02 0.  0.
         13    1    3    3    0    0 -0.72184792220E+03 -0.27482612579E+03 -0.52954782716E+03  0.93649064248E+03  0.00000000000E+00 0. -1.
        -13    1    3    3    0    0 -0.16304978375E+04 -0.74980964250E+03 -0.11502005808E+04  0.21315954293E+04  0.00000000000E+00 0.  1.
         22    1    1    2    0    0  0.23523457597E+04  0.10246357683E+04 -0.36585425893E+03  0.25917674220E+04  0.00000000000E+00 0. -1.
<mgrwt>
<rscale>  0 0.52772579E+04</rscale>
<asrwt>0</asrwt>
<pdfrwt beam="1">  1        2 0.27801930E+00 0.52772579E+04</pdfrwt>
<pdfrwt beam="2">  1       -2 0.59272739E+00 0.52772579E+04</pdfrwt>
<totfact> 0.33515357E-03</totfact>
</mgrwt>
</event>
<event>
 6    1  0.4630212E-004  0.3661185E+04  0.7818608E-02  0.8076619E-01
          2   -1    0    0  501    0  0.00000000000E+00  0.00000000000E+00  0.34997513528E+04  0.34997513528E+04  0.00000000000E+00 0.  1.
         -2   -1    0    0    0  501 -0.00000000000E+00 -0.00000000000E+00 -0.95751619890E+03  0.95751619890E+03  0.00000000000E+00 0. -1.
         23    2    1    2    0    0 -0.40496969343E+03  0.11274624271E+04  0.29553544001E+04  0.31900503293E+04  0.84436341679E+02 0.  0.
         11    1    3    3    0    0 -0.38308986048E+03  0.99543013717E+03  0.25951925526E+04  0.28058266846E+04  0.00000000000E+00 0. -1.
        -11    1    3    3    0    0 -0.21879832958E+02  0.13203228989E+03  0.36016184759E+03  0.38422364467E+03  0.00000000000E+00 0.  1.
         22    1    1    2    0    0  0.40496969343E+03 -0.11274624271E+04 -0.41311924629E+03  0.12672172224E+04  0.00000000000E+00 0. -1.
<mgrwt>
<rscale>  0 0.36611848E+04</rscale>
<asrwt>0</asrwt>
<pdfrwt beam="1">  1        2 0.53842328E+00 0.36611848E+04</pdfrwt>
<pdfrwt beam="2">  1       -2 0.14731019E+00 0.36611848E+04</pdfrwt>
<totfact> 0.20695691E-01</totfact>
</mgrwt>
</event>
<event>
 6    1  0.4630212E-004  0.2782077E+04  0.7818608E-02  0.8308855E-01
          2   -1    0    0  501    0  0.00000000000E+00  0.00000000000E+00  0.19165569072E+04  0.19165569072E+04  0.00000000000E+00 0.  1.
         -2   -1    0    0    0  501 -0.00000000000E+00 -0.00000000000E+00 -0.10096165674E+04  0.10096165674E+04  0.00000000000E+00 0. -1.
         23    2    1    2    0    0  0.37092030135E+03 -0.60302440003E+03 -0.80360754288E+03  0.10749051645E+04  0.91737303186E+02 0.  0.
         13    1    3    3    0    0  0.26819055003E+03 -0.50545538150E+03 -0.64634578431E+03  0.86323472284E+03  0.00000000000E+00 0.  1.
        -13    1    3    3    0    0  0.10272975132E+03 -0.97569018534E+02 -0.15726175857E+03  0.21167044171E+03  0.00000000000E+00 0. -1.
         22    1    1    2    0    0 -0.37092030135E+03  0.60302440003E+03  0.17105478827E+04  0.18512683101E+04  0.00000000000E+00 0.  1.
<mgrwt>
<rscale>  0 0.27820766E+04</rscale>
<asrwt>0</asrwt>
<pdfrwt beam="1">  1        2 0.29485491E+00 0.27820766E+04</pdfrwt>
<pdfrwt beam="2">  1       -2 0.15532563E+00 0.27820766E+04</pdfrwt>
<totfact> 0.17686982E+00</totfact>
</mgrwt>
</event>
<event>
 6    1  0.4630212E-004  0.3127654E+04  0.7818608E-02  0.8208189E-01
         -1   -1    0    0    0  501 -0.00000000000E+00  0.00000000000E+00  0.14739935117E+04  0.14739935117E+04  0.00000000000E+00 0. -1.
          1   -1    0    0  501    0  0.00000000000E+00 -0.00000000000E+00 -0.16591350810E+04  0.16591350810E+04  0.00000000000E+00 0.  1.
         23    2    1    2    0    0  0.24636464010E+03 -0.15347774841E+04 -0.25193762250E+03  0.15772689672E+04  0.89818526001E+02 0.  0.
         11    1    3    3    0    0  0.12859419010E+03 -0.56352392278E+03 -0.11544298925E+03  0.58942578926E+03  0.00000000000E+00 0. -1.
        -11    1    3    3    0    0  0.11777045000E+03 -0.97125356132E+03 -0.13649463325E+03  0.98784317792E+03  0.00000000000E+00 0.  1.
         22    1    1    2    0    0 -0.24636464010E+03  0.15347774841E+04  0.66796053138E+02  0.15558596255E+04  0.00000000000E+00 0. -1.
<mgrwt>
<rscale>  0 0.31276537E+04</rscale>
<asrwt>0</asrwt>
<pdfrwt beam="1">  1        1 0.25525155E+00 0.31276537E+04</pdfrwt>
<pdfrwt beam="2">  1       -1 0.22676823E+00 0.31276537E+04</pdfrwt>
<totfact> 0.42436613E-01</totfact>
</mgrwt>
</event>
<event>
 6    1  0.4630212E-004  0.8919783E+03  0.7818608E-02  0.9435665E-01
          2   -1    0    0  501    0  0.00000000000E+00  0.00000000000E+00  0.44151208367E+03  0.44151208367E+03  0.00000000000E+00 0.  1.
         -2   -1    0    0    0  501 -0.00000000000E+00 -0.00000000000E+00 -0.45051165571E+03  0.45051165571E+03  0.00000000000E+00 0. -1.
         23    2    1    2    0    0  0.83453440678E+01 -0.43893877594E+03  0.41223582773E+02  0.45014224048E+03  0.90508337169E+02 0.  0.
         13    1    3    3    0    0 -0.18705028009E+02 -0.24807772193E+03 -0.15316968181E+02  0.24925297130E+03  0.00000000000E+00 0. -1.
        -13    1    3    3    0    0  0.27050372076E+02 -0.19086105401E+03  0.56540550954E+02  0.20088926918E+03  0.00000000000E+00 0.  1.
         22    1    1    2    0    0 -0.83453440678E+01  0.43893877594E+03 -0.50223154808E+02  0.44188149890E+03  0.00000000000E+00 0.  1.
<mgrwt>
<rscale>  0 0.89197834E+03</rscale>
<asrwt>0</asrwt>
<pdfrwt beam="1">  1        2 0.67924936E-01 0.89197834E+03</pdfrwt>
<pdfrwt beam="2">  1       -2 0.69309485E-01 0.89197834E+03</pdfrwt>
<totfact> 0.13561769E+02</totfact>
</mgrwt>
</event>
<event>
 6    1  0.4630212E-004  0.1124852E+04  0.7818608E-02  0.9181302E-01
          2   -1    0    0  501    0  0.00000000000E+00  0.00000000000E+00  0.32008953950E+03  0.32008953950E+03  0.00000000000E+00 0.  1.
         -2   -1    0    0    0  501 -0.00000000000E+00 -0.00000000000E+00 -0.98823324608E+03  0.98823324608E+03  0.00000000000E+00 0. -1.
         23    2    1    2    0    0 -0.22018555306E+03 -0.50052294292E+03 -0.20301907436E+03  0.59044687871E+03  0.91683574653E+02 0.  0.
         11    1    3    3    0    0 -0.17298024171E+03 -0.44964801969E+03 -0.15515649045E+03  0.50614132627E+03  0.00000000000E+00 0. -1.
        -11    1    3    3    0    0 -0.47205311349E+02 -0.50874923230E+02 -0.47862583912E+02  0.84305552438E+02  0.00000000000E+00 0.  1.
         22    1    1    2    0    0  0.22018555306E+03  0.50052294292E+03 -0.46512463222E+03  0.71787590687E+03  0.00000000000E+00 0. -1.
<mgrwt>
<rscale>  0 0.11248522E+04</rscale>
<asrwt>0</asrwt>
<pdfrwt beam="1">  1        2 0.49244545E-01 0.11248522E+04</pdfrwt>
<pdfrwt beam="2">  1       -2 0.15203588E+00 0.11248522E+04</pdfrwt>
<totfact> 0.29234425E+01</totfact>
</mgrwt>
</event>
<event>
 6    1  0.4630212E-004  0.2559274E+04  0.7818608E-02  0.8382168E-01
         -2   -1    0    0    0  501 -0.00000000000E+00  0.00000000000E+00  0.51566769263E+03  0.51566769263E+03  0.00000000000E+00 0. -1.
          2   -1    0    0  501    0  0.00000000000E+00 -0.00000000000E+00 -0.31754388612E+04  0.31754388612E+04  0.00000000000E+00 0.  1.
         23    2    1    2    0    0  0.83200313745E+03  0.75933053171E+03 -0.46073922562E+03  0.12203670768E+04  0.90570917171E+02 0.  0.
         13    1    3    3    0    0  0.70565962866E+03  0.60033819232E+03 -0.36392222992E+03  0.99538979607E+03  0.00000000000E+00 0.  1.
        -13    1    3    3    0    0  0.12634350879E+03  0.15899233939E+03 -0.96816995701E+02  0.22497728075E+03  0.00000000000E+00 0. -1.
         22    1    1    2    0    0 -0.83200313745E+03 -0.75933053171E+03 -0.21990319429E+04  0.24707394770E+04  0.00000000000E+00 0.  1.
<mgrwt>
<rscale>  0 0.25592743E+04</rscale>
<asrwt>0</asrwt>
<pdfrwt beam="1">  1        2 0.48852907E+00 0.25592743E+04</pdfrwt>
<pdfrwt beam="2">  1       -2 0.79333490E-01 0.25592743E+04</pdfrwt>
<totfact> 0.16823955E+00</totfact>
</mgrwt>
</event>
<event>
 6    1  0.4630212E-004  0.1640608E+04  0.7818608E-02  0.8795982E-01
          2   -1    0    0  501    0  0.00000000000E+00  0.00000000000E+00  0.18733027771E+04  0.18733027771E+04  0.00000000000E+00 0.  1.
         -2   -1    0    0    0  501 -0.00000000000E+00 -0.00000000000E+00 -0.35920425277E+03  0.35920425277E+03  0.00000000000E+00 0. -1.
         23    2    1    2    0    0 -0.46800859242E+03  0.25300986320E+02  0.16713345429E+04  0.17381434511E+04  0.90062866141E+02 0.  0.
         11    1    3    3    0    0 -0.30936976263E+03  0.14399759384E+02  0.93941520356E+03  0.98915010376E+03  0.00000000000E+00 0. -1.
        -11    1    3    3    0    0 -0.15863882980E+03  0.10901226937E+02  0.73191933937E+03  0.74899334737E+03  0.00000000000E+00 0.  1.
         22    1    1    2    0    0  0.46800859242E+03 -0.25300986320E+02 -0.15723601856E+03  0.49436357878E+03  0.00000000000E+00 0. -1.
<mgrwt>
<rscale>  0 0.16406076E+04</rscale>
<asrwt>0</asrwt>
<pdfrwt beam="1">  1        2 0.28820042E+00 0.16406076E+04</pdfrwt>
<pdfrwt beam="2">  1       -2 0.55262194E-01 0.16406076E+04</pdfrwt>
<totfact> 0.23121071E+01</totfact>
</mgrwt>
</event>
<event>
 6    1  0.4630212E-004  0.1691439E+04  0.7818608E-02  0.8766262E-01
          2   -1    0    0  501    0  0.00000000000E+00  0.00000000000E+00  0.26006097809E+04  0.26006097809E+04  0.00000000000E+00 0.  1.
         -2   -1    0    0    0  501 -0.00000000000E+00 -0.00000000000E+00 -0.27502830897E+03  0.27502830897E+03  0.00000000000E+00 0. -1.
         23    2    1    2    0    0 -0.54910750608E+03 -0.45362459362E+03  0.39960853086E+03  0.82218585158E+03  0.94911914124E+02 0.  0.
         13    1    3    3    0    0 -0.41542679027E+03 -0.36464093943E+03  0.34941178421E+03  0.65393503326E+03  0.00000000000E+00 0.  1.
        -13    1    3    3    0    0 -0.13368071581E+03 -0.88983654185E+02  0.50196746649E+02  0.16825081832E+03  0.00000000000E+00 0. -1.
         22    1    1    2    0    0  0.54910750608E+03  0.45362459362E+03  0.19259729410E+04  0.20534522383E+04  0.00000000000E+00 0.  1.
<mgrwt>
<rscale>  0 0.16914388E+04</rscale>
<asrwt>0</asrwt>
<pdfrwt beam="1">  1        2 0.40009380E+00 0.16914388E+04</pdfrwt>
<pdfrwt beam="2">  1       -2 0.42312049E-01 0.16914388E+04</pdfrwt>
<totfact> 0.15362583E+01</totfact>
</mgrwt>
</event>
<event>
 6    1  0.4630212E-004  0.8365766E+03  0.7818608E-02  0.9508533E-01
          2   -1    0    0  501    0  0.00000000000E+00  0.00000000000E+00  0.21639809789E+04  0.21639809789E+04  0.00000000000E+00 0.  1.
         -2   -1    0    0    0  501 -0.00000000000E+00 -0.00000000000E+00 -0.80853340590E+02  0.80853340590E+02  0.00000000000E+00 0. -1.
         23    2    1    2    0    0 -0.27346240876E+03 -0.22122741600E+03  0.47367188072E+03  0.59739051340E+03  0.93739619800E+02 0.  0.
         11    1    3    3    0    0 -0.13107481756E+03 -0.68870392316E+02  0.25745546895E+03  0.29699672932E+03  0.00000000000E+00 0. -1.
        -11    1    3    3    0    0 -0.14238759120E+03 -0.15235702368E+03  0.21621641177E+03  0.30039378408E+03  0.00000000000E+00 0.  1.
         22    1    1    2    0    0  0.27346240876E+03  0.22122741600E+03  0.16094557576E+04  0.16474438061E+04  0.00000000000E+00 0.  1.
<mgrwt>
<rscale>  0 0.83657657E+03</rscale>
<asrwt>0</asrwt>
<pdfrwt beam="1">  1        2 0.33292011E+00 0.83657657E+03</pdfrwt>
<pdfrwt beam="2">  1       -2 0.12438977E-01 0.83657657E+03</pdfrwt>
<totfact> 0.26478342E+02</totfact>
</mgrwt>
</event>
<event>
 6    1  0.4630212E-004  0.2663091E+04  0.7818608E-02  0.8347081E-01
          2   -1    0    0  501    0  0.00000000000E+00  0.00000000000E+00  0.25662412826E+04  0.25662412826E+04  0.00000000000E+00 0.  1.
         -2   -1    0    0    0  501 -0.00000000000E+00 -0.00000000000E+00 -0.69089878660E+03  0.69089878660E+03  0.00000000000E+00 0. -1.
         23    2    1    2    0    0  0.92666056992E+03  0.14794056968E+03 -0.21415834395E+03  0.96659428617E+03  0.88625581892E+02 0.  0.
         11    1    3    3    0    0  0.31792145748E+03  0.10145256536E+02 -0.84742258120E+02  0.32917811238E+03  0.00000000000E+00 0.  1.
        -11    1    3    3    0    0  0.60873911244E+03  0.13779531314E+03 -0.12941608583E+03  0.63741617379E+03  0.00000000000E+00 0. -1.
         22    1    1    2    0    0 -0.92666056992E+03 -0.14794056968E+03  0.20895008399E+04  0.22905457830E+04  0.00000000000E+00 0.  1.
<mgrwt>
<rscale>  0 0.26630907E+04</rscale>
<asrwt>0</asrwt>
<pdfrwt beam="1">  1        2 0.39480635E+00 0.26630907E+04</pdfrwt>
<pdfrwt beam="2">  1       -2 0.10629212E+00 0.26630907E+04</pdfrwt>
<totfact> 0.20000463E+00</totfact>
</mgrwt>
</event>
<event>
 6    1  0.4630212E-004  0.1690789E+04  0.7818608E-02  0.8766635E-01
          1   -1    0    0  501    0  0.00000000000E+00  0.00000000000E+00  0.61109188919E+03  0.61109188919E+03  0.00000000000E+00 0. -1.
         -1   -1    0    0    0  501 -0.00000000000E+00 -0.00000000000E+00 -0.11695326954E+04  0.11695326954E+04  0.00000000000E+00 0.  1.
         23    2    1    2    0    0  0.31009639289E+03 -0.77697886698E+03 -0.17281280235E+03  0.85944876536E+03  0.94509168900E+02 0.  0.
         11    1    3    3    0    0  0.16725567939E+03 -0.39223340062E+03 -0.40889220599E+02  0.42836133253E+03  0.00000000000E+00 0.  1.
        -11    1    3    3    0    0  0.14284071350E+03 -0.38474546637E+03 -0.13192358175E+03  0.43108743283E+03  0.00000000000E+00 0. -1.
         22    1    1    2    0    0 -0.31009639289E+03  0.77697886698E+03 -0.38562800391E+03  0.92117581928E+03  0.00000000000E+00 0.  1.
<mgrwt>
<rscale>  0 0.16907891E+04</rscale>
<asrwt>0</asrwt>
<pdfrwt beam="1">  1        1 0.94014137E-01 0.16907891E+04</pdfrwt>
<pdfrwt beam="2">  1       -1 0.17992811E+00 0.16907891E+04</pdfrwt>
<totfact> 0.66166620E+00</totfact>
</mgrwt>
</event>
<event>
 6    1  0.4630212E-004  0.1950179E+04  0.7818608E-02  0.8630274E-01
          2   -1    0    0  501    0  0.00000000000E+00  0.00000000000E+00  0.91973862935E+03  0.91973862935E+03  0.00000000000E+00 0.  1.
         -2   -1    0    0    0  501 -0.00000000000E+00 -0.00000000000E+00 -0.10337715444E+04  0.10337715444E+04  0.00000000000E+00 0. -1.
         23    2    1    2    0    0 -0.76055909647E+03  0.59242030150E+03  0.68152786020E+02  0.97238654114E+03  0.10713930323E+03 0.  0.
         13    1    3    3    0    0 -0.57152642647E+03  0.47162975512E+03  0.11817628385E+02  0.74109158571E+03  0.00000000000E+00 0.  1.
        -13    1    3    3    0    0 -0.18903267000E+03  0.12079054637E+03  0.56335157635E+02  0.23129495543E+03  0.00000000000E+00 0. -1.
         22    1    1    2    0    0  0.76055909647E+03 -0.59242030150E+03 -0.18218570110E+03  0.98112363265E+03  0.00000000000E+00 0. -1.
<mgrwt>
<rscale>  0 0.19501791E+04</rscale>
<asrwt>0</asrwt>
<pdfrwt beam="1">  1        2 0.14149825E+00 0.19501791E+04</pdfrwt>
<pdfrwt beam="2">  1       -2 0.15904178E+00 0.19501791E+04</pdfrwt>
<totfact> 0.67901493E+00</totfact>
</mgrwt>
</event>
<event>
 6    1  0.4630212E-004  0.2522158E+04  0.7818608E-02  0.8395134E-01
          2   -1    0    0  501    0  0.00000000000E+00  0.00000000000E+00  0.24072375450E+04  0.24072375450E+04  0.00000000000E+00 0.  1.
         -2   -1    0    0    0  501 -0.00000000000E+00 -0.00000000000E+00 -0.66064116454E+03  0.66064116454E+03  0.00000000000E+00 0. -1.
         23    2    1    2    0    0 -0.53767284130E+03 -0.10570945823E+04  0.35916298908E+03  0.12426355872E+04  0.92758340035E+02 0.  0.
         11    1    3    3    0    0 -0.31500400814E+03 -0.63667343950E+03  0.26166935308E+03  0.75700161430E+03  0.00000000000E+00 0. -1.
        -11    1    3    3    0    0 -0.22266883315E+03 -0.42042114278E+03  0.97493636001E+02  0.48563397288E+03  0.00000000000E+00 0.  1.
         22    1    1    2    0    0  0.53767284130E+03  0.10570945823E+04  0.13874333913E+04  0.18252431223E+04  0.00000000000E+00 0.  1.
<mgrwt>
<rscale>  0 0.25221580E+04</rscale>
<asrwt>0</asrwt>
<pdfrwt beam="1">  1        2 0.37034423E+00 0.25221580E+04</pdfrwt>
<pdfrwt beam="2">  1       -2 0.10163710E+00 0.25221580E+04</pdfrwt>
<totfact> 0.27852615E+00</totfact>
</mgrwt>
</event>
<event>
 6    1  0.4630212E-004  0.1319278E+04  0.7818608E-02  0.9014416E-01
          2   -1    0    0  501    0  0.00000000000E+00  0.00000000000E+00  0.74261111273E+03  0.74261111273E+03  0.00000000000E+00 0.  1.
         -2   -1    0    0    0  501 -0.00000000000E+00 -0.00000000000E+00 -0.58593757620E+03  0.58593757620E+03  0.00000000000E+00 0. -1.
         23    2    1    2    0    0  0.22603723973E+03  0.43757735542E+03  0.51576411588E+03  0.71903017412E+03  0.91787757011E+02 0.  0.
         13    1    3    3    0    0  0.14841229381E+03  0.18838735151E+03  0.25621162714E+03  0.35094216196E+03  0.00000000000E+00 0.  1.
        -13    1    3    3    0    0  0.77624945926E+02  0.24919000391E+03  0.25955248874E+03  0.36808801215E+03  0.00000000000E+00 0. -1.
         22    1    1    2    0    0 -0.22603723973E+03 -0.43757735542E+03 -0.35909057936E+03  0.60951851481E+03  0.00000000000E+00 0. -1.
<mgrwt>
<rscale>  0 0.13192782E+04</rscale>
<asrwt>0</asrwt>
<pdfrwt beam="1">  1        2 0.11424786E+00 0.13192782E+04</pdfrwt>
<pdfrwt beam="2">  1       -2 0.90144242E-01 0.13192782E+04</pdfrwt>
<totfact> 0.39163913E+01</totfact>
</mgrwt>
</event>
<event>
 6    1  0.4630212E-004  0.2014579E+04  0.7818608E-02  0.8599835E-01
          2   -1    0    0  501    0  0.00000000000E+00  0.00000000000E+00  0.13621713036E+04  0.13621713036E+04  0.00000000000E+00 0.  1.
         -2   -1    0    0    0  501 -0.00000000000E+00 -0.00000000000E+00 -0.74486350045E+03  0.74486350045E+03  0.00000000000E+00 0. -1.
         23    2    1    2    0    0 -0.66483202461E+03  0.53804755959E+03  0.86172651453E+03  0.12175195969E+04  0.91019698884E+02 0.  0.
         11    1    3    3    0    0 -0.71387408530E+02  0.83539783268E+02  0.14493717926E+03  0.18188414834E+03  0.00000000000E+00 0. -1.
        -11    1    3    3    0    0 -0.59344461608E+03  0.45450777632E+03  0.71678933527E+03  0.10356354485E+04  0.00000000000E+00 0.  1.
         22    1    1    2    0    0  0.66483202461E+03 -0.53804755959E+03 -0.24441871138E+03  0.88951520718E+03  0.00000000000E+00 0. -1.
<mgrwt>
<rscale>  0 0.20145786E+04</rscale>
<asrwt>0</asrwt>
<pdfrwt beam="1">  1        2 0.20956482E+00 0.20145786E+04</pdfrwt>
<pdfrwt beam="2">  1       -2 0.11459439E+00 0.20145786E+04</pdfrwt>
<totfact> 0.83981898E+00</totfact>
</mgrwt>
</event>
<event>
 6    1  0.4630212E-004  0.2310763E+04  0.7818608E-02  0.8473690E-01
          2   -1    0    0  501    0  0.00000000000E+00  0.00000000000E+00  0.38677103527E+04  0.38677103527E+04  0.00000000000E+00 0.  1.
         -2   -1    0    0    0  501 -0.00000000000E+00 -0.00000000000E+00 -0.34514119512E+03  0.34514119512E+03  0.00000000000E+00 0. -1.
         23    2    1    2    0    0  0.10831242776E+04 -0.27251416861E+03  0.22900434110E+04  0.25495590633E+04  0.92360274671E+02 0.  0.
         11    1    3    3    0    0  0.78666786782E+02  0.17254276708E+00  0.19344813041E+03  0.20883168408E+03  0.00000000000E+00 0. -1.
        -11    1    3    3    0    0  0.10044574909E+04 -0.27268671138E+03  0.20965952805E+04  0.23407273792E+04  0.00000000000E+00 0.  1.
         22    1    1    2    0    0 -0.10831242776E+04  0.27251416861E+03  0.12325257466E+04  0.16632924845E+04  0.00000000000E+00 0. -1.
<mgrwt>
<rscale>  0 0.23107628E+04</rscale>
<asrwt>0</asrwt>
<pdfrwt beam="1">  1        2 0.59503233E+00 0.23107628E+04</pdfrwt>
<pdfrwt beam="2">  1       -2 0.53098648E-01 0.23107628E+04</pdfrwt>
<totfact> 0.13259995E+00</totfact>
</mgrwt>
</event>
<event>
 6    1  0.4630212E-004  0.9892564E+03  0.7818608E-02  0.9320407E-01
         -2   -1    0    0    0  501 -0.00000000000E+00  0.00000000000E+00  0.69539234835E+03  0.69539234835E+03  0.00000000000E+00 0. -1.
          2   -1    0    0  501    0  0.00000000000E+00 -0.00000000000E+00 -0.35182590154E+03  0.35182590154E+03  0.00000000000E+00 0.  1.
         23    2    1    2    0    0  0.47442886632E+03  0.12327932145E+03  0.18987998676E+03  0.53350620186E+03  0.91070949009E+02 0.  0.
         11    1    3    3    0    0  0.25899240663E+03  0.33058668525E+02  0.13344775981E+03  0.29322047482E+03  0.00000000000E+00 0.  1.
        -11    1    3    3    0    0  0.21543645969E+03  0.90220652921E+02  0.56432226943E+02  0.24028572703E+03  0.00000000000E+00 0. -1.
         22    1    1    2    0    0 -0.47442886632E+03 -0.12327932145E+03  0.15368646005E+03  0.51371204804E+03  0.00000000000E+00 0.  1.
<mgrwt>
<rscale>  0 0.98925637E+03</rscale>
<asrwt>0</asrwt>
<pdfrwt beam="1">  1        2 0.54127062E-01 0.98925637E+03</pdfrwt>
<pdfrwt beam="2">  1       -2 0.10698344E+00 0.98925637E+03</pdfrwt>
<totfact> 0.64492922E+01</totfact>
</mgrwt>
</event>
<event>
 6    1  0.4630212E-004  0.4451225E+04  0.7818608E-02  0.7919232E-01
          2   -1    0    0  501    0  0.00000000000E+00  0.00000000000E+00  0.31390902782E+04  0.31390902782E+04  0.00000000000E+00 0.  1.
         -2   -1    0    0    0  501 -0.00000000000E+00 -0.00000000000E+00 -0.15779572478E+04  0.15779572478E+04  0.00000000000E+00 0. -1.
         23    2    1    2    0    0  0.90464661395E+03  0.99062231514E+02  0.29321901181E+04  0.30714484377E+04  0.88644203786E+02 0.  0.
         11    1    3    3    0    0  0.52731966374E+03  0.97476344003E+02  0.17830582530E+04  0.18619517714E+04  0.00000000000E+00 0. -1.
        -11    1    3    3    0    0  0.37732695021E+03  0.15858875109E+01  0.11491318651E+04  0.12094966663E+04  0.00000000000E+00 0.  1.
         22    1    1    2    0    0 -0.90464661395E+03 -0.99062231514E+02 -0.13710570877E+04  0.16455990883E+04  0.00000000000E+00 0. -1.
<mgrwt>
<rscale>  0 0.44512247E+04</rscale>
<asrwt>0</asrwt>
<pdfrwt beam="1">  1        2 0.48293696E+00 0.44512247E+04</pdfrwt>
<pdfrwt beam="2">  1       -2 0.24276266E+00 0.44512247E+04</pdfrwt>
<totfact> 0.76880530E-02</totfact>
</mgrwt>
</event>
<event>
 6    1  0.4630212E-004  0.2310843E+04  0.7818608E-02  0.8473658E-01
         -2   -1    0    0    0  501 -0.00000000000E+00  0.00000000000E+00  0.18326649812E+04  0.18326649812E+04  0.00000000000E+00 0. -1.
          2   -1    0    0  501    0  0.00000000000E+00 -0.00000000000E+00 -0.72844648873E+03  0.72844648873E+03  0.00000000000E+00 0.  1.
         23    2    1    2    0    0  0.30728880826E+02  0.70945845796E+03  0.15606020054E+04  0.17169779032E+04  0.90878672427E+02 0.  0.
         13    1    3    3    0    0  0.42702289575E+02  0.16554277171E+03  0.33732607704E+03  0.37817559024E+03  0.00000000000E+00 0. -1.
        -13    1    3    3    0    0 -0.11973408749E+02  0.54391568625E+03  0.12232759284E+04  0.13388023130E+04  0.00000000000E+00 0.  1.
         22    1    1    2    0    0 -0.30728880826E+02 -0.70945845796E+03 -0.45638351290E+03  0.84413356676E+03  0.00000000000E+00 0.  1.
<mgrwt>
<rscale>  0 0.23108426E+04</rscale>
<asrwt>0</asrwt>
<pdfrwt beam="1">  1        2 0.11206869E+00 0.23108426E+04</pdfrwt>
<pdfrwt beam="2">  1       -2 0.28194846E+00 0.23108426E+04</pdfrwt>
<totfact> 0.14455278E+00</totfact>
</mgrwt>
</event>
<event>
 6    1  0.4630212E-004  0.1555058E+04  0.7818608E-02  0.8848644E-01
          2   -1    0    0  501    0  0.00000000000E+00  0.00000000000E+00  0.16358298896E+04  0.16358298896E+04  0.00000000000E+00 0.  1.
         -2   -1    0    0    0  501 -0.00000000000E+00 -0.00000000000E+00 -0.36956848352E+03  0.36956848352E+03  0.00000000000E+00 0. -1.
         23    2    1    2    0    0 -0.60405168947E+03 -0.44335929532E+03  0.38066678966E+03  0.84534504117E+03  0.90857721669E+02 0.  0.
         13    1    3    3    0    0 -0.32714086341E+03 -0.22273716287E+03  0.15246524145E+03  0.42412101821E+03  0.00000000000E+00 0.  1.
        -13    1    3    3    0    0 -0.27691082606E+03 -0.22062213245E+03  0.22820154821E+03  0.42122402297E+03  0.00000000000E+00 0. -1.
         22    1    1    2    0    0  0.60405168947E+03  0.44335929532E+03  0.88559461639E+03  0.11600533319E+04  0.00000000000E+00 0.  1.
<mgrwt>
<rscale>  0 0.15550578E+04</rscale>
<asrwt>0</asrwt>
<pdfrwt beam="1">  1        2 0.25166613E+00 0.15550578E+04</pdfrwt>
<pdfrwt beam="2">  1       -2 0.56856691E-01 0.15550578E+04</pdfrwt>
<totfact> 0.29718156E+01</totfact>
</mgrwt>
</event>
<event>
 6    1  0.4630212E-004  0.2483648E+04  0.7818608E-02  0.8408834E-01
         -2   -1    0    0    0  501 -0.00000000000E+00  0.00000000000E+00  0.16801429816E+04  0.16801429816E+04  0.00000000000E+00 0. -1.
          2   -1    0    0  501    0  0.00000000000E+00 -0.00000000000E+00 -0.91785433058E+03  0.91785433058E+03  0.00000000000E+00 0.  1.
         23    2    1    2    0    0 -0.10916527819E+04 -0.55948581970E+03  0.57204244920E+03  0.13566577954E+04  0.92507466508E+02 0.  0.
         11    1    3    3    0    0 -0.46550442672E+03 -0.18878960507E+03  0.22238632491E+03  0.54935558956E+03  0.00000000000E+00 0. -1.
        -11    1    3    3    0    0 -0.62614835518E+03 -0.37069621463E+03  0.34965612429E+03  0.80730220580E+03  0.00000000000E+00 0.  1.
         22    1    1    2    0    0  0.10916527819E+04  0.55948581970E+03  0.19024620181E+03  0.12413395168E+04  0.00000000000E+00 0. -1.
<mgrwt>
<rscale>  0 0.24836477E+04</rscale>
<asrwt>0</asrwt>
<pdfrwt beam="1">  1        2 0.14120836E+00 0.24836477E+04</pdfrwt>
<pdfrwt beam="2">  1       -2 0.25848353E+00 0.24836477E+04</pdfrwt>
<totfact> 0.14516448E+00</totfact>
</mgrwt>
</event>
<event>
 6    1  0.4630212E-004  0.7695714E+03  0.7818608E-02  0.9605137E-01
         -2   -1    0    0    0  501 -0.00000000000E+00  0.00000000000E+00  0.25528349547E+03  0.25528349547E+03  0.00000000000E+00 0. -1.
          2   -1    0    0  501    0  0.00000000000E+00 -0.00000000000E+00 -0.57998281365E+03  0.57998281365E+03  0.00000000000E+00 0.  1.
         23    2    1    2    0    0  0.16072808250E+03 -0.18955089503E+03 -0.47562533607E+03  0.54450571827E+03  0.92216910601E+02 0.  0.
         13    1    3    3    0    0  0.11218209511E+03 -0.73060485027E+02 -0.19194704312E+03  0.23402205943E+03  0.00000000000E+00 0.  1.
        -13    1    3    3    0    0  0.48545987390E+02 -0.11649041001E+03 -0.28367829295E+03  0.31048365884E+03  0.00000000000E+00 0. -1.
         22    1    1    2    0    0 -0.16072808250E+03  0.18955089503E+03  0.15092601790E+03  0.29076059085E+03  0.00000000000E+00 0. -1.
<mgrwt>
<rscale>  0 0.76957141E+03</rscale>
<asrwt>0</asrwt>
<pdfrwt beam="1">  1        2 0.89228123E-01 0.76957141E+03</pdfrwt>
<pdfrwt beam="2">  1       -2 0.39274385E-01 0.76957141E+03</pdfrwt>
<totfact> 0.31883747E+02</totfact>
</mgrwt>
</event>
<event>
 6    1  0.4630212E-004  0.2495406E+04  0.7818608E-02  0.8404624E-01
          2   -1    0    0  501    0  0.00000000000E+00  0.00000000000E+00  0.26356814992E+04  0.26356814992E+04  0.00000000000E+00 0.  1.
         -2   -1    0    0    0  501 -0.00000000000E+00 -0.00000000000E+00 -0.59064885234E+03  0.59064885234E+03  0.00000000000E+00 0. -1.
         23    2    1    2    0    0 -0.39761674777E+02 -0.46884534222E+03  0.25156335223E+04  0.25608514790E+04  0.90284734705E+02 0.  0.
         13    1    3    3    0    0  0.90700763082E+01 -0.24830509818E+03  0.11366972491E+04  0.11635369888E+04  0.00000000000E+00 0. -1.
        -13    1    3    3    0    0 -0.48831751085E+02 -0.22054024404E+03  0.13789362732E+04  0.13973144903E+04  0.00000000000E+00 0.  1.
         22    1    1    2    0    0  0.39761674777E+02  0.46884534222E+03 -0.47060087549E+03  0.66547887248E+03  0.00000000000E+00 0. -1.
<mgrwt>
<rscale>  0 0.24954056E+04</rscale>
<asrwt>0</asrwt>
<pdfrwt beam="1">  1        2 0.40548945E+00 0.24954056E+04</pdfrwt>
<pdfrwt beam="2">  1       -2 0.90869056E-01 0.24954056E+04</pdfrwt>
<totfact> 0.26734384E+00</totfact>
</mgrwt>
</event>
<event>
 6    1  0.4630212E-004  0.4026127E+04  0.7818608E-02  0.7999297E-01
          2   -1    0    0  501    0  0.00000000000E+00  0.00000000000E+00  0.40059409205E+04  0.40059409205E+04  0.00000000000E+00 0.  1.
         -2   -1    0    0    0  501 -0.00000000000E+00 -0.00000000000E+00 -0.10116037904E+04  0.10116037904E+04  0.00000000000E+00 0. -1.
         23    2    1    2    0    0 -0.15801303044E+03 -0.89773114057E+03 -0.73729830788E+03  0.11761917774E+04  0.94493300182E+02 0.  0.
         11    1    3    3    0    0 -0.29801580210E+02 -0.35292441119E+03 -0.32889850407E+03  0.48334045990E+03  0.00000000000E+00 0. -1.
        -11    1    3    3    0    0 -0.12821145023E+03 -0.54480672938E+03 -0.40839980381E+03  0.69285131746E+03  0.00000000000E+00 0.  1.
         22    1    1    2    0    0  0.15801303044E+03  0.89773114057E+03  0.37316354379E+04  0.38413529336E+04  0.00000000000E+00 0.  1.
<mgrwt>
<rscale>  0 0.40261272E+04</rscale>
<asrwt>0</asrwt>
<pdfrwt beam="1">  1        2 0.61629859E+00 0.40261272E+04</pdfrwt>
<pdfrwt beam="2">  1       -2 0.15563135E+00 0.40261272E+04</pdfrwt>
<totfact> 0.72054441E-02</totfact>
</mgrwt>
</event>
<event>
 6    1  0.4630212E-004  0.1506141E+04  0.7818608E-02  0.8880380E-01
         -2   -1    0    0    0  501 -0.00000000000E+00  0.00000000000E+00  0.36499260303E+03  0.36499260303E+03  0.00000000000E+00 0. -1.
          2   -1    0    0  501    0  0.00000000000E+00 -0.00000000000E+00 -0.15537710099E+04  0.15537710099E+04  0.00000000000E+00 0.  1.
         23    2    1    2    0    0  0.40207789319E+03  0.65834082178E+01  0.20987401262E+03  0.46344970728E+03  0.95018716793E+02 0.  0.
         11    1    3    3    0    0  0.15486911983E+03 -0.30751233463E+02  0.45776897380E+02  0.16439466831E+03  0.00000000000E+00 0. -1.
        -11    1    3    3    0    0  0.24720877336E+03  0.37334641680E+02  0.16409711524E+03  0.29905503896E+03  0.00000000000E+00 0.  1.
         22    1    1    2    0    0 -0.40207789319E+03 -0.65834082178E+01 -0.13986524195E+04  0.14553139057E+04  0.00000000000E+00 0.  1.
<mgrwt>
<rscale>  0 0.15061407E+04</rscale>
<asrwt>0</asrwt>
<pdfrwt beam="1">  1        2 0.23904169E+00 0.15061407E+04</pdfrwt>
<pdfrwt beam="2">  1       -2 0.56152709E-01 0.15061407E+04</pdfrwt>
<totfact> 0.34033492E+01</totfact>
</mgrwt>
</event>
<event>
 6    1  0.4630212E-004  0.5114796E+04  0.7818608E-02  0.7811039E-01
          2   -1    0    0  501    0  0.00000000000E+00  0.00000000000E+00  0.28893653212E+04  0.28893653212E+04  0.00000000000E+00 0.  1.
         -2   -1    0    0    0  501 -0.00000000000E+00 -0.00000000000E+00 -0.22635715844E+04  0.22635715844E+04  0.00000000000E+00 0. -1.
         23    2    1    2    0    0  0.29623825696E+03  0.21547010580E+04  0.16667704720E+04  0.27416869563E+04  0.90718276617E+02 0.  0.
         11    1    3    3    0    0  0.14196419460E+03  0.97190159351E+03  0.69692664133E+03  0.12043476589E+04  0.00000000000E+00 0.  1.
        -11    1    3    3    0    0  0.15427406237E+03  0.11827994645E+04  0.96984383069E+03  0.15373392975E+04  0.00000000000E+00 0. -1.
         22    1    1    2    0    0 -0.29623825696E+03 -0.21547010580E+04 -0.10409767353E+04  0.24112499493E+04  0.00000000000E+00 0. -1.
<mgrwt>
<rscale>  0 0.51147963E+04</rscale>
<asrwt>0</asrwt>
<pdfrwt beam="1">  1        2 0.44451774E+00 0.51147963E+04</pdfrwt>
<pdfrwt beam="2">  1       -2 0.34824178E+00 0.51147963E+04</pdfrwt>
<totfact> 0.23479468E-02</totfact>
</mgrwt>
</event>
<event>
 6    1  0.4630212E-004  0.5074351E+04  0.7818608E-02  0.7817139E-01
          2   -1    0    0  501    0  0.00000000000E+00  0.00000000000E+00  0.23217647575E+04  0.23217647575E+04  0.00000000000E+00 0.  1.
         -2   -1    0    0    0  501 -0.00000000000E+00 -0.00000000000E+00 -0.27725720775E+04  0.27725720775E+04  0.00000000000E+00 0. -1.
         23    2    1    2    0    0 -0.97428018707E+03 -0.39970215340E+03  0.20910237359E+04  0.23429937427E+04  0.90860992260E+02 0.  0.
         11    1    3    3    0    0 -0.49237146828E+03 -0.21491700235E+03  0.96918678984E+03  0.11081254506E+04  0.00000000000E+00 0. -1.
        -11    1    3    3    0    0 -0.48190871879E+03 -0.18478515105E+03  0.11218369461E+04  0.12348682921E+04  0.00000000000E+00 0.  1.
         22    1    1    2    0    0  0.97428018707E+03  0.39970215340E+03 -0.25418310559E+04  0.27513430922E+04  0.00000000000E+00 0. -1.
<mgrwt>
<rscale>  0 0.50743512E+04</rscale>
<asrwt>0</asrwt>
<pdfrwt beam="1">  1        2 0.35719458E+00 0.50743512E+04</pdfrwt>
<pdfrwt beam="2">  1       -2 0.42654955E+00 0.50743512E+04</pdfrwt>
<totfact> 0.15852873E-02</totfact>
</mgrwt>
</event>
<event>
 6    1  0.4630212E-004  0.1493926E+04  0.7818608E-02  0.8888502E-01
          2   -1    0    0  501    0  0.00000000000E+00  0.00000000000E+00  0.17592994465E+04  0.17592994465E+04  0.00000000000E+00 0.  1.
         -2   -1    0    0    0  501 -0.00000000000E+00 -0.00000000000E+00 -0.31714540065E+03  0.31714540065E+03  0.00000000000E+00 0. -1.
         23    2    1    2    0    0 -0.48697752315E+02 -0.71302635813E+03  0.43559410011E+03  0.84196480160E+03  0.91566634875E+02 0.  0.
         11    1    3    3    0    0  0.10788954120E+02 -0.17646458000E+03  0.70931420930E+02  0.19049256154E+03  0.00000000000E+00 0.  1.
        -11    1    3    3    0    0 -0.59486706435E+02 -0.53656177812E+03  0.36466267918E+03  0.65147224006E+03  0.00000000000E+00 0. -1.
         22    1    1    2    0    0  0.48697752315E+02  0.71302635813E+03  0.10065599457E+04  0.12344800455E+04  0.00000000000E+00 0.  1.
<mgrwt>
<rscale>  0 0.14939260E+04</rscale>
<asrwt>0</asrwt>
<pdfrwt beam="1">  1        2 0.27066145E+00 0.14939260E+04</pdfrwt>
<pdfrwt beam="2">  1       -2 0.48791601E-01 0.14939260E+04</pdfrwt>
<totfact> 0.34948017E+01</totfact>
</mgrwt>
</event>
<event>
 6    1  0.4630212E-004  0.7950788E+03  0.7818608E-02  0.9567168E-01
         -2   -1    0    0    0  501 -0.00000000000E+00  0.00000000000E+00  0.66108289572E+03  0.66108289572E+03  0.00000000000E+00 0. -1.
          2   -1    0    0  501    0  0.00000000000E+00 -0.00000000000E+00 -0.23905861650E+03  0.23905861650E+03  0.00000000000E+00 0.  1.
         23    2    1    2    0    0  0.13948880698E+03 -0.22724599576E+03 -0.11286358853E+03  0.30247697344E+03  0.87500057052E+02 0.  0.
         13    1    3    3    0    0  0.12335412086E+03 -0.13652029342E+03 -0.49150094736E+02  0.19044621671E+03  0.00000000000E+00 0. -1.
        -13    1    3    3    0    0  0.16134686122E+02 -0.90725702332E+02 -0.63713493797E+02  0.11203075672E+03  0.00000000000E+00 0.  1.
         22    1    1    2    0    0 -0.13948880698E+03  0.22724599576E+03  0.53488786775E+03  0.59766453878E+03  0.00000000000E+00 0. -1.
<mgrwt>
<rscale>  0 0.79507877E+03</rscale>
<asrwt>0</asrwt>
<pdfrwt beam="1">  1        2 0.36778249E-01 0.79507877E+03</pdfrwt>
<pdfrwt beam="2">  1       -2 0.10170506E+00 0.79507877E+03</pdfrwt>
<totfact> 0.11308989E+02</totfact>
</mgrwt>
</event>
<event>
 6    1  0.4630212E-004  0.1485912E+04  0.7818608E-02  0.8893876E-01
         -2   -1    0    0    0  501 -0.00000000000E+00  0.00000000000E+00  0.12907684156E+04  0.12907684156E+04  0.00000000000E+00 0. -1.
          2   -1    0    0  501    0  0.00000000000E+00 -0.00000000000E+00 -0.42763969438E+03  0.42763969438E+03  0.00000000000E+00 0.  1.
         23    2    1    2    0    0 -0.52229524242E+03 -0.31741834744E+03 -0.49799117081E+02  0.61977989011E+03  0.90002403189E+02 0.  0.
         11    1    3    3    0    0 -0.93866392107E+02 -0.81181746595E+02 -0.40170905731E+02  0.13044185377E+03  0.00000000000E+00 0. -1.
        -11    1    3    3    0    0 -0.42842885031E+03 -0.23623660085E+03 -0.96282113499E+01  0.48933803634E+03  0.00000000000E+00 0.  1.
         22    1    1    2    0    0  0.52229524242E+03  0.31741834744E+03  0.91292783829E+03  0.10986282199E+04  0.00000000000E+00 0. -1.
<mgrwt>
<rscale>  0 0.14859123E+04</rscale>
<asrwt>0</asrwt>
<pdfrwt beam="1">  1        2 0.65790723E-01 0.14859123E+04</pdfrwt>
<pdfrwt beam="2">  1       -2 0.19857975E+00 0.14859123E+04</pdfrwt>
<totfact> 0.96791218E+00</totfact>
</mgrwt>
</event>
<event>
 6    1  0.4630212E-004  0.5206440E+04  0.7818608E-02  0.7797428E-01
         -2   -1    0    0    0  501 -0.00000000000E+00  0.00000000000E+00  0.18480075404E+04  0.18480075404E+04  0.00000000000E+00 0. -1.
          2   -1    0    0  501    0  0.00000000000E+00 -0.00000000000E+00 -0.36670603325E+04  0.36670603325E+04  0.00000000000E+00 0.  1.
         23    2    1    2    0    0 -0.14042013579E+04 -0.12364994278E+04 -0.28258759417E+04  0.33903549175E+04  0.90660575666E+02 0.  0.
         13    1    3    3    0    0 -0.87130479563E+03 -0.81421217619E+03 -0.17529854551E+04  0.21201583716E+04  0.00000000000E+00 0.  1.
        -13    1    3    3    0    0 -0.53289656229E+03 -0.42228725160E+03 -0.10728904866E+04  0.12701965459E+04  0.00000000000E+00 0. -1.
         22    1    1    2    0    0  0.14042013579E+04  0.12364994278E+04  0.10068231495E+04  0.21247129554E+04  0.00000000000E+00 0. -1.
<mgrwt>
<rscale>  0 0.52064403E+04</rscale>
<asrwt>0</asrwt>
<pdfrwt beam="1">  1        2 0.56416313E+00 0.52064403E+04</pdfrwt>
<pdfrwt beam="2">  1       -2 0.28430885E+00 0.52064403E+04</pdfrwt>
<totfact> 0.17473626E-02</totfact>
</mgrwt>
</event>
<event>
 6    1  0.4630212E-004  0.1986476E+04  0.7818608E-02  0.8612970E-01
          2   -1    0    0  501    0  0.00000000000E+00  0.00000000000E+00  0.10886138748E+04  0.10886138748E+04  0.00000000000E+00 0.  1.
         -2   -1    0    0    0  501 -0.00000000000E+00 -0.00000000000E+00 -0.90621806236E+03  0.90621806236E+03  0.00000000000E+00 0. -1.
         23    2    1    2    0    0 -0.70987330784E+03 -0.68356588424E+03 -0.15472268985E+02  0.98967811367E+03  0.89671323650E+02 0.  0.
         11    1    3    3    0    0 -0.39036970375E+03 -0.43004952733E+03 -0.29757767918E+02  0.58156394860E+03  0.00000000000E+00 0.  1.
        -11    1    3    3    0    0 -0.31950360409E+03 -0.25351635691E+03  0.14285498933E+02  0.40811416506E+03  0.00000000000E+00 0. -1.
         22    1    1    2    0    0  0.70987330784E+03  0.68356588424E+03  0.19786808145E+03  0.10051538235E+04  0.00000000000E+00 0.  1.
<mgrwt>
<rscale>  0 0.19864758E+04</rscale>
<asrwt>0</asrwt>
<pdfrwt beam="1">  1        2 0.16747906E+00 0.19864758E+04</pdfrwt>
<pdfrwt beam="2">  1       -2 0.13941816E+00 0.19864758E+04</pdfrwt>
<totfact> 0.74774751E+00</totfact>
</mgrwt>
</event>
<event>
 6    1  0.5035268E-004  0.2229198E+04  0.7818608E-02  0.8506373E-01
         -2   -1    0    0    0  501 -0.00000000000E+00  0.00000000000E+00  0.71677591000E+03  0.71677591000E+03  0.00000000000E+00 0. -1.
          2   -1    0    0  501    0  0.00000000000E+00 -0.00000000000E+00 -0.17332211203E+04  0.17332211203E+04  0.00000000000E+00 0.  1.
         23    2    1    2    0    0  0.25399001208E+03  0.42316890193E+03 -0.16051255556E+04  0.16817995331E+04  0.91862802639E+02 0.  0.
         11    1    3    3    0    0  0.11499541513E+03  0.21349034033E+03 -0.63914359608E+03  0.68359827920E+03  0.00000000000E+00 0. -1.
        -11    1    3    3    0    0  0.13899459695E+03  0.20967856160E+03 -0.96598195952E+03  0.99820125390E+03  0.00000000000E+00 0.  1.
         22    1    1    2    0    0 -0.25399001208E+03 -0.42316890193E+03  0.58868034529E+03  0.76819749721E+03  0.00000000000E+00 0. -1.
<mgrwt>
<rscale>  0 0.22291982E+04</rscale>
<asrwt>0</asrwt>
<pdfrwt beam="1">  1        2 0.26664940E+00 0.22291982E+04</pdfrwt>
<pdfrwt beam="2">  1       -2 0.11027322E+00 0.22291982E+04</pdfrwt>
<totfact> 0.55971984E+00</totfact>
</mgrwt>
</event>
<event>
 6    1  0.4630212E-004  0.1892165E+04  0.7818608E-02  0.8658766E-01
          2   -1    0    0  501    0  0.00000000000E+00  0.00000000000E+00  0.11090024417E+04  0.11090024417E+04  0.00000000000E+00 0. -1.
         -2   -1    0    0    0  501 -0.00000000000E+00 -0.00000000000E+00 -0.80709698493E+03  0.80709698493E+03  0.00000000000E+00 0.  1.
         23    2    1    2    0    0  0.47906131746E+03  0.49412887069E+03  0.80540965759E+03  0.10633511830E+04  0.91476418834E+02 0.  0.
         11    1    3    3    0    0  0.13745666387E+03  0.88999255074E+02  0.20932013558E+03  0.26576328001E+03  0.00000000000E+00 0.  1.
        -11    1    3    3    0    0  0.34160465360E+03  0.40512961562E+03  0.59608952201E+03  0.79758790303E+03  0.00000000000E+00 0. -1.
         22    1    1    2    0    0 -0.47906131746E+03 -0.49412887069E+03 -0.50350420081E+03  0.85274824361E+03  0.00000000000E+00 0.  1.
<mgrwt>
<rscale>  0 0.18921655E+04</rscale>
<asrwt>0</asrwt>
<pdfrwt beam="1">  1        2 0.17061576E+00 0.18921655E+04</pdfrwt>
<pdfrwt beam="2">  1       -2 0.12416877E+00 0.18921655E+04</pdfrwt>
<totfact> 0.98294545E+00</totfact>
</mgrwt>
</event>
<event>
 6    1  0.4630212E-004  0.2409367E+04  0.7818608E-02  0.8436005E-01
         -2   -1    0    0    0  501 -0.00000000000E+00  0.00000000000E+00  0.21607776678E+04  0.21607776678E+04  0.00000000000E+00 0. -1.
          2   -1    0    0  501    0  0.00000000000E+00 -0.00000000000E+00 -0.67163863610E+03  0.67163863610E+03  0.00000000000E+00 0.  1.
         23    2    1    2    0    0  0.15265569350E+03  0.11286195717E+04  0.12004709221E+04  0.16575055942E+04  0.95438260543E+02 0.  0.
         11    1    3    3    0    0  0.13904368147E+03  0.87654073402E+03  0.98231150962E+03  0.13238552435E+04  0.00000000000E+00 0.  1.
        -11    1    3    3    0    0  0.13612012037E+02  0.25207883766E+03  0.21815941250E+03  0.33365035071E+03  0.00000000000E+00 0. -1.
         22    1    1    2    0    0 -0.15265569350E+03 -0.11286195717E+04  0.28866810959E+03  0.11749107097E+04  0.00000000000E+00 0.  1.
<mgrwt>
<rscale>  0 0.24093665E+04</rscale>
<asrwt>0</asrwt>
<pdfrwt beam="1">  1        2 0.10332902E+00 0.24093665E+04</pdfrwt>
<pdfrwt beam="2">  1       -2 0.33242733E+00 0.24093665E+04</pdfrwt>
<totfact> 0.77807978E-01</totfact>
</mgrwt>
</event>
<event>
 6    1  0.4630212E-004  0.1244465E+04  0.7818608E-02  0.9074803E-01
         -2   -1    0    0    0  501 -0.00000000000E+00  0.00000000000E+00  0.74576966728E+03  0.74576966728E+03  0.00000000000E+00 0. -1.
          2   -1    0    0  501    0  0.00000000000E+00 -0.00000000000E+00 -0.51915901216E+03  0.51915901216E+03  0.00000000000E+00 0.  1.
         23    2    1    2    0    0 -0.14186869486E+03  0.43094020007E+03 -0.31381874521E+03  0.55930830037E+03  0.92235499711E+02 0.  0.
         11    1    3    3    0    0 -0.84808743061E+02  0.12572366928E+03 -0.87596540964E+02  0.17513457085E+03  0.00000000000E+00 0. -1.
        -11    1    3    3    0    0 -0.57059951797E+02  0.30521653079E+03 -0.22622220424E+03  0.38417372952E+03  0.00000000000E+00 0.  1.
         22    1    1    2    0    0  0.14186869486E+03 -0.43094020007E+03  0.54042940033E+03  0.70562037907E+03  0.00000000000E+00 0. -1.
<mgrwt>
<rscale>  0 0.12444646E+04</rscale>
<asrwt>0</asrwt>
<pdfrwt beam="1">  1        2 0.79870617E-01 0.12444646E+04</pdfrwt>
<pdfrwt beam="2">  1       -2 0.11473380E+00 0.12444646E+04</pdfrwt>
<totfact> 0.34377491E+01</totfact>
</mgrwt>
</event>
<event>
 6    1  0.4630212E-004  0.1581193E+04  0.7818608E-02  0.8832186E-01
          1   -1    0    0  501    0  0.00000000000E+00  0.00000000000E+00  0.81983771674E+03  0.81983771674E+03  0.00000000000E+00 0.  1.
         -1   -1    0    0    0  501 -0.00000000000E+00 -0.00000000000E+00 -0.76239823418E+03  0.76239823418E+03  0.00000000000E+00 0. -1.
         23    2    1    2    0    0  0.27508308156E+03  0.52518064860E+03  0.54817366873E+03  0.81262211471E+03  0.91514560655E+02 0.  0.
         11    1    3    3    0    0  0.17394498677E+03  0.31549321075E+03  0.39132640252E+03  0.53191087389E+03  0.00000000000E+00 0. -1.
        -11    1    3    3    0    0  0.10113809479E+03  0.20968743784E+03  0.15684726621E+03  0.28071124082E+03  0.00000000000E+00 0.  1.
         22    1    1    2    0    0 -0.27508308156E+03 -0.52518064860E+03 -0.49073418617E+03  0.76961383621E+03  0.00000000000E+00 0. -1.
<mgrwt>
<rscale>  0 0.15811930E+04</rscale>
<asrwt>0</asrwt>
<pdfrwt beam="1">  1        1 0.12612888E+00 0.15811930E+04</pdfrwt>
<pdfrwt beam="2">  1       -1 0.11729204E+00 0.15811930E+04</pdfrwt>
<totfact> 0.13370057E+01</totfact>
</mgrwt>
</event>
<event>
 6    1  0.4630212E-004  0.4047469E+04  0.7818608E-02  0.7995038E-01
         -2   -1    0    0    0  501 -0.00000000000E+00  0.00000000000E+00  0.11132718904E+04  0.11132718904E+04  0.00000000000E+00 0. -1.
          2   -1    0    0  501    0  0.00000000000E+00 -0.00000000000E+00 -0.36787979173E+04  0.36787979173E+04  0.00000000000E+00 0.  1.
         23    2    1    2    0    0 -0.75892192237E+03 -0.17917220329E+04 -0.19372781011E+04  0.27473385824E+04  0.92695835863E+02 0.  0.
         11    1    3    3    0    0 -0.55807115452E+03 -0.13084619003E+04 -0.13574680901E+04  0.19662745418E+04  0.00000000000E+00 0. -1.
        -11    1    3    3    0    0 -0.20085076784E+03 -0.48326013264E+03 -0.57981001098E+03  0.78106404064E+03  0.00000000000E+00 0.  1.
         22    1    1    2    0    0  0.75892192237E+03  0.17917220329E+04 -0.62824792575E+03  0.20447312253E+04  0.00000000000E+00 0. -1.
<mgrwt>
<rscale>  0 0.40474695E+04</rscale>
<asrwt>0</asrwt>
<pdfrwt beam="1">  1        2 0.56596892E+00 0.40474695E+04</pdfrwt>
<pdfrwt beam="2">  1       -2 0.17127260E+00 0.40474695E+04</pdfrwt>
<totfact> 0.99020249E-02</totfact>
</mgrwt>
</event>
<event>
 6    1  0.4630212E-004  0.7735703E+03  0.7818608E-02  0.9599081E-01
         -2   -1    0    0    0  501 -0.00000000000E+00  0.00000000000E+00  0.30861018191E+03  0.30861018191E+03  0.00000000000E+00 0. -1.
          2   -1    0    0  501    0  0.00000000000E+00 -0.00000000000E+00 -0.48476289654E+03  0.48476289654E+03  0.00000000000E+00 0.  1.
         23    2    1    2    0    0 -0.25745265886E+03 -0.10550577465E+03  0.17817321116E+03  0.34286203339E+03  0.91626091961E+02 0.  0.
         11    1    3    3    0    0 -0.24040568640E+03 -0.92174175238E+02  0.18828961953E+03  0.31897328016E+03  0.00000000000E+00 0. -1.
        -11    1    3    3    0    0 -0.17046972452E+02 -0.13331599410E+02 -0.10116408363E+02  0.23888753228E+02  0.00000000000E+00 0.  1.
         22    1    1    2    0    0  0.25745265886E+03  0.10550577465E+03 -0.35432592579E+03  0.45051104506E+03  0.00000000000E+00 0. -1.
<mgrwt>
<rscale>  0 0.77357033E+03</rscale>
<asrwt>0</asrwt>
<pdfrwt beam="1">  1        2 0.74578907E-01 0.77357033E+03</pdfrwt>
<pdfrwt beam="2">  1       -2 0.47478490E-01 0.77357033E+03</pdfrwt>
<totfact> 0.27040201E+02</totfact>
</mgrwt>
</event>
<event>
 6    1  0.4630212E-004  0.4223336E+04  0.7818608E-02  0.7960948E-01
         -2   -1    0    0    0  501 -0.00000000000E+00  0.00000000000E+00  0.11284765288E+04  0.11284765288E+04  0.00000000000E+00 0. -1.
          2   -1    0    0  501    0  0.00000000000E+00 -0.00000000000E+00 -0.39514704386E+04  0.39514704386E+04  0.00000000000E+00 0.  1.
         23    2    1    2    0    0  0.11876804623E+04  0.76078184484E+03  0.47657760276E+03  0.14915565117E+04  0.90778412955E+02 0.  0.
         13    1    3    3    0    0  0.11478194955E+04  0.71569990132E+03  0.44790912529E+03  0.14248994798E+04  0.00000000000E+00 0. -1.
        -13    1    3    3    0    0  0.39860966801E+02  0.45081943520E+02  0.28668477476E+02  0.66657031937E+02  0.00000000000E+00 0.  1.
         22    1    1    2    0    0 -0.11876804623E+04 -0.76078184484E+03 -0.32995715126E+04  0.35883904557E+04  0.00000000000E+00 0.  1.
<mgrwt>
<rscale>  0 0.42233360E+04</rscale>
<asrwt>0</asrwt>
<pdfrwt beam="1">  1        2 0.60791853E+00 0.42233360E+04</pdfrwt>
<pdfrwt beam="2">  1       -2 0.17361177E+00 0.42233360E+04</pdfrwt>
<totfact> 0.58060738E-02</totfact>
</mgrwt>
</event>
<event>
 6    1  0.4630212E-004  0.4422727E+04  0.7818608E-02  0.7924306E-01
          1   -1    0    0  501    0  0.00000000000E+00  0.00000000000E+00  0.32629555209E+04  0.32629555209E+04  0.00000000000E+00 0.  1.
         -1   -1    0    0    0  501 -0.00000000000E+00 -0.00000000000E+00 -0.14986810345E+04  0.14986810345E+04  0.00000000000E+00 0. -1.
         23    2    1    2    0    0 -0.95041935949E+03 -0.17086998678E+04  0.19923844956E+04  0.27931380481E+04  0.95246944407E+02 0.  0.
         13    1    3    3    0    0 -0.90013624087E+03 -0.15758020200E+04  0.18663921932E+04  0.26032320445E+04  0.00000000000E+00 0.  1.
        -13    1    3    3    0    0 -0.50283118625E+02 -0.13289784778E+03  0.12599230234E+03  0.18990600362E+03  0.00000000000E+00 0. -1.
         22    1    1    2    0    0  0.95041935949E+03  0.17086998678E+04 -0.22811000916E+03  0.19684985073E+04  0.00000000000E+00 0. -1.
<mgrwt>
<rscale>  0 0.44227275E+04</rscale>
<asrwt>0</asrwt>
<pdfrwt beam="1">  1        1 0.50199316E+00 0.44227275E+04</pdfrwt>
<pdfrwt beam="2">  1       -1 0.23056631E+00 0.44227275E+04</pdfrwt>
<totfact> 0.26942619E-02</totfact>
</mgrwt>
</event>
<event>
 6    1  0.4630212E-004  0.2778571E+04  0.7818608E-02  0.8309952E-01
         -2   -1    0    0    0  501 -0.00000000000E+00  0.00000000000E+00  0.77358500047E+03  0.77358500047E+03  0.00000000000E+00 0. -1.
          2   -1    0    0  501    0  0.00000000000E+00 -0.00000000000E+00 -0.24950255593E+04  0.24950255593E+04  0.00000000000E+00 0.  1.
         23    2    1    2    0    0  0.11018290818E+04 -0.37282439938E+03  0.28786098635E+02  0.11671066433E+04  0.91016037715E+02 0.  0.
         13    1    3    3    0    0  0.68880428074E+03 -0.24028048628E+03 -0.25471290981E+02  0.72995536570E+03  0.00000000000E+00 0. -1.
        -13    1    3    3    0    0  0.41302480108E+03 -0.13254391310E+03  0.54257389616E+02  0.43715127763E+03  0.00000000000E+00 0.  1.
         22    1    1    2    0    0 -0.11018290818E+04  0.37282439938E+03 -0.17502266575E+04  0.21015039164E+04  0.00000000000E+00 0.  1.
<mgrwt>
<rscale>  0 0.27785711E+04</rscale>
<asrwt>0</asrwt>
<pdfrwt beam="1">  1        2 0.38385008E+00 0.27785711E+04</pdfrwt>
<pdfrwt beam="2">  1       -2 0.11901308E+00 0.27785711E+04</pdfrwt>
<totfact> 0.16552937E+00</totfact>
</mgrwt>
</event>
<event>
 6    1  0.4630212E-004  0.1493172E+04  0.7818608E-02  0.8889006E-01
         -2   -1    0    0    0  501 -0.00000000000E+00  0.00000000000E+00  0.66977942976E+03  0.66977942976E+03  0.00000000000E+00 0. -1.
          2   -1    0    0  501    0  0.00000000000E+00 -0.00000000000E+00 -0.83220013327E+03  0.83220013327E+03  0.00000000000E+00 0.  1.
         23    2    1    2    0    0  0.30689071543E+03  0.22989351416E+03  0.55974695192E+03  0.68432495280E+03  0.89168670323E+02 0.  0.
         13    1    3    3    0    0  0.14822386045E+03  0.13077373236E+03  0.21478547933E+03  0.29189875644E+03  0.00000000000E+00 0.  1.
        -13    1    3    3    0    0  0.15866685498E+03  0.99119781801E+02  0.34496147259E+03  0.39242619636E+03  0.00000000000E+00 0. -1.
         22    1    1    2    0    0 -0.30689071543E+03 -0.22989351416E+03 -0.72216765543E+03  0.81765461022E+03  0.00000000000E+00 0.  1.
<mgrwt>
<rscale>  0 0.14931718E+04</rscale>
<asrwt>0</asrwt>
<pdfrwt beam="1">  1        2 0.12803079E+00 0.14931718E+04</pdfrwt>
<pdfrwt beam="2">  1       -2 0.10304299E+00 0.14931718E+04</pdfrwt>
<totfact> 0.24288531E+01</totfact>
</mgrwt>
</event>
<event>
 6    1  0.4630212E-004  0.2680599E+04  0.7818608E-02  0.8341328E-01
          2   -1    0    0  501    0  0.00000000000E+00  0.00000000000E+00  0.14053415881E+04  0.14053415881E+04  0.00000000000E+00 0.  1.
         -2   -1    0    0    0  501 -0.00000000000E+00 -0.00000000000E+00 -0.12782673969E+04  0.12782673969E+04  0.00000000000E+00 0. -1.
         23    2    1    2    0    0 -0.91816608110E+03 -0.20634793338E+03  0.10168375574E+04  0.13885077263E+04  0.91578741055E+02 0.  0.
         11    1    3    3    0    0 -0.43548097398E+03 -0.55419592097E+02  0.44428538973E+03  0.62458347514E+03  0.00000000000E+00 0.  1.
        -11    1    3    3    0    0 -0.48268510711E+03 -0.15092834129E+03  0.57255216769E+03  0.76392425119E+03  0.00000000000E+00 0. -1.
         22    1    1    2    0    0  0.91816608110E+03  0.20634793338E+03 -0.88976336622E+03  0.12951012586E+04  0.00000000000E+00 0. -1.
<mgrwt>
<rscale>  0 0.26805987E+04</rscale>
<asrwt>0</asrwt>
<pdfrwt beam="1">  1        2 0.21620640E+00 0.26805987E+04</pdfrwt>
<pdfrwt beam="2">  1       -2 0.19665652E+00 0.26805987E+04</pdfrwt>
<totfact> 0.17669145E+00</totfact>
</mgrwt>
</event>
<event>
 6    1  0.4630212E-004  0.3914892E+04  0.7818608E-02  0.8021939E-01
         -2   -1    0    0    0  501 -0.00000000000E+00  0.00000000000E+00  0.25135625426E+04  0.25135625426E+04  0.00000000000E+00 0. -1.
          2   -1    0    0  501    0  0.00000000000E+00 -0.00000000000E+00 -0.15243680240E+04  0.15243680240E+04  0.00000000000E+00 0.  1.
         23    2    1    2    0    0 -0.15806724249E+04 -0.11377603777E+04  0.68624857576E+03  0.20669409075E+04  0.91014368467E+02 0.  0.
         11    1    3    3    0    0 -0.19571819115E+03 -0.17361606782E+03  0.75313843220E+02  0.27225048087E+03  0.00000000000E+00 0. -1.
        -11    1    3    3    0    0 -0.13849542337E+04 -0.96414430991E+03  0.61093473254E+03  0.17946904266E+04  0.00000000000E+00 0.  1.
         22    1    1    2    0    0  0.15806724249E+04  0.11377603777E+04  0.30294594282E+03  0.19709896591E+04  0.00000000000E+00 0. -1.
<mgrwt>
<rscale>  0 0.39148918E+04</rscale>
<asrwt>0</asrwt>
<pdfrwt beam="1">  1        2 0.23451816E+00 0.39148918E+04</pdfrwt>
<pdfrwt beam="2">  1       -2 0.38670193E+00 0.39148918E+04</pdfrwt>
<totfact> 0.88464200E-02</totfact>
</mgrwt>
</event>
<event>
 6    1  0.4630212E-004  0.2311497E+04  0.7818608E-02  0.8473402E-01
         -2   -1    0    0    0  501 -0.00000000000E+00  0.00000000000E+00  0.82684816838E+03  0.82684816838E+03  0.00000000000E+00 0. -1.
          2   -1    0    0  501    0  0.00000000000E+00 -0.00000000000E+00 -0.16154770719E+04  0.16154770719E+04  0.00000000000E+00 0.  1.
         23    2    1    2    0    0 -0.92976507968E+03 -0.39134218696E+03 -0.98618398927E+03  0.14143953679E+04  0.10170341817E+03 0.  0.
         11    1    3    3    0    0 -0.19186747866E+03 -0.11405178911E+03 -0.25927532998E+03  0.34211786961E+03  0.00000000000E+00 0. -1.
        -11    1    3    3    0    0 -0.73789760102E+03 -0.27729039785E+03 -0.72690865929E+03  0.10722774983E+04  0.00000000000E+00 0.  1.
         22    1    1    2    0    0  0.92976507968E+03  0.39134218696E+03  0.19755508574E+03  0.10279298724E+04  0.00000000000E+00 0. -1.
<mgrwt>
<rscale>  0 0.23114967E+04</rscale>
<asrwt>0</asrwt>
<pdfrwt beam="1">  1        2 0.24853493E+00 0.23114967E+04</pdfrwt>
<pdfrwt beam="2">  1       -2 0.12720741E+00 0.23114967E+04</pdfrwt>
<totfact> 0.45436420E+00</totfact>
</mgrwt>
</event>
<event>
 6    1  0.4630212E-004  0.1981193E+04  0.7818608E-02  0.8615464E-01
         -2   -1    0    0    0  501 -0.00000000000E+00  0.00000000000E+00  0.48221921975E+03  0.48221921975E+03  0.00000000000E+00 0. -1.
          2   -1    0    0  501    0  0.00000000000E+00 -0.00000000000E+00 -0.20349285552E+04  0.20349285552E+04  0.00000000000E+00 0.  1.
         23    2    1    2    0    0  0.70208135935E+03  0.85796210239E+01 -0.16619908462E+04  0.18065604871E+04  0.91953115948E+02 0.  0.
         11    1    3    3    0    0  0.67605500240E+03  0.15755772286E+02 -0.15452968636E+04  0.16867842207E+04  0.00000000000E+00 0. -1.
        -11    1    3    3    0    0  0.26026356942E+02 -0.71761512617E+01 -0.11669398264E+03  0.11977626638E+03  0.00000000000E+00 0.  1.
         22    1    1    2    0    0 -0.70208135935E+03 -0.85796210239E+01  0.10928151079E+03  0.71058728784E+03  0.00000000000E+00 0. -1.
<mgrwt>
<rscale>  0 0.19811932E+04</rscale>
<asrwt>0</asrwt>
<pdfrwt beam="1">  1        2 0.31306593E+00 0.19811932E+04</pdfrwt>
<pdfrwt beam="2">  1       -2 0.74187573E-01 0.19811932E+04</pdfrwt>
<totfact> 0.97232708E+00</totfact>
</mgrwt>
</event>
<event>
 6    1  0.4630212E-004  0.1144082E+04  0.7818608E-02  0.9163260E-01
         -2   -1    0    0    0  501 -0.00000000000E+00  0.00000000000E+00  0.40575847596E+03  0.40575847596E+03  0.00000000000E+00 0. -1.
          2   -1    0    0  501    0  0.00000000000E+00 -0.00000000000E+00 -0.80646788433E+03  0.80646788433E+03  0.00000000000E+00 0.  1.
         23    2    1    2    0    0  0.40157085496E+03  0.37626409577E+03 -0.35276895434E+03  0.65983871700E+03  0.90040968388E+02 0.  0.
         13    1    3    3    0    0  0.23243040782E+03  0.21269127221E+03 -0.14874375274E+03  0.34840518902E+03  0.00000000000E+00 0. -1.
        -13    1    3    3    0    0  0.16914044714E+03  0.16357282356E+03 -0.20402520159E+03  0.31143352798E+03  0.00000000000E+00 0.  1.
         22    1    1    2    0    0 -0.40157085496E+03 -0.37626409577E+03 -0.47940454041E+02  0.55238764329E+03  0.00000000000E+00 0. -1.
<mgrwt>
<rscale>  0 0.11440825E+04</rscale>
<asrwt>0</asrwt>
<pdfrwt beam="1">  1        2 0.12407198E+00 0.11440825E+04</pdfrwt>
<pdfrwt beam="2">  1       -2 0.62424382E-01 0.11440825E+04</pdfrwt>
<totfact> 0.80369048E+01</totfact>
</mgrwt>
</event>
<event>
 6    1  0.4630212E-004  0.1604709E+04  0.7818608E-02  0.8817660E-01
          2   -1    0    0  501    0  0.00000000000E+00  0.00000000000E+00  0.16973393497E+04  0.16973393497E+04  0.00000000000E+00 0.  1.
         -2   -1    0    0    0  501 -0.00000000000E+00 -0.00000000000E+00 -0.37928355969E+03  0.37928355969E+03  0.00000000000E+00 0. -1.
         23    2    1    2    0    0  0.57954466381E+03 -0.43122290666E+03  0.21685875900E+03  0.75963387614E+03  0.90502441123E+02 0.  0.
         11    1    3    3    0    0  0.24244702381E+03 -0.12976251017E+03  0.99344310236E+02  0.29238358431E+03  0.00000000000E+00 0.  1.
        -11    1    3    3    0    0  0.33709764000E+03 -0.30146039649E+03  0.11751444876E+03  0.46725029183E+03  0.00000000000E+00 0. -1.
         22    1    1    2    0    0 -0.57954466381E+03  0.43122290666E+03  0.11011970310E+04  0.13169890333E+04  0.00000000000E+00 0.  1.
<mgrwt>
<rscale>  0 0.16047092E+04</rscale>
<asrwt>0</asrwt>
<pdfrwt beam="1">  1        2 0.26112913E+00 0.16047092E+04</pdfrwt>
<pdfrwt beam="2">  1       -2 0.58351318E-01 0.16047092E+04</pdfrwt>
<totfact> 0.25907821E+01</totfact>
</mgrwt>
</event>
<event>
 6    1  0.4630212E-004  0.2979099E+04  0.7818608E-02  0.8249724E-01
          2   -1    0    0  501    0  0.00000000000E+00  0.00000000000E+00  0.26200385569E+04  0.26200385569E+04  0.00000000000E+00 0.  1.
         -2   -1    0    0    0  501 -0.00000000000E+00 -0.00000000000E+00 -0.84684184798E+03  0.84684184798E+03  0.00000000000E+00 0. -1.
         23    2    1    2    0    0  0.64345563288E+03  0.13009608792E+04  0.50498164223E+03  0.15394718296E+04  0.91829702721E+02 0.  0.
         11    1    3    3    0    0  0.38230240567E+03  0.83051158746E+03  0.27932178767E+03  0.95599439713E+03  0.00000000000E+00 0.  1.
        -11    1    3    3    0    0  0.26115322721E+03  0.47044929177E+03  0.22565985457E+03  0.58347743244E+03  0.00000000000E+00 0. -1.
         22    1    1    2    0    0 -0.64345563288E+03 -0.13009608792E+04  0.12682150667E+04  0.19274085753E+04  0.00000000000E+00 0. -1.
<mgrwt>
<rscale>  0 0.29790994E+04</rscale>
<asrwt>0</asrwt>
<pdfrwt beam="1">  1        2 0.40308285E+00 0.29790994E+04</pdfrwt>
<pdfrwt beam="2">  1       -2 0.13028336E+00 0.29790994E+04</pdfrwt>
<totfact> 0.10965540E+00</totfact>
</mgrwt>
</event>
<event>
 6    1  0.4630212E-004  0.1674354E+04  0.7818608E-02  0.8776128E-01
          1   -1    0    0  501    0  0.00000000000E+00  0.00000000000E+00  0.17287859007E+04  0.17287859007E+04  0.00000000000E+00 0.  1.
         -1   -1    0    0    0  501 -0.00000000000E+00 -0.00000000000E+00 -0.40540877004E+03  0.40540877004E+03  0.00000000000E+00 0. -1.
         23    2    1    2    0    0  0.54161444935E+03 -0.59596259714E+03  0.38262452210E+03  0.89583563580E+03  0.87191355829E+02 0.  0.
         11    1    3    3    0    0  0.18599296261E+03 -0.26188854698E+03  0.13165690815E+03  0.34714915331E+03  0.00000000000E+00 0. -1.
        -11    1    3    3    0    0  0.35562148674E+03 -0.33407405015E+03  0.25096761394E+03  0.54868648249E+03  0.00000000000E+00 0.  1.
         22    1    1    2    0    0 -0.54161444935E+03  0.59596259714E+03  0.94075260860E+03  0.12383590350E+04  0.00000000000E+00 0.  1.
<mgrwt>
<rscale>  0 0.16743536E+04</rscale>
<asrwt>0</asrwt>
<pdfrwt beam="1">  1        1 0.26596706E+00 0.16743536E+04</pdfrwt>
<pdfrwt beam="2">  1       -1 0.62370581E-01 0.16743536E+04</pdfrwt>
<totfact> 0.11326762E+01</totfact>
</mgrwt>
</event>
<event>
 6    1  0.4630212E-004  0.1580050E+04  0.7818608E-02  0.8832899E-01
          2   -1    0    0  501    0  0.00000000000E+00  0.00000000000E+00  0.16787192287E+04  0.16787192287E+04  0.00000000000E+00 0.  1.
         -2   -1    0    0    0  501 -0.00000000000E+00 -0.00000000000E+00 -0.37179481882E+03  0.37179481882E+03  0.00000000000E+00 0. -1.
         23    2    1    2    0    0 -0.36871208264E+03 -0.25228413698E+03 -0.18585984751E+03  0.49230972050E+03  0.90714344658E+02 0.  0.
         13    1    3    3    0    0 -0.30543048228E+03 -0.23481529913E+03 -0.13152746982E+03  0.40709394435E+03  0.00000000000E+00 0.  1.
        -13    1    3    3    0    0 -0.63281600358E+02 -0.17468837858E+02 -0.54332377682E+02  0.85215776148E+02  0.00000000000E+00 0. -1.
         22    1    1    2    0    0  0.36871208264E+03  0.25228413698E+03  0.14927842574E+04  0.15582043270E+04  0.00000000000E+00 0.  1.
<mgrwt>
<rscale>  0 0.15800495E+04</rscale>
<asrwt>0</asrwt>
<pdfrwt beam="1">  1        2 0.25826449E+00 0.15800495E+04</pdfrwt>
<pdfrwt beam="2">  1       -2 0.57199204E-01 0.15800495E+04</pdfrwt>
<totfact> 0.27721151E+01</totfact>
</mgrwt>
</event>
<event>
 6    1  0.4630212E-004  0.2941385E+04  0.7818608E-02  0.8260670E-01
         -2   -1    0    0    0  501 -0.00000000000E+00  0.00000000000E+00  0.18543349612E+04  0.18543349612E+04  0.00000000000E+00 0. -1.
          2   -1    0    0  501    0  0.00000000000E+00 -0.00000000000E+00 -0.11664216591E+04  0.11664216591E+04  0.00000000000E+00 0.  1.
         23    2    1    2    0    0  0.64529672259E+03 -0.17770389001E+03  0.16875464271E+04  0.18177383672E+04  0.91505713041E+02 0.  0.
         13    1    3    3    0    0  0.38420740924E+03 -0.13204553721E+03  0.91977289763E+03  0.10055016362E+04  0.00000000000E+00 0.  1.
        -13    1    3    3    0    0  0.26108931335E+03 -0.45658352801E+02  0.76777352943E+03  0.81223673102E+03  0.00000000000E+00 0. -1.
         22    1    1    2    0    0 -0.64529672259E+03  0.17770389001E+03 -0.99963312491E+03  0.12030182530E+04  0.00000000000E+00 0.  1.
<mgrwt>
<rscale>  0 0.29413850E+04</rscale>
<asrwt>0</asrwt>
<pdfrwt beam="1">  1        2 0.17944948E+00 0.29413850E+04</pdfrwt>
<pdfrwt beam="2">  1       -2 0.28528230E+00 0.29413850E+04</pdfrwt>
<totfact> 0.66730859E-01</totfact>
</mgrwt>
</event>
<event>
 6    1  0.4630212E-004  0.2413110E+04  0.7818608E-02  0.8434612E-01
         -2   -1    0    0    0  501 -0.00000000000E+00  0.00000000000E+00  0.99912712835E+03  0.99912712835E+03  0.00000000000E+00 0. -1.
          2   -1    0    0  501    0  0.00000000000E+00 -0.00000000000E+00 -0.14570463026E+04  0.14570463026E+04  0.00000000000E+00 0.  1.
         23    2    1    2    0    0  0.66113727674E+03 -0.69807753144E+03 -0.96852255599E+03  0.13675364152E+04  0.87779079905E+02 0.  0.
         11    1    3    3    0    0  0.39648269496E+03 -0.37240383993E+03 -0.50438494029E+03  0.74181353142E+03  0.00000000000E+00 0.  1.
        -11    1    3    3    0    0  0.26465458178E+03 -0.32567369151E+03 -0.46413761570E+03  0.62572288379E+03  0.00000000000E+00 0. -1.
         22    1    1    2    0    0 -0.66113727674E+03  0.69807753144E+03  0.51060338174E+03  0.10886370157E+04  0.00000000000E+00 0. -1.
<mgrwt>
<rscale>  0 0.24131096E+04</rscale>
<asrwt>0</asrwt>
<pdfrwt beam="1">  1        2 0.22416097E+00 0.24131096E+04</pdfrwt>
<pdfrwt beam="2">  1       -2 0.15371187E+00 0.24131096E+04</pdfrwt>
<totfact> 0.33860891E+00</totfact>
</mgrwt>
</event>
<event>
 6    1  0.4630212E-004  0.5497378E+04  0.7818608E-02  0.7756050E-01
         -2   -1    0    0    0  501 -0.00000000000E+00  0.00000000000E+00  0.22304846624E+04  0.22304846624E+04  0.00000000000E+00 0. -1.
          2   -1    0    0  501    0  0.00000000000E+00 -0.00000000000E+00 -0.33872864866E+04  0.33872864866E+04  0.00000000000E+00 0.  1.
         23    2    1    2    0    0  0.19575899779E+04  0.95406351903E+03 -0.22913400990E+04  0.31622523002E+04  0.84878976694E+02 0.  0.
         13    1    3    3    0    0  0.11296712916E+04  0.53669053674E+03 -0.13737628746E+04  0.18577993419E+04  0.00000000000E+00 0. -1.
        -13    1    3    3    0    0  0.82791868634E+03  0.41737298230E+03 -0.91757722437E+03  0.13044529582E+04  0.00000000000E+00 0.  1.
         22    1    1    2    0    0 -0.19575899779E+04 -0.95406351903E+03  0.11345382748E+04  0.24555188488E+04  0.00000000000E+00 0. -1.
<mgrwt>
<rscale>  0 0.54973778E+04</rscale>
<asrwt>0</asrwt>
<pdfrwt beam="1">  1        2 0.52112100E+00 0.54973778E+04</pdfrwt>
<pdfrwt beam="2">  1       -2 0.34315149E+00 0.54973778E+04</pdfrwt>
<totfact> 0.11679242E-02</totfact>
</mgrwt>
</event>
<event>
 6    1  0.4630212E-004  0.2972923E+04  0.7818608E-02  0.8251505E-01
          2   -1    0    0  501    0  0.00000000000E+00  0.00000000000E+00  0.25596596319E+04  0.25596596319E+04  0.00000000000E+00 0.  1.
         -2   -1    0    0    0  501 -0.00000000000E+00 -0.00000000000E+00 -0.86322736641E+03  0.86322736641E+03  0.00000000000E+00 0. -1.
         23    2    1    2    0    0  0.49391561400E+03 -0.29997787959E+03  0.24240661285E+04  0.24936989654E+04  0.92187704359E+02 0.  0.
         13    1    3    3    0    0  0.31389860055E+03 -0.13798804551E+03  0.14456405716E+04  0.14857488665E+04  0.00000000000E+00 0. -1.
        -13    1    3    3    0    0  0.18001701345E+03 -0.16198983408E+03  0.97842555688E+03  0.10079500989E+04  0.00000000000E+00 0.  1.
         22    1    1    2    0    0 -0.49391561400E+03  0.29997787959E+03 -0.72763386296E+03  0.92918803292E+03  0.00000000000E+00 0. -1.
<mgrwt>
<rscale>  0 0.29729233E+04</rscale>
<asrwt>0</asrwt>
<pdfrwt beam="1">  1        2 0.39379379E+00 0.29729233E+04</pdfrwt>
<pdfrwt beam="2">  1       -2 0.13280421E+00 0.29729233E+04</pdfrwt>
<totfact> 0.11338442E+00</totfact>
</mgrwt>
</event>
<event>
 6    1  0.4630212E-004  0.2022309E+04  0.7818608E-02  0.8596261E-01
          1   -1    0    0  501    0  0.00000000000E+00  0.00000000000E+00  0.84421031629E+03  0.84421031629E+03  0.00000000000E+00 0.  1.
         -1   -1    0    0    0  501 -0.00000000000E+00 -0.00000000000E+00 -0.12111123245E+04  0.12111123245E+04  0.00000000000E+00 0. -1.
         23    2    1    2    0    0  0.56907684147E+03  0.77487793128E+03 -0.49552010811E+03  0.10853603346E+04  0.90457827321E+02 0.  0.
         13    1    3    3    0    0  0.14104585391E+03  0.20655044426E+03 -0.86278852840E+02  0.26457713313E+03  0.00000000000E+00 0.  1.
        -13    1    3    3    0    0  0.42803098757E+03  0.56832748702E+03 -0.40924125527E+03  0.82078320148E+03  0.00000000000E+00 0. -1.
         22    1    1    2    0    0 -0.56907684147E+03 -0.77487793128E+03  0.12861809986E+03  0.96996230623E+03  0.00000000000E+00 0. -1.
<mgrwt>
<rscale>  0 0.20223091E+04</rscale>
<asrwt>0</asrwt>
<pdfrwt beam="1">  1        1 0.12987851E+00 0.20223091E+04</pdfrwt>
<pdfrwt beam="2">  1       -1 0.18632497E+00 0.20223091E+04</pdfrwt>
<totfact> 0.35173703E+00</totfact>
</mgrwt>
</event>
<event>
 6    1  0.4630212E-004  0.2937677E+04  0.7818608E-02  0.8261755E-01
         -2   -1    0    0    0  501 -0.00000000000E+00  0.00000000000E+00  0.86873729617E+03  0.86873729617E+03  0.00000000000E+00 0. -1.
          2   -1    0    0  501    0  0.00000000000E+00 -0.00000000000E+00 -0.24834736104E+04  0.24834736104E+04  0.00000000000E+00 0.  1.
         23    2    1    2    0    0 -0.10657041606E+04 -0.10068745786E+04 -0.76765094264E+03  0.16589668598E+04  0.11559107788E+03 0.  0.
         13    1    3    3    0    0 -0.48419623761E+03 -0.38051407225E+03 -0.33399565269E+03  0.70056409536E+03  0.00000000000E+00 0. -1.
        -13    1    3    3    0    0 -0.58150792303E+03 -0.62636050634E+03 -0.43365528995E+03  0.95840276447E+03  0.00000000000E+00 0.  1.
         22    1    1    2    0    0  0.10657041606E+04  0.10068745786E+04 -0.84708537159E+03  0.16932440467E+04  0.00000000000E+00 0.  1.
<mgrwt>
<rscale>  0 0.29376767E+04</rscale>
<asrwt>0</asrwt>
<pdfrwt beam="1">  1        2 0.38207286E+00 0.29376767E+04</pdfrwt>
<pdfrwt beam="2">  1       -2 0.13365189E+00 0.29376767E+04</pdfrwt>
<totfact> 0.12390970E+00</totfact>
</mgrwt>
</event>
<event>
 6    1  0.4630212E-004  0.5092275E+04  0.7818608E-02  0.7814428E-01
          1   -1    0    0  501    0  0.00000000000E+00  0.00000000000E+00  0.32292306459E+04  0.32292306459E+04  0.00000000000E+00 0.  1.
         -1   -1    0    0    0  501 -0.00000000000E+00 -0.00000000000E+00 -0.20075423488E+04  0.20075423488E+04  0.00000000000E+00 0. -1.
         23    2    1    2    0    0  0.91159761649E+03  0.40959176353E+03 -0.17963360217E+04  0.20575834100E+04  0.89726021251E+02 0.  0.
         13    1    3    3    0    0  0.21832003152E+03  0.70439425629E+02 -0.47123645762E+03  0.52410795437E+03  0.00000000000E+00 0.  1.
        -13    1    3    3    0    0  0.69327758497E+03  0.33915233790E+03 -0.13250995641E+04  0.15334754556E+04  0.00000000000E+00 0. -1.
         22    1    1    2    0    0 -0.91159761649E+03 -0.40959176353E+03  0.30180243188E+04  0.31791895848E+04  0.00000000000E+00 0.  1.
<mgrwt>
<rscale>  0 0.50922754E+04</rscale>
<asrwt>0</asrwt>
<pdfrwt beam="1">  1        1 0.49680472E+00 0.50922754E+04</pdfrwt>
<pdfrwt beam="2">  1       -1 0.30885267E+00 0.50922754E+04</pdfrwt>
<totfact> 0.83749473E-03</totfact>
</mgrwt>
</event>
<event>
 6    1  0.4630212E-004  0.3779534E+04  0.7818608E-02  0.8050561E-01
          2   -1    0    0  501    0  0.00000000000E+00  0.00000000000E+00  0.18939171300E+04  0.18939171300E+04  0.00000000000E+00 0.  1.
         -2   -1    0    0    0  501 -0.00000000000E+00 -0.00000000000E+00 -0.18856256625E+04  0.18856256625E+04  0.00000000000E+00 0. -1.
         23    2    1    2    0    0 -0.13177391674E+04 -0.26142456834E+03  0.13316696182E+04  0.18937779482E+04  0.90948485298E+02 0.  0.
         13    1    3    3    0    0 -0.74927706320E+03 -0.10292351143E+03  0.74101095069E+03  0.10588232127E+04  0.00000000000E+00 0. -1.
        -13    1    3    3    0    0 -0.56846210423E+03 -0.15850105691E+03  0.59065866747E+03  0.83495473557E+03  0.00000000000E+00 0.  1.
         22    1    1    2    0    0  0.13177391674E+04  0.26142456834E+03 -0.13233781507E+04  0.18857648443E+04  0.00000000000E+00 0. -1.
<mgrwt>
<rscale>  0 0.37795337E+04</rscale>
<asrwt>0</asrwt>
<pdfrwt beam="1">  1        2 0.29137187E+00 0.37795337E+04</pdfrwt>
<pdfrwt beam="2">  1       -2 0.29009626E+00 0.37795337E+04</pdfrwt>
<totfact> 0.22459257E-01</totfact>
</mgrwt>
</event>
<event>
 6    1  0.4630212E-004  0.2881635E+04  0.7818608E-02  0.8278363E-01
          1   -1    0    0  501    0  0.00000000000E+00  0.00000000000E+00  0.30622830509E+04  0.30622830509E+04  0.00000000000E+00 0.  1.
         -1   -1    0    0    0  501 -0.00000000000E+00 -0.00000000000E+00 -0.67791100132E+03  0.67791100132E+03  0.00000000000E+00 0. -1.
         23    2    1    2    0    0  0.39282489609E+03 -0.72138993617E+03 -0.34083061872E+03  0.89389041024E+03  0.90331145631E+02 0.  0.
         11    1    3    3    0    0  0.18734091817E+03 -0.43509869248E+03 -0.18466708838E+03  0.50843822177E+03  0.00000000000E+00 0.  1.
        -11    1    3    3    0    0  0.20548397792E+03 -0.28629124369E+03 -0.15616353034E+03  0.38545218848E+03  0.00000000000E+00 0. -1.
         22    1    1    2    0    0 -0.39282489609E+03  0.72138993617E+03  0.27252026683E+04  0.28463036420E+04  0.00000000000E+00 0.  1.
<mgrwt>
<rscale>  0 0.28816352E+04</rscale>
<asrwt>0</asrwt>
<pdfrwt beam="1">  1        1 0.47112046E+00 0.28816352E+04</pdfrwt>
<pdfrwt beam="2">  1       -1 0.10429400E+00 0.28816352E+04</pdfrwt>
<totfact> 0.39979538E-01</totfact>
</mgrwt>
</event>
<event>
 6    1  0.4630212E-004  0.2620460E+04  0.7818608E-02  0.8361285E-01
         -1   -1    0    0    0  501 -0.00000000000E+00  0.00000000000E+00  0.95358181280E+03  0.95358181280E+03  0.00000000000E+00 0.  1.
          1   -1    0    0  501    0  0.00000000000E+00 -0.00000000000E+00 -0.18002672154E+04  0.18002672154E+04  0.00000000000E+00 0. -1.
         23    2    1    2    0    0 -0.17709738477E+03  0.12699734138E+04 -0.14908392173E+03  0.12941080301E+04  0.91069327044E+02 0.  0.
         13    1    3    3    0    0 -0.14967100783E+03  0.92079045565E+03 -0.73343703863E+02  0.93575411979E+03  0.00000000000E+00 0.  1.
        -13    1    3    3    0    0 -0.27426376934E+02  0.34918295817E+03 -0.75740217867E+02  0.35835391030E+03  0.00000000000E+00 0. -1.
         22    1    1    2    0    0  0.17709738477E+03 -0.12699734138E+04 -0.69760148089E+03  0.14597409981E+04  0.00000000000E+00 0. -1.
<mgrwt>
<rscale>  0 0.26204596E+04</rscale>
<asrwt>0</asrwt>
<pdfrwt beam="1">  1        1 0.27696418E+00 0.26204596E+04</pdfrwt>
<pdfrwt beam="2">  1       -1 0.14670490E+00 0.26204596E+04</pdfrwt>
<totfact> 0.13259264E+00</totfact>
</mgrwt>
</event>
<event>
 6    1  0.4630212E-004  0.1583269E+04  0.7818608E-02  0.8830893E-01
         -2   -1    0    0    0  501 -0.00000000000E+00  0.00000000000E+00  0.24228108049E+03  0.24228108049E+03  0.00000000000E+00 0. -1.
          2   -1    0    0  501    0  0.00000000000E+00 -0.00000000000E+00 -0.25866026921E+04  0.25866026921E+04  0.00000000000E+00 0.  1.
         23    2    1    2    0    0  0.40839542396E+03  0.43067472706E+02 -0.23797192720E+04  0.24167010171E+04  0.93479212017E+02 0.  0.
         11    1    3    3    0    0  0.33135100046E+03  0.69550518527E+02 -0.19841660041E+04  0.20128451237E+04  0.00000000000E+00 0.  1.
        -11    1    3    3    0    0  0.77044423499E+02 -0.26483045821E+02 -0.39555326792E+03  0.40385589344E+03  0.00000000000E+00 0. -1.
         22    1    1    2    0    0 -0.40839542396E+03 -0.43067472706E+02  0.35397660436E+02  0.41218275544E+03  0.00000000000E+00 0. -1.
<mgrwt>
<rscale>  0 0.15832686E+04</rscale>
<asrwt>0</asrwt>
<pdfrwt beam="1">  1        2 0.39793887E+00 0.15832686E+04</pdfrwt>
<pdfrwt beam="2">  1       -2 0.37274013E-01 0.15832686E+04</pdfrwt>
<totfact> 0.20247733E+01</totfact>
</mgrwt>
</event>
<event>
 6    1  0.4630212E-004  0.2221838E+04  0.7818608E-02  0.8509393E-01
         -2   -1    0    0    0  501 -0.00000000000E+00  0.00000000000E+00  0.72375434541E+03  0.72375434541E+03  0.00000000000E+00 0. -1.
          2   -1    0    0  501    0  0.00000000000E+00 -0.00000000000E+00 -0.17051928344E+04  0.17051928344E+04  0.00000000000E+00 0.  1.
         23    2    1    2    0    0  0.51076951268E+03  0.27346678985E+03 -0.15253706276E+04  0.16342574594E+04  0.91500338125E+02 0.  0.
         11    1    3    3    0    0  0.32295791016E+03  0.21826439750E+03 -0.96959303242E+03  0.10450128265E+04  0.00000000000E+00 0. -1.
        -11    1    3    3    0    0  0.18781160252E+03  0.55202392356E+02 -0.55577759519E+03  0.58924463297E+03  0.00000000000E+00 0.  1.
         22    1    1    2    0    0 -0.51076951268E+03 -0.27346678985E+03  0.54393213863E+03  0.79468972037E+03  0.00000000000E+00 0. -1.
<mgrwt>
<rscale>  0 0.22218377E+04</rscale>
<asrwt>0</asrwt>
<pdfrwt beam="1">  1        2 0.26233736E+00 0.22218377E+04</pdfrwt>
<pdfrwt beam="2">  1       -2 0.11134682E+00 0.22218377E+04</pdfrwt>
<totfact> 0.56704405E+00</totfact>
</mgrwt>
</event>
<event>
 6    1  0.4630212E-004  0.9702805E+03  0.7818608E-02  0.9341755E-01
          2   -1    0    0  501    0  0.00000000000E+00  0.00000000000E+00  0.13210631023E+04  0.13210631023E+04  0.00000000000E+00 0.  1.
         -2   -1    0    0    0  501 -0.00000000000E+00 -0.00000000000E+00 -0.17816033014E+03  0.17816033014E+03  0.00000000000E+00 0. -1.
         23    2    1    2    0    0  0.28091101237E+03 -0.41431175034E+02  0.11760120849E+04  0.12133497440E+04  0.92658719203E+02 0.  0.
         11    1    3    3    0    0  0.18074042206E+03 -0.69627355153E+02  0.71815344786E+03  0.74381411886E+03  0.00000000000E+00 0. -1.
        -11    1    3    3    0    0  0.10017059031E+03  0.28196180119E+02  0.45785863704E+03  0.46953562511E+03  0.00000000000E+00 0.  1.
         22    1    1    2    0    0 -0.28091101237E+03  0.41431175034E+02 -0.33109312790E+02  0.28587368842E+03  0.00000000000E+00 0. -1.
<mgrwt>
<rscale>  0 0.97028045E+03</rscale>
<asrwt>0</asrwt>
<pdfrwt beam="1">  1        2 0.20324047E+00 0.97028045E+03</pdfrwt>
<pdfrwt beam="2">  1       -2 0.27409282E-01 0.97028045E+03</pdfrwt>
<totfact> 0.19454455E+02</totfact>
</mgrwt>
</event>
<event>
 6    1  0.4630212E-004  0.2650538E+04  0.7818608E-02  0.8351235E-01
         -2   -1    0    0    0  501 -0.00000000000E+00  0.00000000000E+00  0.11311987731E+04  0.11311987731E+04  0.00000000000E+00 0. -1.
          2   -1    0    0  501    0  0.00000000000E+00 -0.00000000000E+00 -0.15526336438E+04  0.15526336438E+04  0.00000000000E+00 0.  1.
         23    2    1    2    0    0  0.10140926433E+04  0.71252168005E+03  0.25977632017E+03  0.12695765276E+04  0.90938380890E+02 0.  0.
         11    1    3    3    0    0  0.32846993919E+03  0.26543460413E+03  0.12169530089E+03  0.43949718574E+03  0.00000000000E+00 0. -1.
        -11    1    3    3    0    0  0.68562270415E+03  0.44708707592E+03  0.13808101927E+03  0.83007934186E+03  0.00000000000E+00 0.  1.
         22    1    1    2    0    0 -0.10140926433E+04 -0.71252168005E+03 -0.68121119091E+03  0.14142558893E+04  0.00000000000E+00 0.  1.
<mgrwt>
<rscale>  0 0.26505375E+04</rscale>
<asrwt>0</asrwt>
<pdfrwt beam="1">  1        2 0.23886671E+00 0.26505375E+04</pdfrwt>
<pdfrwt beam="2">  1       -2 0.17403058E+00 0.26505375E+04</pdfrwt>
<totfact> 0.20847076E+00</totfact>
</mgrwt>
</event>
<event>
 6    1  0.4630212E-004  0.4382944E+04  0.7818608E-02  0.7931457E-01
         -2   -1    0    0    0  501 -0.00000000000E+00  0.00000000000E+00  0.30166622834E+04  0.30166622834E+04  0.00000000000E+00 0. -1.
          2   -1    0    0  501    0  0.00000000000E+00 -0.00000000000E+00 -0.15920074993E+04  0.15920074993E+04  0.00000000000E+00 0.  1.
         23    2    1    2    0    0  0.24374978065E+03  0.18635039329E+04 -0.47069521499E+03  0.19395102740E+04  0.89918040890E+02 0.  0.
         13    1    3    3    0    0  0.79023075379E+02  0.62032046355E+03 -0.11316840939E+03  0.63549131608E+03  0.00000000000E+00 0.  1.
        -13    1    3    3    0    0  0.16472670527E+03  0.12431834693E+04 -0.35752680560E+03  0.13040189579E+04  0.00000000000E+00 0. -1.
         22    1    1    2    0    0 -0.24374978065E+03 -0.18635039329E+04  0.18953499992E+04  0.26691595087E+04  0.00000000000E+00 0. -1.
<mgrwt>
<rscale>  0 0.43829437E+04</rscale>
<asrwt>0</asrwt>
<pdfrwt beam="1">  1        2 0.24492423E+00 0.43829437E+04</pdfrwt>
<pdfrwt beam="2">  1       -2 0.46410189E+00 0.43829437E+04</pdfrwt>
<totfact> 0.24188784E-02</totfact>
</mgrwt>
</event>
<event>
 6    1  0.4630212E-004  0.5641690E+03  0.7818608E-02  0.9982666E-01
          4   -1    0    0  501    0  0.00000000000E+00  0.00000000000E+00  0.88156735137E+02  0.88156735137E+02  0.00000000000E+00 0.  1.
         -4   -1    0    0    0  501 -0.00000000000E+00 -0.00000000000E+00 -0.90261574790E+03  0.90261574790E+03  0.00000000000E+00 0. -1.
         23    2    1    2    0    0 -0.51429721891E+02  0.11015140542E+03 -0.85037724505E+03  0.86401102273E+03  0.92710517684E+02 0.  0.
         13    1    3    3    0    0 -0.13630648685E+02  0.88329782967E+02 -0.33265092087E+03  0.34444822586E+03  0.00000000000E+00 0.  1.
        -13    1    3    3    0    0 -0.37799073206E+02  0.21821622454E+02 -0.51772632418E+03  0.51956279687E+03  0.00000000000E+00 0. -1.
         22    1    1    2    0    0  0.51429721891E+02 -0.11015140542E+03  0.35918232283E+02  0.12676146031E+03  0.00000000000E+00 0.  1.
<mgrwt>
<rscale>  0 0.56416897E+03</rscale>
<asrwt>0</asrwt>
<pdfrwt beam="1">  1        4 0.13562575E-01 0.56416897E+03</pdfrwt>
<pdfrwt beam="2">  1       -4 0.13886396E+00 0.56416897E+03</pdfrwt>
<totfact> 0.33595217E+01</totfact>
</mgrwt>
</event>
<event>
 6    1  0.4630212E-004  0.2057515E+04  0.7818608E-02  0.8580193E-01
         -2   -1    0    0    0  501 -0.00000000000E+00  0.00000000000E+00  0.74457566358E+03  0.74457566358E+03  0.00000000000E+00 0. -1.
          2   -1    0    0  501    0  0.00000000000E+00 -0.00000000000E+00 -0.14214022940E+04  0.14214022940E+04  0.00000000000E+00 0.  1.
         23    2    1    2    0    0 -0.97453556779E+03  0.25263231774E+03 -0.55153227612E+03  0.11514626368E+04  0.90198068187E+02 0.  0.
         11    1    3    3    0    0 -0.86216416332E+03  0.23064815748E+03 -0.51904896073E+03  0.10324424636E+04  0.00000000000E+00 0.  1.
        -11    1    3    3    0    0 -0.11237140447E+03  0.21984160265E+02 -0.32483315384E+02  0.11902017318E+03  0.00000000000E+00 0. -1.
         22    1    1    2    0    0  0.97453556779E+03 -0.25263231774E+03 -0.12529435431E+03  0.10145153208E+04  0.00000000000E+00 0.  1.
<mgrwt>
<rscale>  0 0.20575146E+04</rscale>
<asrwt>0</asrwt>
<pdfrwt beam="1">  1        2 0.21867727E+00 0.20575146E+04</pdfrwt>
<pdfrwt beam="2">  1       -2 0.11455010E+00 0.20575146E+04</pdfrwt>
<totfact> 0.77462066E+00</totfact>
</mgrwt>
</event>
<event>
 6    1  0.4630212E-004  0.1159542E+04  0.7818608E-02  0.9149026E-01
          2   -1    0    0  501    0  0.00000000000E+00  0.00000000000E+00  0.20530808537E+04  0.20530808537E+04  0.00000000000E+00 0.  1.
         -2   -1    0    0    0  501 -0.00000000000E+00 -0.00000000000E+00 -0.16372188352E+03  0.16372188352E+03  0.00000000000E+00 0. -1.
         23    2    1    2    0    0  0.99253899040E+02 -0.34330294815E+03  0.86399585825E+02  0.37876824561E+03  0.91061763481E+02 0.  0.
         13    1    3    3    0    0  0.61553979340E+02 -0.31266957015E+03  0.62954795428E+02  0.32482989200E+03  0.00000000000E+00 0.  1.
        -13    1    3    3    0    0  0.37699919700E+02 -0.30633377997E+02  0.23444790398E+02  0.53938353605E+02  0.00000000000E+00 0. -1.
         22    1    1    2    0    0 -0.99253899040E+02  0.34330294815E+03  0.18029593843E+04  0.18380344916E+04  0.00000000000E+00 0. -1.
<mgrwt>
<rscale>  0 0.11595417E+04</rscale>
<asrwt>0</asrwt>
<pdfrwt beam="1">  1        2 0.31585857E+00 0.11595417E+04</pdfrwt>
<pdfrwt beam="2">  1       -2 0.25187984E-01 0.11595417E+04</pdfrwt>
<totfact> 0.87563688E+01</totfact>
</mgrwt>
</event>
<event>
 6    1  0.4630212E-004  0.1414060E+04  0.7818608E-02  0.8943704E-01
          2   -1    0    0  501    0  0.00000000000E+00  0.00000000000E+00  0.19542414542E+04  0.19542414542E+04  0.00000000000E+00 0.  1.
         -2   -1    0    0    0  501 -0.00000000000E+00 -0.00000000000E+00 -0.25579821472E+03  0.25579821472E+03  0.00000000000E+00 0. -1.
         23    2    1    2    0    0  0.17851825491E+03  0.66697917787E+03  0.64554930542E+03  0.95094649229E+03  0.10409291245E+03 0.  0.
         13    1    3    3    0    0  0.21964134738E+02  0.23801101282E+02  0.55128834951E+02  0.63938283368E+02  0.00000000000E+00 0. -1.
        -13    1    3    3    0    0  0.15655412017E+03  0.64317807659E+03  0.59042047047E+03  0.88700820892E+03  0.00000000000E+00 0.  1.
         22    1    1    2    0    0 -0.17851825491E+03 -0.66697917787E+03  0.10528939341E+04  0.12590931766E+04  0.00000000000E+00 0.  1.
<mgrwt>
<rscale>  0 0.14140601E+04</rscale>
<asrwt>0</asrwt>
<pdfrwt beam="1">  1        2 0.30065252E+00 0.14140601E+04</pdfrwt>
<pdfrwt beam="2">  1       -2 0.39353573E-01 0.14140601E+04</pdfrwt>
<totfact> 0.42077696E+01</totfact>
</mgrwt>
</event>
<event>
 6    1  0.4630212E-004  0.1544331E+04  0.7818608E-02  0.8855497E-01
          2   -1    0    0  501    0  0.00000000000E+00  0.00000000000E+00  0.21452914608E+04  0.21452914608E+04  0.00000000000E+00 0.  1.
         -2   -1    0    0    0  501 -0.00000000000E+00 -0.00000000000E+00 -0.27792923669E+03  0.27792923669E+03  0.00000000000E+00 0. -1.
         23    2    1    2    0    0  0.54435524668E+03  0.77972903495E+02  0.92467924402E+02  0.56508932879E+03  0.91505323344E+02 0.  0.
         11    1    3    3    0    0  0.39497765275E+03  0.15686741857E+02  0.74546342177E+02  0.40225685473E+03  0.00000000000E+00 0. -1.
        -11    1    3    3    0    0  0.14937759392E+03  0.62286161638E+02  0.17921582225E+02  0.16283247406E+03  0.00000000000E+00 0.  1.
         22    1    1    2    0    0 -0.54435524668E+03 -0.77972903495E+02  0.17748942997E+04  0.18581313687E+04  0.00000000000E+00 0.  1.
<mgrwt>
<rscale>  0 0.15443306E+04</rscale>
<asrwt>0</asrwt>
<pdfrwt beam="1">  1        2 0.33004483E+00 0.15443306E+04</pdfrwt>
<pdfrwt beam="2">  1       -2 0.42758346E-01 0.15443306E+04</pdfrwt>
<totfact> 0.27696447E+01</totfact>
</mgrwt>
</event>
<event>
 6    1  0.4630212E-004  0.1529625E+04  0.7818608E-02  0.8864988E-01
         -2   -1    0    0    0  501 -0.00000000000E+00  0.00000000000E+00  0.49672166820E+03  0.49672166820E+03  0.00000000000E+00 0. -1.
          2   -1    0    0  501    0  0.00000000000E+00 -0.00000000000E+00 -0.11775980223E+04  0.11775980223E+04  0.00000000000E+00 0.  1.
         23    2    1    2    0    0  0.20766729161E+03 -0.47276458480E+03 -0.95511566358E+03  0.10896494796E+04  0.91967390345E+02 0.  0.
         13    1    3    3    0    0  0.15482840401E+03 -0.35201874317E+03 -0.62043040699E+03  0.72994720368E+03  0.00000000000E+00 0. -1.
        -13    1    3    3    0    0  0.52838887598E+02 -0.12074584163E+03 -0.33468525659E+03  0.35970227590E+03  0.00000000000E+00 0.  1.
         22    1    1    2    0    0 -0.20766729161E+03  0.47276458480E+03  0.27423930950E+03  0.58467021091E+03  0.00000000000E+00 0. -1.
<mgrwt>
<rscale>  0 0.15296254E+04</rscale>
<asrwt>0</asrwt>
<pdfrwt beam="1">  1        2 0.18116892E+00 0.15296254E+04</pdfrwt>
<pdfrwt beam="2">  1       -2 0.76418719E-01 0.15296254E+04</pdfrwt>
<totfact> 0.28850942E+01</totfact>
</mgrwt>
</event>
<event>
 6    1  0.4630212E-004  0.1954565E+04  0.7818608E-02  0.8628163E-01
         -2   -1    0    0    0  501 -0.00000000000E+00  0.00000000000E+00  0.11301609431E+04  0.11301609431E+04  0.00000000000E+00 0.  1.
          2   -1    0    0  501    0  0.00000000000E+00 -0.00000000000E+00 -0.84508389222E+03  0.84508389222E+03  0.00000000000E+00 0. -1.
         23    2    1    2    0    0  0.32756603645E+03 -0.90034803679E+03  0.32659614029E+03  0.10162610345E+04  0.90528204059E+02 0.  0.
         11    1    3    3    0    0  0.89350965298E+02 -0.30891811259E+03  0.14877418041E+03  0.35432718220E+03  0.00000000000E+00 0.  1.
        -11    1    3    3    0    0  0.23821507115E+03 -0.59142992420E+03  0.17782195988E+03  0.66193385226E+03  0.00000000000E+00 0. -1.
         22    1    1    2    0    0 -0.32756603645E+03  0.90034803679E+03 -0.41519089384E+02  0.95898380089E+03  0.00000000000E+00 0. -1.
<mgrwt>
<rscale>  0 0.19545647E+04</rscale>
<asrwt>0</asrwt>
<pdfrwt beam="1">  1        2 0.13001291E+00 0.19545647E+04</pdfrwt>
<pdfrwt beam="2">  1       -2 0.17387091E+00 0.19545647E+04</pdfrwt>
<totfact> 0.59668156E+00</totfact>
</mgrwt>
</event>
<event>
 6    1  0.4630212E-004  0.3952892E+04  0.7818608E-02  0.8014118E-01
          2   -1    0    0  501    0  0.00000000000E+00  0.00000000000E+00  0.22141664959E+04  0.22141664959E+04  0.00000000000E+00 0.  1.
         -2   -1    0    0    0  501 -0.00000000000E+00 -0.00000000000E+00 -0.17642480298E+04  0.17642480298E+04  0.00000000000E+00 0. -1.
         23    2    1    2    0    0 -0.17269448100E+04  0.89658962860E+03 -0.11618342746E+03  0.19519193511E+04  0.10138651408E+03 0.  0.
         11    1    3    3    0    0 -0.13801935929E+04  0.68707859398E+03 -0.60122297452E+02  0.15429277490E+04  0.00000000000E+00 0. -1.
        -11    1    3    3    0    0 -0.34675121718E+03  0.20951103462E+03 -0.56061130005E+02  0.40899160205E+03  0.00000000000E+00 0.  1.
         22    1    1    2    0    0  0.17269448100E+04 -0.89658962860E+03  0.56610189356E+03  0.20264951747E+04  0.00000000000E+00 0.  1.
<mgrwt>
<rscale>  0 0.39528920E+04</rscale>
<asrwt>0</asrwt>
<pdfrwt beam="1">  1        2 0.34064100E+00 0.39528920E+04</pdfrwt>
<pdfrwt beam="2">  1       -2 0.27142278E+00 0.39528920E+04</pdfrwt>
<totfact> 0.19073887E-01</totfact>
</mgrwt>
</event>
<event>
 6    1  0.7629329E-004  0.1899864E+04  0.7818608E-02  0.8654924E-01
          1   -1    0    0  501    0  0.00000000000E+00  0.00000000000E+00  0.21302484856E+04  0.21302484856E+04  0.00000000000E+00 0.  1.
         -1   -1    0    0    0  501 -0.00000000000E+00 -0.00000000000E+00 -0.42359880600E+03  0.42359880600E+03  0.00000000000E+00 0. -1.
         23    2    1    2    0    0 -0.88635027242E+03  0.45030764442E+02  0.13015199260E+04  0.15782578839E+04  0.96432646181E+02 0.  0.
         11    1    3    3    0    0 -0.31153148777E+03 -0.17420285672E+02  0.40095953097E+03  0.50805893329E+03  0.00000000000E+00 0.  1.
        -11    1    3    3    0    0 -0.57481878465E+03  0.62451050114E+02  0.90056039500E+03  0.10701989506E+04  0.00000000000E+00 0. -1.
         22    1    1    2    0    0  0.88635027242E+03 -0.45030764442E+02  0.40512975366E+03  0.97558940772E+03  0.00000000000E+00 0.  1.
<mgrwt>
<rscale>  0 0.18998639E+04</rscale>
<asrwt>0</asrwt>
<pdfrwt beam="1">  1        1 0.32773053E+00 0.18998639E+04</pdfrwt>
<pdfrwt beam="2">  1       -1 0.65169048E-01 0.18998639E+04</pdfrwt>
<totfact> 0.54291092E+00</totfact>
</mgrwt>
</event>
<event>
 6    1  0.4630212E-004  0.1465963E+04  0.7818608E-02  0.8907408E-01
          2   -1    0    0  501    0  0.00000000000E+00  0.00000000000E+00  0.13355209169E+04  0.13355209169E+04  0.00000000000E+00 0.  1.
         -2   -1    0    0    0  501 -0.00000000000E+00 -0.00000000000E+00 -0.40228649453E+03  0.40228649453E+03  0.00000000000E+00 0. -1.
         23    2    1    2    0    0 -0.71581537910E+03 -0.11959856866E+03  0.37548631639E+03  0.82250504373E+03  0.93963283159E+02 0.  0.
         11    1    3    3    0    0 -0.19931998639E+03 -0.19012812231E+02  0.14926033806E+03  0.24973704676E+03  0.00000000000E+00 0. -1.
        -11    1    3    3    0    0 -0.51649539271E+03 -0.10058575643E+03  0.22622597833E+03  0.57276799697E+03  0.00000000000E+00 0.  1.
         22    1    1    2    0    0  0.71581537910E+03  0.11959856866E+03  0.55774810598E+03  0.91530236770E+03  0.00000000000E+00 0. -1.
<mgrwt>
<rscale>  0 0.14659632E+04</rscale>
<asrwt>0</asrwt>
<pdfrwt beam="1">  1        2 0.20546475E+00 0.14659632E+04</pdfrwt>
<pdfrwt beam="2">  1       -2 0.61890231E-01 0.14659632E+04</pdfrwt>
<totfact> 0.37021991E+01</totfact>
</mgrwt>
</event>
<event>
 6    1  0.4630212E-004  0.3314093E+04  0.7818608E-02  0.8159319E-01
          2   -1    0    0  501    0  0.00000000000E+00  0.00000000000E+00  0.17297483861E+04  0.17297483861E+04  0.00000000000E+00 0.  1.
         -2   -1    0    0    0  501 -0.00000000000E+00 -0.00000000000E+00 -0.15874007192E+04  0.15874007192E+04  0.00000000000E+00 0. -1.
         23    2    1    2    0    0 -0.10876270944E+04 -0.12469351821E+04  0.97016706849E+01  0.16572168762E+04  0.92160770920E+02 0.  0.
         13    1    3    3    0    0 -0.21894518711E+03 -0.22456677908E+03  0.33525052999E+02  0.31542219707E+03  0.00000000000E+00 0. -1.
        -13    1    3    3    0    0 -0.86868190727E+03 -0.10223684030E+04 -0.23823382314E+02  0.13417946792E+04  0.00000000000E+00 0.  1.
         22    1    1    2    0    0  0.10876270944E+04  0.12469351821E+04  0.13264599616E+03  0.16599322291E+04  0.00000000000E+00 0.  1.
<mgrwt>
<rscale>  0 0.33140934E+04</rscale>
<asrwt>0</asrwt>
<pdfrwt beam="1">  1        2 0.26611514E+00 0.33140934E+04</pdfrwt>
<pdfrwt beam="2">  1       -2 0.24421549E+00 0.33140934E+04</pdfrwt>
<totfact> 0.54942263E-01</totfact>
</mgrwt>
</event>
<event>
 6    1  0.4630212E-004  0.3434580E+04  0.7818608E-02  0.8129471E-01
          2   -1    0    0  501    0  0.00000000000E+00  0.00000000000E+00  0.17244718882E+04  0.17244718882E+04  0.00000000000E+00 0.  1.
         -2   -1    0    0    0  501 -0.00000000000E+00 -0.00000000000E+00 -0.17101383763E+04  0.17101383763E+04  0.00000000000E+00 0. -1.
         23    2    1    2    0    0 -0.16815683325E+04  0.23645843341E+03 -0.24043001152E+03  0.17174937571E+04  0.91616416059E+02 0.  0.
         11    1    3    3    0    0 -0.72230026563E+03  0.14679385310E+03 -0.96694873612E+02  0.74338146844E+03  0.00000000000E+00 0. -1.
        -11    1    3    3    0    0 -0.95926806683E+03  0.89664580313E+02 -0.14373513791E+03  0.97411228864E+03  0.00000000000E+00 0.  1.
         22    1    1    2    0    0  0.16815683325E+04 -0.23645843341E+03  0.25476352342E+03  0.17171165075E+04  0.00000000000E+00 0. -1.
<mgrwt>
<rscale>  0 0.34345804E+04</rscale>
<asrwt>0</asrwt>
<pdfrwt beam="1">  1        2 0.26530337E+00 0.34345804E+04</pdfrwt>
<pdfrwt beam="2">  1       -2 0.26309821E+00 0.34345804E+04</pdfrwt>
<totfact> 0.41936125E-01</totfact>
</mgrwt>
</event>
<event>
 6    1  0.4630212E-004  0.4463713E+04  0.7818608E-02  0.7917020E-01
          2   -1    0    0  501    0  0.00000000000E+00  0.00000000000E+00  0.30176079310E+04  0.30176079310E+04  0.00000000000E+00 0.  1.
         -2   -1    0    0    0  501 -0.00000000000E+00 -0.00000000000E+00 -0.16507060904E+04  0.16507060904E+04  0.00000000000E+00 0. -1.
         23    2    1    2    0    0 -0.49039986586E+03 -0.17735324670E+04 -0.63553364332E+03  0.19488182396E+04  0.89889261634E+02 0.  0.
         11    1    3    3    0    0 -0.38857902053E+03 -0.12527982403E+04 -0.45467051266E+03  0.13882443449E+04  0.00000000000E+00 0. -1.
        -11    1    3    3    0    0 -0.10182084533E+03 -0.52073422670E+03 -0.18086313066E+03  0.56057389471E+03  0.00000000000E+00 0.  1.
         22    1    1    2    0    0  0.49039986586E+03  0.17735324670E+04  0.20024354840E+04  0.27194957818E+04  0.00000000000E+00 0.  1.
<mgrwt>
<rscale>  0 0.44637132E+04</rscale>
<asrwt>0</asrwt>
<pdfrwt beam="1">  1        2 0.46424737E+00 0.44637132E+04</pdfrwt>
<pdfrwt beam="2">  1       -2 0.25395478E+00 0.44637132E+04</pdfrwt>
<totfact> 0.78331233E-02</totfact>
</mgrwt>
</event>
<event>
 6    1  0.4630212E-004  0.2137177E+04  0.7818608E-02  0.8545041E-01
          2   -1    0    0  501    0  0.00000000000E+00  0.00000000000E+00  0.23720169142E+04  0.23720169142E+04  0.00000000000E+00 0.  1.
         -2   -1    0    0    0  501 -0.00000000000E+00 -0.00000000000E+00 -0.48139701923E+03  0.48139701923E+03  0.00000000000E+00 0. -1.
         23    2    1    2    0    0 -0.80144165476E+03  0.63680684565E+03  0.13474810648E+04  0.16946078782E+04  0.90326942120E+02 0.  0.
         13    1    3    3    0    0 -0.60617879546E+03  0.47161536268E+03  0.94510815212E+03  0.12178272462E+04  0.00000000000E+00 0.  1.
        -13    1    3    3    0    0 -0.19526285930E+03  0.16519148297E+03  0.40237291264E+03  0.47678063205E+03  0.00000000000E+00 0. -1.
         22    1    1    2    0    0  0.80144165476E+03 -0.63680684565E+03  0.54313883020E+03  0.11588060552E+04  0.00000000000E+00 0. -1.
<mgrwt>
<rscale>  0 0.21371775E+04</rscale>
<asrwt>0</asrwt>
<pdfrwt beam="1">  1        2 0.36492567E+00 0.21371775E+04</pdfrwt>
<pdfrwt beam="2">  1       -2 0.74061081E-01 0.21371775E+04</pdfrwt>
<totfact> 0.62232344E+00</totfact>
</mgrwt>
</event>
<event>
 6    1  0.4630212E-004  0.2136751E+04  0.7818608E-02  0.8545225E-01
          2   -1    0    0  501    0  0.00000000000E+00  0.00000000000E+00  0.15139232127E+04  0.15139232127E+04  0.00000000000E+00 0.  1.
         -2   -1    0    0    0  501 -0.00000000000E+00 -0.00000000000E+00 -0.75395238995E+03  0.75395238995E+03  0.00000000000E+00 0. -1.
         23    2    1    2    0    0 -0.10278692954E+04 -0.28186973793E+03  0.41013816921E+03  0.11461141650E+04  0.96945983399E+02 0.  0.
         13    1    3    3    0    0 -0.23862002615E+03 -0.29450629969E+02  0.11472005004E+03  0.26639734677E+03  0.00000000000E+00 0.  1.
        -13    1    3    3    0    0 -0.78924926926E+03 -0.25241910796E+03  0.29541811917E+03  0.87971681820E+03  0.00000000000E+00 0. -1.
         22    1    1    2    0    0  0.10278692954E+04  0.28186973793E+03  0.34983265356E+03  0.11217614377E+04  0.00000000000E+00 0. -1.
<mgrwt>
<rscale>  0 0.21367508E+04</rscale>
<asrwt>0</asrwt>
<pdfrwt beam="1">  1        2 0.23291126E+00 0.21367508E+04</pdfrwt>
<pdfrwt beam="2">  1       -2 0.11599268E+00 0.21367508E+04</pdfrwt>
<totfact> 0.66141645E+00</totfact>
</mgrwt>
</event>
<event>
 6    1  0.4630212E-004  0.3609772E+04  0.7818608E-02  0.8088257E-01
         -2   -1    0    0    0  501 -0.00000000000E+00  0.00000000000E+00  0.34114854533E+04  0.34114854533E+04  0.00000000000E+00 0. -1.
          2   -1    0    0  501    0  0.00000000000E+00 -0.00000000000E+00 -0.95489585270E+03  0.95489585270E+03  0.00000000000E+00 0.  1.
         23    2    1    2    0    0 -0.11595485114E+04  0.68936094323E+03  0.26773429031E+04  0.29994492372E+04  0.93591907030E+02 0.  0.
         13    1    3    3    0    0 -0.42726278131E+03  0.26619808698E+03  0.10982098146E+04  0.12080892776E+04  0.00000000000E+00 0. -1.
        -13    1    3    3    0    0 -0.73228573005E+03  0.42316285626E+03  0.15791330886E+04  0.17913599596E+04  0.00000000000E+00 0.  1.
         22    1    1    2    0    0  0.11595485114E+04 -0.68936094323E+03 -0.22075330254E+03  0.13669320688E+04  0.00000000000E+00 0.  1.
<mgrwt>
<rscale>  0 0.36097719E+04</rscale>
<asrwt>0</asrwt>
<pdfrwt beam="1">  1        2 0.14690706E+00 0.36097719E+04</pdfrwt>
<pdfrwt beam="2">  1       -2 0.52484391E+00 0.36097719E+04</pdfrwt>
<totfact> 0.25665135E-02</totfact>
</mgrwt>
</event>
<event>
 6    1  0.4630212E-004  0.6473922E+03  0.7818608E-02  0.9811685E-01
          2   -1    0    0  501    0  0.00000000000E+00  0.00000000000E+00  0.18860418764E+04  0.18860418764E+04  0.00000000000E+00 0.  1.
         -2   -1    0    0    0  501 -0.00000000000E+00 -0.00000000000E+00 -0.55555056754E+02  0.55555056754E+02  0.00000000000E+00 0. -1.
         23    2    1    2    0    0  0.11645084211E+03 -0.23638934710E+03  0.14650586631E+04  0.14910656250E+04  0.86250156973E+02 0.  0.
         13    1    3    3    0    0  0.53877486815E+02 -0.19105132474E+03  0.11206662246E+04  0.11381107939E+04  0.00000000000E+00 0. -1.
        -13    1    3    3    0    0  0.62573355297E+02 -0.45338022359E+02  0.34439243852E+03  0.35295483106E+03  0.00000000000E+00 0.  1.
         22    1    1    2    0    0 -0.11645084211E+03  0.23638934710E+03  0.36542815650E+03  0.45053130814E+03  0.00000000000E+00 0. -1.
<mgrwt>
<rscale>  0 0.64739219E+03</rscale>
<asrwt>0</asrwt>
<pdfrwt beam="1">  1        2 0.29016024E+00 0.64739219E+03</pdfrwt>
<pdfrwt beam="2">  1       -2 0.85469333E-02 0.64739219E+03</pdfrwt>
<totfact> 0.70269984E+02</totfact>
</mgrwt>
</event>
<event>
 6    1  0.4630212E-004  0.1388066E+04  0.7818608E-02  0.8962503E-01
          2   -1    0    0  501    0  0.00000000000E+00  0.00000000000E+00  0.16422455440E+04  0.16422455440E+04  0.00000000000E+00 0.  1.
         -2   -1    0    0    0  501 -0.00000000000E+00 -0.00000000000E+00 -0.29330679867E+03  0.29330679867E+03  0.00000000000E+00 0. -1.
         23    2    1    2    0    0 -0.39417589999E+03 -0.82919003948E+02 -0.10543869097E+03  0.42642546644E+03  0.92038902264E+02 0.  0.
         13    1    3    3    0    0 -0.82131684141E+02  0.27555378707E+01 -0.55102724797E+02  0.98941987087E+02  0.00000000000E+00 0. -1.
        -13    1    3    3    0    0 -0.31204421585E+03 -0.85674541818E+02 -0.50335966169E+02  0.32748347935E+03  0.00000000000E+00 0.  1.
         22    1    1    2    0    0  0.39417589999E+03  0.82919003948E+02  0.14543774363E+04  0.15091268763E+04  0.00000000000E+00 0.  1.
<mgrwt>
<rscale>  0 0.13880660E+04</rscale>
<asrwt>0</asrwt>
<pdfrwt beam="1">  1        2 0.25265316E+00 0.13880660E+04</pdfrwt>
<pdfrwt beam="2">  1       -2 0.45124124E-01 0.13880660E+04</pdfrwt>
<totfact> 0.47908485E+01</totfact>
</mgrwt>
</event>
<event>
 6    1  0.4630212E-004  0.1973202E+04  0.7818608E-02  0.8619253E-01
          2   -1    0    0  501    0  0.00000000000E+00  0.00000000000E+00  0.21933128074E+04  0.21933128074E+04  0.00000000000E+00 0.  1.
         -2   -1    0    0    0  501 -0.00000000000E+00 -0.00000000000E+00 -0.44379514380E+03  0.44379514380E+03  0.00000000000E+00 0. -1.
         23    2    1    2    0    0  0.21777229278E+03  0.44354448256E+03 -0.26116880780E+03  0.56659676654E+03  0.93092804118E+02 0.  0.
         11    1    3    3    0    0  0.15139284854E+03  0.22544946973E+03 -0.10965995163E+03  0.29286953236E+03  0.00000000000E+00 0.  1.
        -11    1    3    3    0    0  0.66379444240E+02  0.21809501282E+03 -0.15150885617E+03  0.27372723419E+03  0.00000000000E+00 0. -1.
         22    1    1    2    0    0 -0.21777229278E+03 -0.44354448256E+03  0.20106864714E+04  0.20705111846E+04  0.00000000000E+00 0.  1.
<mgrwt>
<rscale>  0 0.19732020E+04</rscale>
<asrwt>0</asrwt>
<pdfrwt beam="1">  1        2 0.33743273E+00 0.19732020E+04</pdfrwt>
<pdfrwt beam="2">  1       -2 0.68276177E-01 0.19732020E+04</pdfrwt>
<totfact> 0.95195082E+00</totfact>
</mgrwt>
</event>
<event>
 6    1  0.4630212E-004  0.4817609E+04  0.7818608E-02  0.7857276E-01
         -2   -1    0    0    0  501 -0.00000000000E+00  0.00000000000E+00  0.31932256963E+04  0.31932256963E+04  0.00000000000E+00 0. -1.
          2   -1    0    0  501    0  0.00000000000E+00 -0.00000000000E+00 -0.18170776336E+04  0.18170776336E+04  0.00000000000E+00 0.  1.
         23    2    1    2    0    0  0.78707503035E+03  0.33029071115E+03  0.30299205375E+04  0.31492438316E+04  0.93483634953E+02 0.  0.
         13    1    3    3    0    0  0.23681624769E+03  0.14485704051E+03  0.10255969258E+04  0.10625039067E+04  0.00000000000E+00 0. -1.
        -13    1    3    3    0    0  0.55025878266E+03  0.18543367064E+03  0.20043236117E+04  0.20867399250E+04  0.00000000000E+00 0.  1.
         22    1    1    2    0    0 -0.78707503035E+03 -0.33029071115E+03 -0.16537724749E+04  0.18610594982E+04  0.00000000000E+00 0.  1.
<mgrwt>
<rscale>  0 0.48176089E+04</rscale>
<asrwt>0</asrwt>
<pdfrwt beam="1">  1        2 0.27955040E+00 0.48176089E+04</pdfrwt>
<pdfrwt beam="2">  1       -2 0.49126549E+00 0.48176089E+04</pdfrwt>
<totfact> 0.11726959E-02</totfact>
</mgrwt>
</event>
<event>
 6    1  0.4630212E-004  0.1878135E+04  0.7818608E-02  0.8665817E-01
         -2   -1    0    0    0  501 -0.00000000000E+00  0.00000000000E+00  0.32941809309E+03  0.32941809309E+03  0.00000000000E+00 0. -1.
          2   -1    0    0  501    0  0.00000000000E+00 -0.00000000000E+00 -0.26769860147E+04  0.26769860147E+04  0.00000000000E+00 0.  1.
         23    2    1    2    0    0 -0.85915814092E+03  0.36964484680E+03 -0.10915954665E+04  0.14404357710E+04  0.92111476118E+02 0.  0.
         11    1    3    3    0    0 -0.67062123271E+03  0.28361795252E+03 -0.78852238449E+03  0.10732844598E+04  0.00000000000E+00 0. -1.
        -11    1    3    3    0    0 -0.18853690821E+03  0.86026894277E+02 -0.30307308205E+03  0.36715131126E+03  0.00000000000E+00 0.  1.
         22    1    1    2    0    0  0.85915814092E+03 -0.36964484680E+03 -0.12559724551E+04  0.15659683368E+04  0.00000000000E+00 0. -1.
<mgrwt>
<rscale>  0 0.18781348E+04</rscale>
<asrwt>0</asrwt>
<pdfrwt beam="1">  1        2 0.41184401E+00 0.18781348E+04</pdfrwt>
<pdfrwt beam="2">  1       -2 0.50679705E-01 0.18781348E+04</pdfrwt>
<totfact> 0.94797972E+00</totfact>
</mgrwt>
</event>
<event>
 6    1  0.4630212E-004  0.1235562E+04  0.7818608E-02  0.9082286E-01
         -2   -1    0    0    0  501 -0.00000000000E+00  0.00000000000E+00  0.23760627721E+03  0.23760627721E+03  0.00000000000E+00 0. -1.
          2   -1    0    0  501    0  0.00000000000E+00 -0.00000000000E+00 -0.16062435196E+04  0.16062435196E+04  0.00000000000E+00 0.  1.
         23    2    1    2    0    0  0.64662075708E+02  0.46127847704E+03 -0.12861582587E+04  0.13708151256E+04  0.89286196336E+02 0.  0.
         11    1    3    3    0    0  0.42265291867E+02  0.28864718585E+03 -0.92464916826E+03  0.96957704034E+03  0.00000000000E+00 0.  1.
        -11    1    3    3    0    0  0.22396783841E+02  0.17263129119E+03 -0.36150909041E+03  0.40123808527E+03  0.00000000000E+00 0. -1.
         22    1    1    2    0    0 -0.64662075708E+02 -0.46127847704E+03 -0.82478983746E+02  0.47303467122E+03  0.00000000000E+00 0. -1.
<mgrwt>
<rscale>  0 0.12355623E+04</rscale>
<asrwt>0</asrwt>
<pdfrwt beam="1">  1        2 0.24711438E+00 0.12355623E+04</pdfrwt>
<pdfrwt beam="2">  1       -2 0.36554813E-01 0.12355623E+04</pdfrwt>
<totfact> 0.76712067E+01</totfact>
</mgrwt>
</event>
<event>
 6    1  0.4630212E-004  0.3313269E+04  0.7818608E-02  0.8159527E-01
         -2   -1    0    0    0  501 -0.00000000000E+00  0.00000000000E+00  0.78424090548E+03  0.78424090548E+03  0.00000000000E+00 0. -1.
          2   -1    0    0  501    0  0.00000000000E+00 -0.00000000000E+00 -0.34994834258E+04  0.34994834258E+04  0.00000000000E+00 0.  1.
         23    2    1    2    0    0  0.69065133950E+03 -0.37518596825E+03 -0.32422060822E+04  0.33374398185E+04  0.94023822766E+02 0.  0.
         11    1    3    3    0    0  0.11238641587E+03 -0.99104559783E+02 -0.55269145030E+03  0.57264322180E+03  0.00000000000E+00 0. -1.
        -11    1    3    3    0    0  0.57826492363E+03 -0.27608140847E+03 -0.26895146319E+04  0.27647965967E+04  0.00000000000E+00 0.  1.
         22    1    1    2    0    0 -0.69065133950E+03  0.37518596825E+03  0.52696356188E+03  0.94628451275E+03  0.00000000000E+00 0. -1.
<mgrwt>
<rscale>  0 0.33132691E+04</rscale>
<asrwt>0</asrwt>
<pdfrwt beam="1">  1        2 0.53838206E+00 0.33132691E+04</pdfrwt>
<pdfrwt beam="2">  1       -2 0.12065245E+00 0.33132691E+04</pdfrwt>
<totfact> 0.35512239E-01</totfact>
</mgrwt>
</event>
<event>
 6    1  0.4630212E-004  0.1716700E+04  0.7818608E-02  0.8751897E-01
         -2   -1    0    0    0  501 -0.00000000000E+00  0.00000000000E+00  0.29223787993E+03  0.29223787993E+03  0.00000000000E+00 0. -1.
          2   -1    0    0  501    0  0.00000000000E+00 -0.00000000000E+00 -0.25211126134E+04  0.25211126134E+04  0.00000000000E+00 0.  1.
         23    2    1    2    0    0 -0.74502233574E+03  0.79753508448E+01 -0.42735961044E+03  0.86384321572E+03  0.92016181974E+02 0.  0.
         13    1    3    3    0    0 -0.62045219809E+03 -0.18577515748E+02 -0.32640517476E+03  0.70131761158E+03  0.00000000000E+00 0.  1.
        -13    1    3    3    0    0 -0.12457013765E+03  0.26552866593E+02 -0.10095443567E+03  0.16252560414E+03  0.00000000000E+00 0. -1.
         22    1    1    2    0    0  0.74502233574E+03 -0.79753508448E+01 -0.18015151230E+04  0.19495072776E+04  0.00000000000E+00 0.  1.
<mgrwt>
<rscale>  0 0.17166999E+04</rscale>
<asrwt>0</asrwt>
<pdfrwt beam="1">  1        2 0.38786348E+00 0.17166999E+04</pdfrwt>
<pdfrwt beam="2">  1       -2 0.44959674E-01 0.17166999E+04</pdfrwt>
<totfact> 0.15113214E+01</totfact>
</mgrwt>
</event>
<event>
 6    1  0.4630212E-004  0.3161875E+04  0.7818608E-02  0.8198959E-01
         -2   -1    0    0    0  501 -0.00000000000E+00  0.00000000000E+00  0.14115403513E+04  0.14115403513E+04  0.00000000000E+00 0. -1.
          2   -1    0    0  501    0  0.00000000000E+00 -0.00000000000E+00 -0.17706640666E+04  0.17706640666E+04  0.00000000000E+00 0.  1.
         23    2    1    2    0    0 -0.57254718054E+03 -0.13560073223E+04 -0.75678819159E+03  0.16575066879E+04  0.89632144163E+02 0.  0.
         13    1    3    3    0    0 -0.33271187583E+03 -0.83345145490E+03 -0.50595907440E+03  0.10302102237E+04  0.00000000000E+00 0. -1.
        -13    1    3    3    0    0 -0.23983530471E+03 -0.52255586743E+03 -0.25082911719E+03  0.62729646420E+03  0.00000000000E+00 0.  1.
         22    1    1    2    0    0  0.57254718054E+03  0.13560073223E+04  0.39766447632E+03  0.15246977300E+04  0.00000000000E+00 0. -1.
<mgrwt>
<rscale>  0 0.31618753E+04</rscale>
<asrwt>0</asrwt>
<pdfrwt beam="1">  1        2 0.27240986E+00 0.31618753E+04</pdfrwt>
<pdfrwt beam="2">  1       -2 0.21716005E+00 0.31618753E+04</pdfrwt>
<totfact> 0.77973057E-01</totfact>
</mgrwt>
</event>
<event>
 6    1  0.4630212E-004  0.6788992E+03  0.7818608E-02  0.9754014E-01
          2   -1    0    0  501    0  0.00000000000E+00  0.00000000000E+00  0.11703072532E+04  0.11703072532E+04  0.00000000000E+00 0.  1.
         -2   -1    0    0    0  501 -0.00000000000E+00 -0.00000000000E+00 -0.98457932933E+02  0.98457932933E+02  0.00000000000E+00 0. -1.
         23    2    1    2    0    0 -0.21880594446E+03 -0.15431461776E+03  0.91663183447E+03  0.95927930522E+03  0.91180167097E+02 0.  0.
         13    1    3    3    0    0 -0.18222360307E+03 -0.80717259042E+02  0.68992180134E+03  0.71813147083E+03  0.00000000000E+00 0. -1.
        -13    1    3    3    0    0 -0.36582341394E+02 -0.73597358718E+02  0.22671003312E+03  0.24114783439E+03  0.00000000000E+00 0.  1.
         22    1    1    2    0    0  0.21880594446E+03  0.15431461776E+03  0.15521748579E+03  0.30948588091E+03  0.00000000000E+00 0.  1.
<mgrwt>
<rscale>  0 0.67889921E+03</rscale>
<asrwt>0</asrwt>
<pdfrwt beam="1">  1        2 0.18004726E+00 0.67889921E+03</pdfrwt>
<pdfrwt beam="2">  1       -2 0.15147375E-01 0.67889921E+03</pdfrwt>
<totfact> 0.68660898E+02</totfact>
</mgrwt>
</event>
<event>
 6    1  0.4630212E-004  0.1299556E+04  0.7818608E-02  0.9029917E-01
          2   -1    0    0  501    0  0.00000000000E+00  0.00000000000E+00  0.26871258562E+03  0.26871258562E+03  0.00000000000E+00 0.  1.
         -2   -1    0    0    0  501 -0.00000000000E+00 -0.00000000000E+00 -0.15712382633E+04  0.15712382633E+04  0.00000000000E+00 0. -1.
         23    2    1    2    0    0  0.57655005418E+03  0.28358073639E+03 -0.75535337966E+03  0.99601630007E+03  0.93068484615E+02 0.  0.
         13    1    3    3    0    0  0.17104471621E+03  0.98086384205E+02 -0.29741097716E+03  0.35683402731E+03  0.00000000000E+00 0.  1.
        -13    1    3    3    0    0  0.40550533796E+03  0.18549435218E+03 -0.45794240250E+03  0.63918227276E+03  0.00000000000E+00 0. -1.
         22    1    1    2    0    0 -0.57655005418E+03 -0.28358073639E+03 -0.54717229802E+03  0.84393454885E+03  0.00000000000E+00 0. -1.
<mgrwt>
<rscale>  0 0.12995561E+04</rscale>
<asrwt>0</asrwt>
<pdfrwt beam="1">  1        2 0.41340398E-01 0.12995561E+04</pdfrwt>
<pdfrwt beam="2">  1       -2 0.24172896E+00 0.12995561E+04</pdfrwt>
<totfact> 0.88059275E+00</totfact>
</mgrwt>
</event>
<event>
 6    1  0.4630212E-004  0.1850398E+04  0.7818608E-02  0.8679948E-01
         -1   -1    0    0    0  501 -0.00000000000E+00  0.00000000000E+00  0.83109780497E+03  0.83109780497E+03  0.00000000000E+00 0. -1.
          1   -1    0    0  501    0  0.00000000000E+00 -0.00000000000E+00 -0.10299552202E+04  0.10299552202E+04  0.00000000000E+00 0.  1.
         23    2    1    2    0    0  0.49440195187E+02  0.35462680603E+03  0.75589690687E+03  0.84136664201E+03  0.91176685619E+02 0.  0.
         11    1    3    3    0    0 -0.58925143220E+01  0.38859331152E+02  0.15948519018E+03  0.16425679660E+03  0.00000000000E+00 0. -1.
        -11    1    3    3    0    0  0.55332709509E+02  0.31576747488E+03  0.59641171669E+03  0.67710984540E+03  0.00000000000E+00 0.  1.
         22    1    1    2    0    0 -0.49440195187E+02 -0.35462680603E+03 -0.95475432214E+03  0.10196863832E+04  0.00000000000E+00 0.  1.
<mgrwt>
<rscale>  0 0.18503984E+04</rscale>
<asrwt>0</asrwt>
<pdfrwt beam="1">  1        1 0.15845465E+00 0.18503984E+04</pdfrwt>
<pdfrwt beam="2">  1       -1 0.12786120E+00 0.18503984E+04</pdfrwt>
<totfact> 0.71259803E+00</totfact>
</mgrwt>
</event>
<event>
 6    1  0.4630212E-004  0.4365744E+04  0.7818608E-02  0.7934572E-01
         -2   -1    0    0    0  501 -0.00000000000E+00  0.00000000000E+00  0.15437622972E+04  0.15437622972E+04  0.00000000000E+00 0. -1.
          2   -1    0    0  501    0  0.00000000000E+00 -0.00000000000E+00 -0.30865704690E+04  0.30865704690E+04  0.00000000000E+00 0.  1.
         23    2    1    2    0    0  0.44239873224E+03 -0.10742640542E+04 -0.27305767610E+04  0.29688412320E+04  0.90603073764E+02 0.  0.
         11    1    3    3    0    0  0.36644738017E+03 -0.81712467480E+03 -0.21661775145E+04  0.23439926281E+04  0.00000000000E+00 0. -1.
        -11    1    3    3    0    0  0.75951352069E+02 -0.25713937940E+03 -0.56439924653E+03  0.62484860391E+03  0.00000000000E+00 0.  1.
         22    1    1    2    0    0 -0.44239873224E+03  0.10742640542E+04  0.11877685893E+04  0.16614915342E+04  0.00000000000E+00 0. -1.
<mgrwt>
<rscale>  0 0.43657444E+04</rscale>
<asrwt>0</asrwt>
<pdfrwt beam="1">  1        2 0.47485700E+00 0.43657444E+04</pdfrwt>
<pdfrwt beam="2">  1       -2 0.23750189E+00 0.43657444E+04</pdfrwt>
<totfact> 0.90185421E-02</totfact>
</mgrwt>
</event>
<event>
 6    1  0.4630212E-004  0.2838340E+04  0.7818608E-02  0.8291463E-01
         -2   -1    0    0    0  501 -0.00000000000E+00  0.00000000000E+00  0.68868832054E+03  0.68868832054E+03  0.00000000000E+00 0. -1.
          2   -1    0    0  501    0  0.00000000000E+00 -0.00000000000E+00 -0.29244628717E+04  0.29244628717E+04  0.00000000000E+00 0.  1.
         23    2    1    2    0    0  0.12550111591E+04 -0.58334352510E+03 -0.15105436793E+04  0.20506843941E+04  0.90673035845E+02 0.  0.
         11    1    3    3    0    0  0.95291569858E+03 -0.41328650243E+03 -0.10893403980E+04  0.15051633016E+04  0.00000000000E+00 0. -1.
        -11    1    3    3    0    0  0.30209546054E+03 -0.17005702268E+03 -0.42120328125E+03  0.54552109251E+03  0.00000000000E+00 0.  1.
         22    1    1    2    0    0 -0.12550111591E+04  0.58334352510E+03 -0.72523087189E+03  0.15624667981E+04  0.00000000000E+00 0. -1.
<mgrwt>
<rscale>  0 0.28383400E+04</rscale>
<asrwt>0</asrwt>
<pdfrwt beam="1">  1        2 0.44991737E+00 0.28383400E+04</pdfrwt>
<pdfrwt beam="2">  1       -2 0.10595205E+00 0.28383400E+04</pdfrwt>
<totfact> 0.12101643E+00</totfact>
</mgrwt>
</event>
<event>
 6    1  0.4630212E-004  0.1128909E+04  0.7818608E-02  0.9177465E-01
         -2   -1    0    0    0  501 -0.00000000000E+00  0.00000000000E+00  0.36603417397E+03  0.36603417397E+03  0.00000000000E+00 0. -1.
          2   -1    0    0  501    0  0.00000000000E+00 -0.00000000000E+00 -0.87043421849E+03  0.87043421849E+03  0.00000000000E+00 0.  1.
         23    2    1    2    0    0 -0.53957682404E+03  0.13955356115E+03 -0.19207899754E+03  0.59759220581E+03  0.97998763690E+02 0.  0.
         13    1    3    3    0    0 -0.32522020640E+03  0.12116647358E+03 -0.15136358463E+03  0.37862967623E+03  0.00000000000E+00 0. -1.
        -13    1    3    3    0    0 -0.21435661763E+03  0.18387087578E+02 -0.40715412918E+02  0.21896252958E+03  0.00000000000E+00 0.  1.
         22    1    1    2    0    0  0.53957682404E+03 -0.13955356115E+03 -0.31232104698E+03  0.63887618664E+03  0.00000000000E+00 0.  1.
<mgrwt>
<rscale>  0 0.11289086E+04</rscale>
<asrwt>0</asrwt>
<pdfrwt beam="1">  1        2 0.13391296E+00 0.11289086E+04</pdfrwt>
<pdfrwt beam="2">  1       -2 0.56312950E-01 0.11289086E+04</pdfrwt>
<totfact> 0.90125840E+01</totfact>
</mgrwt>
</event>
<event>
 6    1  0.4630212E-004  0.2668876E+04  0.7818608E-02  0.8345175E-01
         -2   -1    0    0    0  501 -0.00000000000E+00  0.00000000000E+00  0.19105956658E+04  0.19105956658E+04  0.00000000000E+00 0. -1.
          2   -1    0    0  501    0  0.00000000000E+00 -0.00000000000E+00 -0.93202578918E+03  0.93202578918E+03  0.00000000000E+00 0.  1.
         23    2    1    2    0    0  0.72105134492E+03 -0.57064233826E+03  0.15176576054E+04  0.17767118437E+04  0.88727944026E+02 0.  0.
         11    1    3    3    0    0  0.33959702252E+03 -0.30244398261E+03  0.81791100180E+03  0.93582952891E+03  0.00000000000E+00 0. -1.
        -11    1    3    3    0    0  0.38145432240E+03 -0.26819835564E+03  0.69974660356E+03  0.84088231474E+03  0.00000000000E+00 0.  1.
         22    1    1    2    0    0 -0.72105134492E+03  0.57064233826E+03 -0.53908772874E+03  0.10659096113E+04  0.00000000000E+00 0.  1.
<mgrwt>
<rscale>  0 0.26688757E+04</rscale>
<asrwt>0</asrwt>
<pdfrwt beam="1">  1        2 0.14338858E+00 0.26688757E+04</pdfrwt>
<pdfrwt beam="2">  1       -2 0.29393779E+00 0.26688757E+04</pdfrwt>
<totfact> 0.84964404E-01</totfact>
</mgrwt>
</event>
<event>
 6    1  0.4630212E-004  0.7616897E+03  0.7818608E-02  0.9617187E-01
          2   -1    0    0  501    0  0.00000000000E+00  0.00000000000E+00  0.12039326950E+04  0.12039326950E+04  0.00000000000E+00 0.  1.
         -2   -1    0    0    0  501 -0.00000000000E+00 -0.00000000000E+00 -0.12047419140E+03  0.12047419140E+03  0.00000000000E+00 0. -1.
         23    2    1    2    0    0  0.89761708734E+02  0.32823309833E+03  0.27843047514E+03  0.45041360393E+03  0.97748421618E+02 0.  0.
         13    1    3    3    0    0  0.27556266610E+02  0.92973831076E+02  0.14044501736E+03  0.17067010282E+03  0.00000000000E+00 0. -1.
        -13    1    3    3    0    0  0.62205442124E+02  0.23525926725E+03  0.13798545778E+03  0.27974350111E+03  0.00000000000E+00 0.  1.
         22    1    1    2    0    0 -0.89761708734E+02 -0.32823309833E+03  0.80502802843E+03  0.87399328244E+03  0.00000000000E+00 0.  1.
<mgrwt>
<rscale>  0 0.76168975E+03</rscale>
<asrwt>0</asrwt>
<pdfrwt beam="1">  1        2 0.18522041E+00 0.76168975E+03</pdfrwt>
<pdfrwt beam="2">  1       -2 0.18534492E-01 0.76168975E+03</pdfrwt>
<totfact> 0.46258871E+02</totfact>
</mgrwt>
</event>
<event>
 6    1  0.4630212E-004  0.5688112E+04  0.7818608E-02  0.7730322E-01
         -2   -1    0    0    0  501 -0.00000000000E+00  0.00000000000E+00  0.28291569617E+04  0.28291569617E+04  0.00000000000E+00 0. -1.
          2   -1    0    0  501    0  0.00000000000E+00 -0.00000000000E+00 -0.28590339551E+04  0.28590339551E+04  0.00000000000E+00 0.  1.
         23    2    1    2    0    0 -0.10651441809E+04  0.73745010226E+03  0.25162793710E+04  0.28313960325E+04  0.82321570020E+02 0.  0.
         13    1    3    3    0    0 -0.71873060390E+03  0.52175388886E+03  0.16514452872E+04  0.18751192864E+04  0.00000000000E+00 0. -1.
        -13    1    3    3    0    0 -0.34641357696E+03  0.21569621340E+03  0.86483408375E+03  0.95627674613E+03  0.00000000000E+00 0.  1.
         22    1    1    2    0    0  0.10651441809E+04 -0.73745010226E+03 -0.25461563643E+04  0.28567948843E+04  0.00000000000E+00 0.  1.
<mgrwt>
<rscale>  0 0.56881125E+04</rscale>
<asrwt>0</asrwt>
<pdfrwt beam="1">  1        2 0.43985137E+00 0.56881125E+04</pdfrwt>
<pdfrwt beam="2">  1       -2 0.43525492E+00 0.56881125E+04</pdfrwt>
<totfact> 0.63969716E-03</totfact>
</mgrwt>
</event>
<event>
 6    1  0.4630212E-004  0.5938868E+03  0.7818608E-02  0.9918171E-01
          2   -1    0    0  501    0  0.00000000000E+00  0.00000000000E+00  0.37862491501E+04  0.37862491501E+04  0.00000000000E+00 0.  1.
         -2   -1    0    0    0  501 -0.00000000000E+00 -0.00000000000E+00 -0.23288321525E+02  0.23288321525E+02  0.00000000000E+00 0. -1.
         23    2    1    2    0    0 -0.85667657102E+02  0.27638055152E+03  0.20475792803E+04  0.20699228554E+04  0.90964617130E+02 0.  0.
         11    1    3    3    0    0 -0.17152160203E+01  0.15839259065E+03  0.10424160541E+04  0.10543824660E+04  0.00000000000E+00 0. -1.
        -11    1    3    3    0    0 -0.83952441082E+02  0.11798796087E+03  0.10051632262E+04  0.10155403894E+04  0.00000000000E+00 0.  1.
         22    1    1    2    0    0  0.85667657102E+02 -0.27638055152E+03  0.17153815483E+04  0.17396146163E+04  0.00000000000E+00 0.  1.
<mgrwt>
<rscale>  0 0.59388682E+03</rscale>
<asrwt>0</asrwt>
<pdfrwt beam="1">  1        2 0.58249938E+00 0.59388682E+03</pdfrwt>
<pdfrwt beam="2">  1       -2 0.35828217E-02 0.59388682E+03</pdfrwt>
<totfact> 0.19388302E+02</totfact>
</mgrwt>
</event>
<event>
 6    1  0.4630212E-004  0.1362497E+04  0.7818608E-02  0.8981421E-01
          2   -1    0    0  501    0  0.00000000000E+00  0.00000000000E+00  0.17236027458E+04  0.17236027458E+04  0.00000000000E+00 0.  1.
         -2   -1    0    0    0  501 -0.00000000000E+00 -0.00000000000E+00 -0.26926135714E+03  0.26926135714E+03  0.00000000000E+00 0. -1.
         23    2    1    2    0    0 -0.28347572535E+02  0.31495741013E+03 -0.14710140523E+03  0.36049748444E+03  0.91202290548E+02 0.  0.
         13    1    3    3    0    0 -0.30940239563E+02  0.31886946300E+03 -0.13524224681E+03  0.34774343729E+03  0.00000000000E+00 0. -1.
        -13    1    3    3    0    0  0.25926670278E+01 -0.39120528736E+01 -0.11859158425E+02  0.12754047144E+02  0.00000000000E+00 0.  1.
         22    1    1    2    0    0  0.28347572535E+02 -0.31495741013E+03  0.16014427939E+04  0.16323666185E+04  0.00000000000E+00 0.  1.
<mgrwt>
<rscale>  0 0.13624971E+04</rscale>
<asrwt>0</asrwt>
<pdfrwt beam="1">  1        2 0.26516965E+00 0.13624971E+04</pdfrwt>
<pdfrwt beam="2">  1       -2 0.41424825E-01 0.13624971E+04</pdfrwt>
<totfact> 0.51259332E+01</totfact>
</mgrwt>
</event>
<event>
 6    1  0.4630212E-004  0.2186151E+04  0.7818608E-02  0.8524215E-01
          2   -1    0    0  501    0  0.00000000000E+00  0.00000000000E+00  0.12684998651E+04  0.12684998651E+04  0.00000000000E+00 0.  1.
         -2   -1    0    0    0  501 -0.00000000000E+00 -0.00000000000E+00 -0.94191103234E+03  0.94191103234E+03  0.00000000000E+00 0. -1.
         23    2    1    2    0    0  0.32153939389E+03 -0.68965755299E+02  0.12153135428E+04  0.12627952224E+04  0.97575146305E+02 0.  0.
         11    1    3    3    0    0  0.13699949626E+03 -0.30159634503E+02  0.70342927352E+03  0.71728042520E+03  0.00000000000E+00 0. -1.
        -11    1    3    3    0    0  0.18453989763E+03 -0.38806120795E+02  0.51188426928E+03  0.54551479720E+03  0.00000000000E+00 0.  1.
         22    1    1    2    0    0 -0.32153939389E+03  0.68965755299E+02 -0.88872471007E+03  0.94761567500E+03  0.00000000000E+00 0. -1.
<mgrwt>
<rscale>  0 0.21861510E+04</rscale>
<asrwt>0</asrwt>
<pdfrwt beam="1">  1        2 0.19515383E+00 0.21861510E+04</pdfrwt>
<pdfrwt beam="2">  1       -2 0.14490939E+00 0.21861510E+04</pdfrwt>
<totfact> 0.51813715E+00</totfact>
</mgrwt>
</event>
<event>
 6    1  0.4630212E-004  0.1075882E+04  0.7818608E-02  0.9229023E-01
         -2   -1    0    0    0  501 -0.00000000000E+00  0.00000000000E+00  0.22964969396E+03  0.22964969396E+03  0.00000000000E+00 0. -1.
          2   -1    0    0  501    0  0.00000000000E+00 -0.00000000000E+00 -0.12600955572E+04  0.12600955572E+04  0.00000000000E+00 0.  1.
         23    2    1    2    0    0  0.31476297446E+03  0.25337392957E+03 -0.10023959953E+04  0.10847009655E+04  0.92219166859E+02 0.  0.
         11    1    3    3    0    0  0.10132383077E+03  0.12665093404E+03 -0.32425022600E+03  0.36255370200E+03  0.00000000000E+00 0. -1.
        -11    1    3    3    0    0  0.21343914369E+03  0.12672299553E+03 -0.67814576933E+03  0.72214726345E+03  0.00000000000E+00 0.  1.
         22    1    1    2    0    0 -0.31476297446E+03 -0.25337392957E+03 -0.28049867884E+02  0.40504428568E+03  0.00000000000E+00 0. -1.
<mgrwt>
<rscale>  0 0.10758821E+04</rscale>
<asrwt>0</asrwt>
<pdfrwt beam="1">  1        2 0.19386085E+00 0.10758821E+04</pdfrwt>
<pdfrwt beam="2">  1       -2 0.35330723E-01 0.10758821E+04</pdfrwt>
<totfact> 0.13037848E+02</totfact>
</mgrwt>
</event>
<event>
 6    1  0.4630212E-004  0.2319699E+04  0.7818608E-02  0.8470194E-01
         -2   -1    0    0    0  501 -0.00000000000E+00  0.00000000000E+00  0.64644398922E+03  0.64644398922E+03  0.00000000000E+00 0. -1.
          2   -1    0    0  501    0  0.00000000000E+00 -0.00000000000E+00 -0.20810017570E+04  0.20810017570E+04  0.00000000000E+00 0.  1.
         23    2    1    2    0    0 -0.25381994726E+03 -0.11164530535E+04 -0.51416748983E+03  0.12584289832E+04  0.91560426995E+02 0.  0.
         13    1    3    3    0    0 -0.17580913082E+03 -0.92747011193E+03 -0.41455130481E+03  0.10310007000E+04  0.00000000000E+00 0.  1.
        -13    1    3    3    0    0 -0.78010816435E+02 -0.18898294158E+03 -0.99616185020E+02  0.22742828322E+03  0.00000000000E+00 0. -1.
         22    1    1    2    0    0  0.25381994726E+03  0.11164530535E+04 -0.92039027792E+03  0.14690167630E+04  0.00000000000E+00 0.  1.
<mgrwt>
<rscale>  0 0.23196992E+04</rscale>
<asrwt>0</asrwt>
<pdfrwt beam="1">  1        2 0.32015411E+00 0.23196992E+04</pdfrwt>
<pdfrwt beam="2">  1       -2 0.99452923E-01 0.23196992E+04</pdfrwt>
<totfact> 0.45603947E+00</totfact>
</mgrwt>
</event>
<event>
 6    1  0.4630212E-004  0.2547979E+04  0.7818608E-02  0.8386089E-01
          2   -1    0    0  501    0  0.00000000000E+00  0.00000000000E+00  0.34331245715E+04  0.34331245715E+04  0.00000000000E+00 0.  1.
         -2   -1    0    0    0  501 -0.00000000000E+00 -0.00000000000E+00 -0.47276147291E+03  0.47276147291E+03  0.00000000000E+00 0. -1.
         23    2    1    2    0    0 -0.89457404466E+03 -0.90384481044E+03  0.14194053100E+04  0.19079498420E+04  0.91449454486E+02 0.  0.
         13    1    3    3    0    0 -0.30213027172E+03 -0.30342590112E+03  0.41445677457E+03  0.59592314651E+03  0.00000000000E+00 0.  1.
        -13    1    3    3    0    0 -0.59244377294E+03 -0.60041890932E+03  0.10049485355E+04  0.13120266955E+04  0.00000000000E+00 0. -1.
         22    1    1    2    0    0  0.89457404466E+03  0.90384481044E+03  0.15409577886E+04  0.19979362024E+04  0.00000000000E+00 0.  1.
<mgrwt>
<rscale>  0 0.25479788E+04</rscale>
<asrwt>0</asrwt>
<pdfrwt beam="1">  1        2 0.52817299E+00 0.25479788E+04</pdfrwt>
<pdfrwt beam="2">  1       -2 0.72732537E-01 0.25479788E+04</pdfrwt>
<totfact> 0.13748063E+00</totfact>
</mgrwt>
</event>
<event>
 6    1  0.4630212E-004  0.4045202E+04  0.7818608E-02  0.7995490E-01
          2   -1    0    0  501    0  0.00000000000E+00  0.00000000000E+00  0.16285343863E+04  0.16285343863E+04  0.00000000000E+00 0.  1.
         -2   -1    0    0    0  501 -0.00000000000E+00 -0.00000000000E+00 -0.25120218636E+04  0.25120218636E+04  0.00000000000E+00 0. -1.
         23    2    1    2    0    0  0.82332415984E+03  0.69726009093E+03 -0.21913954677E+04  0.24450747201E+04  0.11019067239E+03 0.  0.
         11    1    3    3    0    0  0.48018567937E+03  0.47618530570E+03 -0.13534980836E+04  0.15130392574E+04  0.00000000000E+00 0.  1.
        -11    1    3    3    0    0  0.34313848048E+03  0.22107478523E+03 -0.83789738412E+03  0.93203546272E+03  0.00000000000E+00 0. -1.
         22    1    1    2    0    0 -0.82332415984E+03 -0.69726009093E+03  0.13079079904E+04  0.16954815298E+04  0.00000000000E+00 0.  1.
<mgrwt>
<rscale>  0 0.40452016E+04</rscale>
<asrwt>0</asrwt>
<pdfrwt beam="1">  1        2 0.25054375E+00 0.40452016E+04</pdfrwt>
<pdfrwt beam="2">  1       -2 0.38646490E+00 0.40452016E+04</pdfrwt>
<totfact> 0.76796811E-02</totfact>
</mgrwt>
</event>
<event>
 6    1  0.4630212E-004  0.1126896E+04  0.7818608E-02  0.9179366E-01
          2   -1    0    0  501    0  0.00000000000E+00  0.00000000000E+00  0.10507320190E+04  0.10507320190E+04  0.00000000000E+00 0.  1.
         -2   -1    0    0    0  501 -0.00000000000E+00 -0.00000000000E+00 -0.30214534510E+03  0.30214534510E+03  0.00000000000E+00 0. -1.
         23    2    1    2    0    0 -0.28591471808E+02 -0.22349168558E+03 -0.23845095437E+03  0.34044994182E+03  0.91001645372E+02 0.  0.
         13    1    3    3    0    0  0.24710107523E+01 -0.11073686039E+03 -0.17576419400E+03  0.20775420582E+03  0.00000000000E+00 0. -1.
        -13    1    3    3    0    0 -0.31062482560E+02 -0.11275482519E+03 -0.62686760368E+02  0.13269573600E+03  0.00000000000E+00 0.  1.
         22    1    1    2    0    0  0.28591471808E+02  0.22349168558E+03  0.98703762825E+03  0.10124274223E+04  0.00000000000E+00 0.  1.
<mgrwt>
<rscale>  0 0.11268962E+04</rscale>
<asrwt>0</asrwt>
<pdfrwt beam="1">  1        2 0.16165108E+00 0.11268962E+04</pdfrwt>
<pdfrwt beam="2">  1       -2 0.46483900E-01 0.11268962E+04</pdfrwt>
<totfact> 0.10166383E+02</totfact>
</mgrwt>
</event>
<event>
 6    1  0.4630212E-004  0.1389124E+04  0.7818608E-02  0.8961729E-01
          2   -1    0    0  501    0  0.00000000000E+00  0.00000000000E+00  0.37661744575E+04  0.37661744575E+04  0.00000000000E+00 0.  1.
         -2   -1    0    0    0  501 -0.00000000000E+00 -0.00000000000E+00 -0.12809187547E+03  0.12809187547E+03  0.00000000000E+00 0. -1.
         23    2    1    2    0    0 -0.53709354534E+03  0.10704913594E+03  0.64250595108E+03  0.84903919105E+03  0.90136878205E+02 0.  0.
         11    1    3    3    0    0 -0.45996348728E+03  0.75259167601E+02  0.49726700286E+03  0.68154590754E+03  0.00000000000E+00 0. -1.
        -11    1    3    3    0    0 -0.77130058054E+02  0.31789968338E+02  0.14523894822E+03  0.16749328351E+03  0.00000000000E+00 0.  1.
         22    1    1    2    0    0  0.53709354534E+03 -0.10704913594E+03  0.29955766309E+04  0.30452271419E+04  0.00000000000E+00 0. -1.
<mgrwt>
<rscale>  0 0.13891240E+04</rscale>
<asrwt>0</asrwt>
<pdfrwt beam="1">  1        2 0.57941137E+00 0.13891240E+04</pdfrwt>
<pdfrwt beam="2">  1       -2 0.19706445E-01 0.13891240E+04</pdfrwt>
<totfact> 0.11392998E+01</totfact>
</mgrwt>
</event>
<event>
 6    1  0.4630212E-004  0.3328072E+04  0.7818608E-02  0.8155789E-01
          2   -1    0    0  501    0  0.00000000000E+00  0.00000000000E+00  0.10396680136E+04  0.10396680136E+04  0.00000000000E+00 0.  1.
         -2   -1    0    0    0  501 -0.00000000000E+00 -0.00000000000E+00 -0.26633660040E+04  0.26633660040E+04  0.00000000000E+00 0. -1.
         23    2    1    2    0    0 -0.86447531767E+03  0.13474038015E+04 -0.13125441004E+04  0.20721964039E+04  0.91713365944E+02 0.  0.
         13    1    3    3    0    0 -0.53525381800E+03  0.89741814084E+03 -0.89088661181E+03  0.13731478159E+04  0.00000000000E+00 0. -1.
        -13    1    3    3    0    0 -0.32922149967E+03  0.44998566066E+03 -0.42165748859E+03  0.69904858796E+03  0.00000000000E+00 0.  1.
         22    1    1    2    0    0  0.86447531767E+03 -0.13474038015E+04 -0.31115388999E+03  0.16308376137E+04  0.00000000000E+00 0.  1.
<mgrwt>
<rscale>  0 0.33280724E+04</rscale>
<asrwt>0</asrwt>
<pdfrwt beam="1">  1        2 0.15994893E+00 0.33280724E+04</pdfrwt>
<pdfrwt beam="2">  1       -2 0.40974861E+00 0.33280724E+04</pdfrwt>
<totfact> 0.12672387E-01</totfact>
</mgrwt>
</event>
<event>
 6    1  0.4630212E-004  0.3479763E+04  0.7818608E-02  0.8118603E-01
          2   -1    0    0  501    0  0.00000000000E+00  0.00000000000E+00  0.27245097993E+04  0.27245097993E+04  0.00000000000E+00 0.  1.
         -2   -1    0    0    0  501 -0.00000000000E+00 -0.00000000000E+00 -0.11110945318E+04  0.11110945318E+04  0.00000000000E+00 0. -1.
         23    2    1    2    0    0 -0.91360706807E+03  0.95248765148E+03 -0.44041802059E+03  0.13942641711E+04  0.89966354660E+02 0.  0.
         11    1    3    3    0    0 -0.21548143252E+03  0.20956755257E+03 -0.62553884591E+02  0.30702409568E+03  0.00000000000E+00 0.  1.
        -11    1    3    3    0    0 -0.69812563555E+03  0.74292009891E+03 -0.37786413599E+03  0.10872400754E+04  0.00000000000E+00 0. -1.
         22    1    1    2    0    0  0.91360706807E+03 -0.95248765148E+03  0.20538332881E+04  0.24413401599E+04  0.00000000000E+00 0.  1.
<mgrwt>
<rscale>  0 0.34797632E+04</rscale>
<asrwt>0</asrwt>
<pdfrwt beam="1">  1        2 0.41915535E+00 0.34797632E+04</pdfrwt>
<pdfrwt beam="2">  1       -2 0.17093762E+00 0.34797632E+04</pdfrwt>
<totfact> 0.44338778E-01</totfact>
</mgrwt>
</event>
<event>
 6    1  0.4630212E-004  0.2438165E+04  0.7818608E-02  0.8425352E-01
          2   -1    0    0  501    0  0.00000000000E+00  0.00000000000E+00  0.93698467622E+03  0.93698467622E+03  0.00000000000E+00 0.  1.
         -2   -1    0    0    0  501 -0.00000000000E+00 -0.00000000000E+00 -0.15861110589E+04  0.15861110589E+04  0.00000000000E+00 0. -1.
         23    2    1    2    0    0  0.27939873598E+03 -0.11388312352E+04 -0.66365499594E+03  0.13504016930E+04  0.90258201088E+02 0.  0.
         11    1    3    3    0    0  0.12649578198E+03 -0.69928633318E+03 -0.39453472571E+03  0.81281006910E+03  0.00000000000E+00 0. -1.
        -11    1    3    3    0    0  0.15290295401E+03 -0.43954490201E+03 -0.26912027023E+03  0.53759162389E+03  0.00000000000E+00 0.  1.
         22    1    1    2    0    0 -0.27939873598E+03  0.11388312352E+04  0.14528613239E+02  0.11726940422E+04  0.00000000000E+00 0. -1.
<mgrwt>
<rscale>  0 0.24381647E+04</rscale>
<asrwt>0</asrwt>
<pdfrwt beam="1">  1        2 0.14415149E+00 0.24381647E+04</pdfrwt>
<pdfrwt beam="2">  1       -2 0.24401709E+00 0.24381647E+04</pdfrwt>
<totfact> 0.17364164E+00</totfact>
</mgrwt>
</event>
<event>
 6    1  0.4630212E-004  0.2854466E+04  0.7818608E-02  0.8286556E-01
          3   -1    0    0  501    0  0.00000000000E+00  0.00000000000E+00  0.17252189058E+04  0.17252189058E+04  0.00000000000E+00 0.  1.
         -3   -1    0    0    0  501 -0.00000000000E+00 -0.00000000000E+00 -0.11807162283E+04  0.11807162283E+04  0.00000000000E+00 0. -1.
         23    2    1    2    0    0  0.13516384858E+04  0.44678790479E+03  0.35291084769E+03  0.14695321762E+04  0.91829855447E+02 0.  0.
         13    1    3    3    0    0  0.18252711164E+03  0.85414506927E+02  0.72138331567E+02  0.21404607765E+03  0.00000000000E+00 0. -1.
        -13    1    3    3    0    0  0.11691113742E+04  0.36137339787E+03  0.28077251613E+03  0.12554860986E+04  0.00000000000E+00 0.  1.
         22    1    1    2    0    0 -0.13516384858E+04 -0.44678790479E+03  0.19159182987E+03  0.14364029579E+04  0.00000000000E+00 0. -1.
<mgrwt>
<rscale>  0 0.28544659E+04</rscale>
<asrwt>0</asrwt>
<pdfrwt beam="1">  1        3 0.26541829E+00 0.28544659E+04</pdfrwt>
<pdfrwt beam="2">  1       -3 0.18164865E+00 0.28544659E+04</pdfrwt>
<totfact> 0.26156955E-02</totfact>
</mgrwt>
</event>
<event>
 6    1  0.4630212E-004  0.3354743E+04  0.7818608E-02  0.8149104E-01
         -2   -1    0    0    0  501 -0.00000000000E+00  0.00000000000E+00  0.78334525038E+03  0.78334525038E+03  0.00000000000E+00 0. -1.
          2   -1    0    0  501    0  0.00000000000E+00 -0.00000000000E+00 -0.35917427461E+04  0.35917427461E+04  0.00000000000E+00 0.  1.
         23    2    1    2    0    0  0.70181878819E+03 -0.26186864240E+03 -0.33609347019E+04  0.34442699898E+04  0.77387953342E+02 0.  0.
         11    1    3    3    0    0  0.53478248692E+03 -0.20846964619E+03 -0.27107428078E+04  0.27708443608E+04  0.00000000000E+00 0. -1.
        -11    1    3    3    0    0  0.16703630127E+03 -0.53398996209E+02 -0.65019189409E+03  0.67342562906E+03  0.00000000000E+00 0.  1.
         22    1    1    2    0    0 -0.70181878819E+03  0.26186864240E+03  0.55253720614E+03  0.93081800665E+03  0.00000000000E+00 0. -1.
<mgrwt>
<rscale>  0 0.33547427E+04</rscale>
<asrwt>0</asrwt>
<pdfrwt beam="1">  1        2 0.55257581E+00 0.33547427E+04</pdfrwt>
<pdfrwt beam="2">  1       -2 0.12051465E+00 0.33547427E+04</pdfrwt>
<totfact> 0.30525126E-01</totfact>
</mgrwt>
</event>
<event>
 6    1  0.4630212E-004  0.2670996E+04  0.7818608E-02  0.8344478E-01
          2   -1    0    0  501    0  0.00000000000E+00  0.00000000000E+00  0.37047327586E+04  0.37047327586E+04  0.00000000000E+00 0.  1.
         -2   -1    0    0    0  501 -0.00000000000E+00 -0.00000000000E+00 -0.48142609445E+03  0.48142609445E+03  0.00000000000E+00 0. -1.
         23    2    1    2    0    0 -0.85159674281E+03 -0.37487410404E+03  0.11537561982E+03  0.94193583627E+03  0.90465351170E+02 0.  0.
         11    1    3    3    0    0 -0.51801460828E+03 -0.21764631670E+03  0.25998374479E+02  0.56248108328E+03  0.00000000000E+00 0. -1.
        -11    1    3    3    0    0 -0.33358213453E+03 -0.15722778735E+03  0.89377245340E+02  0.37945475300E+03  0.00000000000E+00 0.  1.
         22    1    1    2    0    0  0.85159674281E+03  0.37487410404E+03  0.31079310443E+04  0.32442230168E+04  0.00000000000E+00 0.  1.
<mgrwt>
<rscale>  0 0.26709961E+04</rscale>
<asrwt>0</asrwt>
<pdfrwt beam="1">  1        2 0.56995887E+00 0.26709961E+04</pdfrwt>
<pdfrwt beam="2">  1       -2 0.74065555E-01 0.26709961E+04</pdfrwt>
<totfact> 0.83663946E-01</totfact>
</mgrwt>
</event>
<event>
 6    1  0.4630212E-004  0.2157848E+04  0.7818608E-02  0.8536180E-01
         -2   -1    0    0    0  501 -0.00000000000E+00  0.00000000000E+00  0.28692568448E+03  0.28692568448E+03  0.00000000000E+00 0. -1.
          2   -1    0    0  501    0  0.00000000000E+00 -0.00000000000E+00 -0.40570678827E+04  0.40570678827E+04  0.00000000000E+00 0.  1.
         23    2    1    2    0    0 -0.75328544798E+03  0.10668802537E+03 -0.35364157112E+03  0.84380816696E+03  0.90158532132E+02 0.  0.
         11    1    3    3    0    0 -0.27098321578E+03 -0.45556788451E+01 -0.13285103260E+03  0.30183116855E+03  0.00000000000E+00 0. -1.
        -11    1    3    3    0    0 -0.48230223220E+03  0.11124370421E+03 -0.22079053851E+03  0.54197699841E+03  0.00000000000E+00 0.  1.
         22    1    1    2    0    0  0.75328544798E+03 -0.10668802537E+03 -0.34165006271E+04  0.35001854003E+04  0.00000000000E+00 0.  1.
<mgrwt>
<rscale>  0 0.21578480E+04</rscale>
<asrwt>0</asrwt>
<pdfrwt beam="1">  1        2 0.62416431E+00 0.21578480E+04</pdfrwt>
<pdfrwt beam="2">  1       -2 0.44142412E-01 0.21578480E+04</pdfrwt>
<totfact> 0.13830671E+00</totfact>
</mgrwt>
</event>
<event>
 6    1  0.4630212E-004  0.2730180E+04  0.7818608E-02  0.8325279E-01
         -2   -1    0    0    0  501 -0.00000000000E+00  0.00000000000E+00  0.68950315163E+03  0.68950315163E+03  0.00000000000E+00 0. -1.
          2   -1    0    0  501    0  0.00000000000E+00 -0.00000000000E+00 -0.27026277009E+04  0.27026277009E+04  0.00000000000E+00 0.  1.
         23    2    1    2    0    0 -0.25565807346E+03  0.83929455156E+03 -0.23045204300E+04  0.24676375025E+04  0.92973310590E+02 0.  0.
         11    1    3    3    0    0 -0.44866264565E+02  0.12518535986E+03 -0.26586207779E+03  0.29726587498E+03  0.00000000000E+00 0. -1.
        -11    1    3    3    0    0 -0.21079180889E+03  0.71410919170E+03 -0.20386583522E+04  0.21703716275E+04  0.00000000000E+00 0.  1.
         22    1    1    2    0    0  0.25565807346E+03 -0.83929455156E+03  0.29139588081E+03  0.92449334998E+03  0.00000000000E+00 0. -1.
<mgrwt>
<rscale>  0 0.27301797E+04</rscale>
<asrwt>0</asrwt>
<pdfrwt beam="1">  1        2 0.41578888E+00 0.27301797E+04</pdfrwt>
<pdfrwt beam="2">  1       -2 0.10607741E+00 0.27301797E+04</pdfrwt>
<totfact> 0.16603202E+00</totfact>
</mgrwt>
</event>
<event>
 6    1  0.4630212E-004  0.2311007E+04  0.7818608E-02  0.8473594E-01
          2   -1    0    0  501    0  0.00000000000E+00  0.00000000000E+00  0.20474908504E+04  0.20474908504E+04  0.00000000000E+00 0.  1.
         -2   -1    0    0    0  501 -0.00000000000E+00 -0.00000000000E+00 -0.65210982183E+03  0.65210982183E+03  0.00000000000E+00 0. -1.
         23    2    1    2    0    0 -0.39351364500E+03  0.96194916979E+03  0.12837933178E+04  0.16543011882E+04  0.91585722616E+02 0.  0.
         11    1    3    3    0    0 -0.29677033129E+03  0.78256630782E+03  0.10768165347E+04  0.13638242207E+04  0.00000000000E+00 0.  1.
        -11    1    3    3    0    0 -0.96743313712E+02  0.17938286197E+03  0.20697678306E+03  0.29047696748E+03  0.00000000000E+00 0. -1.
         22    1    1    2    0    0  0.39351364500E+03 -0.96194916979E+03  0.11158771083E+03  0.10452994840E+04  0.00000000000E+00 0. -1.
<mgrwt>
<rscale>  0 0.23110075E+04</rscale>
<asrwt>0</asrwt>
<pdfrwt beam="1">  1        2 0.31499859E+00 0.23110075E+04</pdfrwt>
<pdfrwt beam="2">  1       -2 0.10032459E+00 0.23110075E+04</pdfrwt>
<totfact> 0.46669780E+00</totfact>
</mgrwt>
</event>
<event>
 6    1  0.4630212E-004  0.1637813E+04  0.7818608E-02  0.8797649E-01
          2   -1    0    0  501    0  0.00000000000E+00  0.00000000000E+00  0.14213988307E+04  0.14213988307E+04  0.00000000000E+00 0.  1.
         -2   -1    0    0    0  501 -0.00000000000E+00 -0.00000000000E+00 -0.47179435334E+03  0.47179435334E+03  0.00000000000E+00 0. -1.
         23    2    1    2    0    0  0.46440610718E+03 -0.37746350987E+03  0.11181195622E+04  0.12714624807E+04  0.90960159430E+02 0.  0.
         11    1    3    3    0    0  0.96213646184E+02 -0.12567175664E+03  0.26153582993E+03  0.30569829320E+03  0.00000000000E+00 0.  1.
        -11    1    3    3    0    0  0.36819246100E+03 -0.25179175324E+03  0.85658373231E+03  0.96576418747E+03  0.00000000000E+00 0. -1.
         22    1    1    2    0    0 -0.46440610718E+03  0.37746350987E+03 -0.16851508489E+03  0.62173070336E+03  0.00000000000E+00 0. -1.
<mgrwt>
<rscale>  0 0.16378131E+04</rscale>
<asrwt>0</asrwt>
<pdfrwt beam="1">  1        2 0.21867674E+00 0.16378131E+04</pdfrwt>
<pdfrwt beam="2">  1       -2 0.72583747E-01 0.16378131E+04</pdfrwt>
<totfact> 0.23092441E+01</totfact>
</mgrwt>
</event>
<event>
 6    1  0.4630212E-004  0.1301864E+04  0.7818608E-02  0.9028089E-01
          2   -1    0    0  501    0  0.00000000000E+00  0.00000000000E+00  0.10837967675E+04  0.10837967675E+04  0.00000000000E+00 0.  1.
         -2   -1    0    0    0  501 -0.00000000000E+00 -0.00000000000E+00 -0.39095175988E+03  0.39095175988E+03  0.00000000000E+00 0. -1.
         23    2    1    2    0    0  0.50927797414E+03  0.28643220844E+03  0.30668283819E+02  0.59163727815E+03  0.87673600844E+02 0.  0.
         13    1    3    3    0    0  0.33130766909E+03  0.13730298931E+03  0.16342008609E+02  0.35900409986E+03  0.00000000000E+00 0. -1.
        -13    1    3    3    0    0  0.17797030505E+03  0.14912921913E+03  0.14326275210E+02  0.23263317829E+03  0.00000000000E+00 0.  1.
         22    1    1    2    0    0 -0.50927797414E+03 -0.28643220844E+03  0.66217672379E+03  0.88311124922E+03  0.00000000000E+00 0.  1.
<mgrwt>
<rscale>  0 0.13018637E+04</rscale>
<asrwt>0</asrwt>
<pdfrwt beam="1">  1        2 0.16673796E+00 0.13018637E+04</pdfrwt>
<pdfrwt beam="2">  1       -2 0.60146425E-01 0.13018637E+04</pdfrwt>
<totfact> 0.56304910E+01</totfact>
</mgrwt>
</event>
<event>
 6    1  0.4630212E-004  0.1947284E+04  0.7818608E-02  0.8631672E-01
         -2   -1    0    0    0  501 -0.00000000000E+00  0.00000000000E+00  0.15134524900E+04  0.15134524900E+04  0.00000000000E+00 0. -1.
          2   -1    0    0  501    0  0.00000000000E+00 -0.00000000000E+00 -0.62636828323E+03  0.62636828323E+03  0.00000000000E+00 0.  1.
         23    2    1    2    0    0  0.72671930023E+03  0.10449152205E+03  0.11436754287E+04  0.13620814374E+04  0.90735529596E+02 0.  0.
         13    1    3    3    0    0  0.45274440853E+03  0.76729345348E+02  0.79101312660E+03  0.91464017971E+03  0.00000000000E+00 0. -1.
        -13    1    3    3    0    0  0.27397489170E+03  0.27762176702E+02  0.35266230208E+03  0.44744125765E+03  0.00000000000E+00 0.  1.
         22    1    1    2    0    0 -0.72671930023E+03 -0.10449152205E+03 -0.25659122186E+03  0.77773933592E+03  0.00000000000E+00 0.  1.
<mgrwt>
<rscale>  0 0.19472839E+04</rscale>
<asrwt>0</asrwt>
<pdfrwt beam="1">  1        2 0.96364352E-01 0.19472839E+04</pdfrwt>
<pdfrwt beam="2">  1       -2 0.23283884E+00 0.19472839E+04</pdfrwt>
<totfact> 0.36022933E+00</totfact>
</mgrwt>
</event>
<event>
 6    1  0.4630212E-004  0.5168726E+04  0.7818608E-02  0.7802994E-01
         -2   -1    0    0    0  501 -0.00000000000E+00  0.00000000000E+00  0.33305384943E+04  0.33305384943E+04  0.00000000000E+00 0. -1.
          2   -1    0    0  501    0  0.00000000000E+00 -0.00000000000E+00 -0.20053606649E+04  0.20053606649E+04  0.00000000000E+00 0.  1.
         23    2    1    2    0    0  0.24444296632E+04  0.40459382645E+03 -0.92952618039E+02  0.24810740317E+04  0.90308463605E+02 0.  0.
         11    1    3    3    0    0  0.19789742929E+04  0.34815140230E+03 -0.46364580748E+02  0.20099000784E+04  0.00000000000E+00 0. -1.
        -11    1    3    3    0    0  0.46545537037E+03  0.56442424153E+02 -0.46588037292E+02  0.47117395330E+03  0.00000000000E+00 0.  1.
         22    1    1    2    0    0 -0.24444296632E+04 -0.40459382645E+03  0.14181304474E+04  0.28548251275E+04  0.00000000000E+00 0.  1.
<mgrwt>
<rscale>  0 0.51687255E+04</rscale>
<asrwt>0</asrwt>
<pdfrwt beam="1">  1        2 0.30851703E+00 0.51687255E+04</pdfrwt>
<pdfrwt beam="2">  1       -2 0.51239054E+00 0.51687255E+04</pdfrwt>
<totfact> 0.66648469E-03</totfact>
</mgrwt>
</event>
<event>
 6    1  0.4630212E-004  0.2173310E+04  0.7818608E-02  0.8529620E-01
          2   -1    0    0  501    0  0.00000000000E+00  0.00000000000E+00  0.24651899671E+04  0.24651899671E+04  0.00000000000E+00 0.  1.
         -2   -1    0    0    0  501 -0.00000000000E+00 -0.00000000000E+00 -0.47899722676E+03  0.47899722676E+03  0.00000000000E+00 0. -1.
         23    2    1    2    0    0 -0.63974748005E+03  0.37442039637E+03  0.20677548092E+04  0.21984527623E+04  0.90095091122E+02 0.  0.
         13    1    3    3    0    0 -0.39707627180E+03  0.27983106875E+03  0.13835609349E+04  0.14663614333E+04  0.00000000000E+00 0. -1.
        -13    1    3    3    0    0 -0.24267120825E+03  0.94589327623E+02  0.68419387435E+03  0.73209132894E+03  0.00000000000E+00 0.  1.
         22    1    1    2    0    0  0.63974748005E+03 -0.37442039637E+03 -0.81562068843E+02  0.74573443163E+03  0.00000000000E+00 0. -1.
<mgrwt>
<rscale>  0 0.21733101E+04</rscale>
<asrwt>0</asrwt>
<pdfrwt beam="1">  1        2 0.37925999E+00 0.21733101E+04</pdfrwt>
<pdfrwt beam="2">  1       -2 0.73691882E-01 0.21733101E+04</pdfrwt>
<totfact> 0.55464203E+00</totfact>
</mgrwt>
</event>
<event>
 6    1  0.4630212E-004  0.2366478E+04  0.7818608E-02  0.8452161E-01
         -2   -1    0    0    0  501 -0.00000000000E+00  0.00000000000E+00  0.11606799264E+04  0.11606799264E+04  0.00000000000E+00 0. -1.
          2   -1    0    0  501    0  0.00000000000E+00 -0.00000000000E+00 -0.12062366896E+04  0.12062366896E+04  0.00000000000E+00 0.  1.
         23    2    1    2    0    0  0.81567543431E+03  0.14458932971E+03  0.81970089531E+03  0.11690421216E+04  0.92289956170E+02 0.  0.
         11    1    3    3    0    0  0.39938742045E+03  0.25183703704E+02  0.40831339537E+03  0.57172052559E+03  0.00000000000E+00 0. -1.
        -11    1    3    3    0    0  0.41628801386E+03  0.11940562601E+03  0.41138749995E+03  0.59732159606E+03  0.00000000000E+00 0.  1.
         22    1    1    2    0    0 -0.81567543431E+03 -0.14458932971E+03 -0.86525765854E+03  0.11978744943E+04  0.00000000000E+00 0.  1.
<mgrwt>
<rscale>  0 0.23664782E+04</rscale>
<asrwt>0</asrwt>
<pdfrwt beam="1">  1        2 0.18557487E+00 0.23664782E+04</pdfrwt>
<pdfrwt beam="2">  1       -2 0.17856614E+00 0.23664782E+04</pdfrwt>
<totfact> 0.31415111E+00</totfact>
</mgrwt>
</event>
<event>
 6    1  0.4630212E-004  0.9769076E+03  0.7818608E-02  0.9334241E-01
          2   -1    0    0  501    0  0.00000000000E+00  0.00000000000E+00  0.39785748176E+03  0.39785748176E+03  0.00000000000E+00 0. -1.
         -2   -1    0    0    0  501 -0.00000000000E+00 -0.00000000000E+00 -0.59967982045E+03  0.59967982045E+03  0.00000000000E+00 0.  1.
         23    2    1    2    0    0 -0.10943254677E+03 -0.17471444213E+03 -0.54920073559E+03  0.59359130432E+03  0.90711465680E+02 0.  0.
         11    1    3    3    0    0 -0.36661636064E+02 -0.69385503523E+01 -0.14874835789E+03  0.15335675080E+03  0.00000000000E+00 0. -1.
        -11    1    3    3    0    0 -0.72770910704E+02 -0.16777589178E+03 -0.40045237770E+03  0.44023455352E+03  0.00000000000E+00 0.  1.
         22    1    1    2    0    0  0.10943254677E+03  0.17471444213E+03  0.34737839690E+03  0.40394599789E+03  0.00000000000E+00 0. -1.
<mgrwt>
<rscale>  0 0.97690758E+03</rscale>
<asrwt>0</asrwt>
<pdfrwt beam="1">  1        2 0.61208844E-01 0.97690758E+03</pdfrwt>
<pdfrwt beam="2">  1       -2 0.92258434E-01 0.97690758E+03</pdfrwt>
<totfact> 0.79835318E+01</totfact>
</mgrwt>
</event>
<event>
 6    1  0.4630212E-004  0.1269266E+04  0.7818608E-02  0.9054299E-01
          2   -1    0    0  501    0  0.00000000000E+00  0.00000000000E+00  0.13630742276E+04  0.13630742276E+04  0.00000000000E+00 0.  1.
         -2   -1    0    0    0  501 -0.00000000000E+00 -0.00000000000E+00 -0.29547857892E+03  0.29547857892E+03  0.00000000000E+00 0. -1.
         23    2    1    2    0    0 -0.33590712489E+03  0.41546912402E+03  0.97577524247E+03  0.11164465655E+04  0.94166980637E+02 0.  0.
         11    1    3    3    0    0 -0.85237113977E+02  0.68007940256E+02  0.14205667984E+03  0.17908251122E+03  0.00000000000E+00 0.  1.
        -11    1    3    3    0    0 -0.25067001091E+03  0.34746118377E+03  0.83371856262E+03  0.93736405428E+03  0.00000000000E+00 0. -1.
         22    1    1    2    0    0  0.33590712489E+03 -0.41546912402E+03  0.91820406230E+02  0.54210624103E+03  0.00000000000E+00 0. -1.
<mgrwt>
<rscale>  0 0.12692663E+04</rscale>
<asrwt>0</asrwt>
<pdfrwt beam="1">  1        2 0.20970372E+00 0.12692663E+04</pdfrwt>
<pdfrwt beam="2">  1       -2 0.45458244E-01 0.12692663E+04</pdfrwt>
<totfact> 0.68464855E+01</totfact>
</mgrwt>
</event>
<event>
 6    1  0.4630212E-004  0.2821717E+04  0.7818608E-02  0.8296558E-01
         -2   -1    0    0    0  501 -0.00000000000E+00  0.00000000000E+00  0.12088368102E+04  0.12088368102E+04  0.00000000000E+00 0. -1.
          2   -1    0    0  501    0  0.00000000000E+00 -0.00000000000E+00 -0.16466418446E+04  0.16466418446E+04  0.00000000000E+00 0.  1.
         23    2    1    2    0    0  0.11502873170E+04  0.81425204041E+03 -0.20409877132E+03  0.14269178706E+04  0.90945061022E+02 0.  0.
         11    1    3    3    0    0  0.67020881454E+03  0.44744276938E+03 -0.76939411225E+02  0.80950883872E+03  0.00000000000E+00 0.  1.
        -11    1    3    3    0    0  0.48007850242E+03  0.36680927102E+03 -0.12715936009E+03  0.61740903189E+03  0.00000000000E+00 0. -1.
         22    1    1    2    0    0 -0.11502873170E+04 -0.81425204041E+03 -0.23370626311E+03  0.14285607842E+04  0.00000000000E+00 0. -1.
<mgrwt>
<rscale>  0 0.28217167E+04</rscale>
<asrwt>0</asrwt>
<pdfrwt beam="1">  1        2 0.25332951E+00 0.28217167E+04</pdfrwt>
<pdfrwt beam="2">  1       -2 0.18597490E+00 0.28217167E+04</pdfrwt>
<totfact> 0.15054988E+00</totfact>
</mgrwt>
</event>
<event>
 6    1  0.4630212E-004  0.2392434E+04  0.7818608E-02  0.8442342E-01
         -2   -1    0    0    0  501 -0.00000000000E+00  0.00000000000E+00  0.59383889764E+03  0.59383889764E+03  0.00000000000E+00 0. -1.
          2   -1    0    0  501    0  0.00000000000E+00 -0.00000000000E+00 -0.24096353986E+04  0.24096353986E+04  0.00000000000E+00 0.  1.
         23    2    1    2    0    0  0.93619142208E+03  0.33057614110E+02  0.21281353457E+02  0.94133893992E+03  0.90105045206E+02 0.  0.
         11    1    3    3    0    0  0.22903559218E+03 -0.25568233596E+02 -0.13976203213E+02  0.23088172581E+03  0.00000000000E+00 0. -1.
        -11    1    3    3    0    0  0.70715582990E+03  0.58625847706E+02  0.35257556670E+02  0.71045721411E+03  0.00000000000E+00 0.  1.
         22    1    1    2    0    0 -0.93619142208E+03 -0.33057614110E+02 -0.18370778544E+04  0.20621353563E+04  0.00000000000E+00 0.  1.
<mgrwt>
<rscale>  0 0.23924341E+04</rscale>
<asrwt>0</asrwt>
<pdfrwt beam="1">  1        2 0.37071314E+00 0.23924341E+04</pdfrwt>
<pdfrwt beam="2">  1       -2 0.91359830E-01 0.23924341E+04</pdfrwt>
<totfact> 0.36047278E+00</totfact>
</mgrwt>
</event>
<event>
 6    1  0.4630212E-004  0.2337003E+04  0.7818608E-02  0.8463473E-01
         -4   -1    0    0    0  501 -0.00000000000E+00  0.00000000000E+00  0.30991828426E+04  0.30991828426E+04  0.00000000000E+00 0. -1.
          4   -1    0    0  501    0  0.00000000000E+00 -0.00000000000E+00 -0.44056628946E+03  0.44056628946E+03  0.00000000000E+00 0.  1.
         23    2    1    2    0    0 -0.94268012093E+03 -0.31852787940E+03  0.40859490590E+03  0.10795249078E+04  0.91205313362E+02 0.  0.
         11    1    3    3    0    0 -0.38436119270E+03 -0.13475980778E+03  0.11934945606E+03  0.42442670145E+03  0.00000000000E+00 0.  1.
        -11    1    3    3    0    0 -0.55831892823E+03 -0.18376807163E+03  0.28924544983E+03  0.65509820639E+03  0.00000000000E+00 0. -1.
         22    1    1    2    0    0  0.94268012093E+03  0.31852787940E+03  0.22500216473E+04  0.24602242242E+04  0.00000000000E+00 0. -1.
<mgrwt>
<rscale>  0 0.23370028E+04</rscale>
<asrwt>0</asrwt>
<pdfrwt beam="1">  1        4 0.67779431E-01 0.23370028E+04</pdfrwt>
<pdfrwt beam="2">  1       -4 0.47679735E+00 0.23370028E+04</pdfrwt>
<totfact> 0.67156222E-03</totfact>
</mgrwt>
</event>
<event>
 6    1  0.4630212E-004  0.7373838E+03  0.7818608E-02  0.9655354E-01
         -2   -1    0    0    0  501 -0.00000000000E+00  0.00000000000E+00  0.12768017554E+03  0.12768017554E+03  0.00000000000E+00 0. -1.
          2   -1    0    0  501    0  0.00000000000E+00 -0.00000000000E+00 -0.10646422611E+04  0.10646422611E+04  0.00000000000E+00 0.  1.
         23    2    1    2    0    0  0.30533778722E+03 -0.19684763737E+03 -0.46772896575E+03  0.59889183636E+03  0.88999379849E+02 0.  0.
         11    1    3    3    0    0  0.16308441352E+03 -0.15632225104E+03 -0.27267235085E+03  0.35409516097E+03  0.00000000000E+00 0. -1.
        -11    1    3    3    0    0  0.14225337369E+03 -0.40525386327E+02 -0.19505661490E+03  0.24479667539E+03  0.00000000000E+00 0.  1.
         22    1    1    2    0    0 -0.30533778722E+03  0.19684763737E+03 -0.46923311982E+03  0.59343060030E+03  0.00000000000E+00 0.  1.
<mgrwt>
<rscale>  0 0.73738378E+03</rscale>
<asrwt>0</asrwt>
<pdfrwt beam="1">  1        2 0.16379111E+00 0.73738378E+03</pdfrwt>
<pdfrwt beam="2">  1       -2 0.19643105E-01 0.73738378E+03</pdfrwt>
<totfact> 0.50818020E+02</totfact>
</mgrwt>
</event>
<event>
 6    1  0.4630212E-004  0.2180630E+04  0.7818608E-02  0.8526534E-01
          2   -1    0    0  501    0  0.00000000000E+00  0.00000000000E+00  0.53168270783E+03  0.53168270783E+03  0.00000000000E+00 0.  1.
         -2   -1    0    0    0  501 -0.00000000000E+00 -0.00000000000E+00 -0.22358956431E+04  0.22358956431E+04  0.00000000000E+00 0. -1.
         23    2    1    2    0    0 -0.23802873780E+03 -0.14906284638E+03 -0.21881706245E+04  0.22080316976E+04  0.91847065221E+02 0.  0.
         11    1    3    3    0    0 -0.10354966183E+03 -0.29126825026E+02 -0.58907523201E+03  0.59881594282E+03  0.00000000000E+00 0.  1.
        -11    1    3    3    0    0 -0.13447907597E+03 -0.11993602135E+03 -0.15990953925E+04  0.16092157548E+04  0.00000000000E+00 0. -1.
         22    1    1    2    0    0  0.23802873780E+03  0.14906284638E+03  0.48395768929E+03  0.55954665329E+03  0.00000000000E+00 0.  1.
<mgrwt>
<rscale>  0 0.21806302E+04</rscale>
<asrwt>0</asrwt>
<pdfrwt beam="1">  1        2 0.81797339E-01 0.21806302E+04</pdfrwt>
<pdfrwt beam="2">  1       -2 0.34398395E+00 0.21806302E+04</pdfrwt>
<totfact> 0.89179425E-01</totfact>
</mgrwt>
</event>
<event>
 6    1  0.4630212E-004  0.2909923E+04  0.7818608E-02  0.8269931E-01
          2   -1    0    0  501    0  0.00000000000E+00  0.00000000000E+00  0.11773274753E+04  0.11773274753E+04  0.00000000000E+00 0.  1.
         -2   -1    0    0    0  501 -0.00000000000E+00 -0.00000000000E+00 -0.17980666401E+04  0.17980666401E+04  0.00000000000E+00 0. -1.
         23    2    1    2    0    0  0.12810397238E+04  0.18820065763E+03  0.36493321108E+03  0.13481165441E+04  0.88089197149E+02 0.  0.
         13    1    3    3    0    0  0.63686997979E+03  0.57677078692E+02  0.20703430465E+03  0.67215565152E+03  0.00000000000E+00 0. -1.
        -13    1    3    3    0    0  0.64416974397E+03  0.13052357893E+03  0.15789890642E+03  0.67596089262E+03  0.00000000000E+00 0.  1.
         22    1    1    2    0    0 -0.12810397238E+04 -0.18820065763E+03 -0.98567237582E+03  0.16272775712E+04  0.00000000000E+00 0. -1.
<mgrwt>
<rscale>  0 0.29099232E+04</rscale>
<asrwt>0</asrwt>
<pdfrwt beam="1">  1        2 0.18112730E+00 0.29099232E+04</pdfrwt>
<pdfrwt beam="2">  1       -2 0.27662564E+00 0.29099232E+04</pdfrwt>
<totfact> 0.74419756E-01</totfact>
</mgrwt>
</event>
<event>
 6    1  0.4630212E-004  0.1423352E+04  0.7818608E-02  0.8937087E-01
          2   -1    0    0  501    0  0.00000000000E+00  0.00000000000E+00  0.15776996827E+04  0.15776996827E+04  0.00000000000E+00 0.  1.
         -2   -1    0    0    0  501 -0.00000000000E+00 -0.00000000000E+00 -0.32102590847E+03  0.32102590847E+03  0.00000000000E+00 0. -1.
         23    2    1    2    0    0 -0.68524952354E+03  0.78370604198E+02  0.41282400956E+03  0.80886721209E+03  0.90186710796E+02 0.  0.
         11    1    3    3    0    0 -0.12359668802E+03 -0.19775952518E+02  0.82832861263E+02  0.15009501155E+03  0.00000000000E+00 0. -1.
        -11    1    3    3    0    0 -0.56165283553E+03  0.98146556716E+02  0.32999114830E+03  0.65877220054E+03  0.00000000000E+00 0.  1.
         22    1    1    2    0    0  0.68524952354E+03 -0.78370604198E+02  0.84384976469E+03  0.10898583791E+04  0.00000000000E+00 0. -1.
<mgrwt>
<rscale>  0 0.14233516E+04</rscale>
<asrwt>0</asrwt>
<pdfrwt beam="1">  1        2 0.24272302E+00 0.14233516E+04</pdfrwt>
<pdfrwt beam="2">  1       -2 0.49388602E-01 0.14233516E+04</pdfrwt>
<totfact> 0.43267411E+01</totfact>
</mgrwt>
</event>
<event>
 6    1  0.4630212E-004  0.4294874E+04  0.7818608E-02  0.7947567E-01
         -1   -1    0    0    0  501 -0.00000000000E+00  0.00000000000E+00  0.32347675799E+04  0.32347675799E+04  0.00000000000E+00 0. -1.
          1   -1    0    0  501    0  0.00000000000E+00 -0.00000000000E+00 -0.14256003581E+04  0.14256003581E+04  0.00000000000E+00 0.  1.
         23    2    1    2    0    0 -0.46485300929E+02  0.21455615723E+04  0.95028865305E+03  0.23488169998E+04  0.91090233846E+02 0.  0.
         11    1    3    3    0    0 -0.29572031885E+02  0.18043802952E+04  0.83344782976E+03  0.19877872219E+04  0.00000000000E+00 0.  1.
        -11    1    3    3    0    0 -0.16913269044E+02  0.34118127717E+03  0.11684082329E+03  0.36102977792E+03  0.00000000000E+00 0. -1.
         22    1    1    2    0    0  0.46485300929E+02 -0.21455615723E+04  0.85887856875E+03  0.23115509382E+04  0.00000000000E+00 0.  1.
<mgrwt>
<rscale>  0 0.42948741E+04</rscale>
<asrwt>0</asrwt>
<pdfrwt beam="1">  1        1 0.21932313E+00 0.42948741E+04</pdfrwt>
<pdfrwt beam="2">  1       -1 0.49765655E+00 0.42948741E+04</pdfrwt>
<totfact> 0.87117393E-03</totfact>
</mgrwt>
</event>
<event>
 6    1  0.4630212E-004  0.1771978E+04  0.7818608E-02  0.8721345E-01
          2   -1    0    0  501    0  0.00000000000E+00  0.00000000000E+00  0.50157912853E+03  0.50157912853E+03  0.00000000000E+00 0.  1.
         -2   -1    0    0    0  501 -0.00000000000E+00 -0.00000000000E+00 -0.15650095526E+04  0.15650095526E+04  0.00000000000E+00 0. -1.
         23    2    1    2    0    0 -0.65043991814E+03 -0.56834336177E+03 -0.31472943717E+03  0.92350538069E+03  0.87870959752E+02 0.  0.
         11    1    3    3    0    0 -0.45513490381E+03 -0.34261038380E+03 -0.21124922999E+03  0.60758200510E+03  0.00000000000E+00 0. -1.
        -11    1    3    3    0    0 -0.19530501434E+03 -0.22573297797E+03 -0.10348020718E+03  0.31592337559E+03  0.00000000000E+00 0.  1.
         22    1    1    2    0    0  0.65043991814E+03  0.56834336177E+03 -0.74870098693E+03  0.11430833005E+04  0.00000000000E+00 0.  1.
<mgrwt>
<rscale>  0 0.17719776E+04</rscale>
<asrwt>0</asrwt>
<pdfrwt beam="1">  1        2 0.77166019E-01 0.17719776E+04</pdfrwt>
<pdfrwt beam="2">  1       -2 0.24077070E+00 0.17719776E+04</pdfrwt>
<totfact> 0.42519651E+00</totfact>
</mgrwt>
</event>
<event>
 6    1  0.4630212E-004  0.2414691E+04  0.7818608E-02  0.8434024E-01
          2   -1    0    0  501    0  0.00000000000E+00  0.00000000000E+00  0.10392023042E+04  0.10392023042E+04  0.00000000000E+00 0.  1.
         -2   -1    0    0    0  501 -0.00000000000E+00 -0.00000000000E+00 -0.14026944356E+04  0.14026944356E+04  0.00000000000E+00 0. -1.
         23    2    1    2    0    0  0.69129428550E+02  0.68107793834E+03  0.82198232456E+03  0.10729571057E+04  0.83282488464E+02 0.  0.
         11    1    3    3    0    0  0.46828562846E+01  0.26070814266E+03  0.36656094561E+03  0.44984174065E+03  0.00000000000E+00 0. -1.
        -11    1    3    3    0    0  0.64446572265E+02  0.42036979568E+03  0.45542137896E+03  0.62311536509E+03  0.00000000000E+00 0.  1.
         22    1    1    2    0    0 -0.69129428550E+02 -0.68107793834E+03 -0.11854744559E+04  0.13689396340E+04  0.00000000000E+00 0. -1.
<mgrwt>
<rscale>  0 0.24146911E+04</rscale>
<asrwt>0</asrwt>
<pdfrwt beam="1">  1        2 0.15987728E+00 0.24146911E+04</pdfrwt>
<pdfrwt beam="2">  1       -2 0.21579914E+00 0.24146911E+04</pdfrwt>
<totfact> 0.22443866E+00</totfact>
</mgrwt>
</event>
<event>
 6    1  0.4630212E-004  0.2952236E+04  0.7818608E-02  0.8257503E-01
          2   -1    0    0  501    0  0.00000000000E+00  0.00000000000E+00  0.12499044650E+04  0.12499044650E+04  0.00000000000E+00 0.  1.
         -2   -1    0    0    0  501 -0.00000000000E+00 -0.00000000000E+00 -0.17432727892E+04  0.17432727892E+04  0.00000000000E+00 0. -1.
         23    2    1    2    0    0  0.82812910605E+03 -0.98321673721E+03 -0.97966418481E+03  0.16187695154E+04  0.90331945167E+02 0.  0.
         13    1    3    3    0    0  0.75255617722E+03 -0.84851872824E+03 -0.86721090423E+03  0.14277183141E+04  0.00000000000E+00 0. -1.
        -13    1    3    3    0    0  0.75572928827E+02 -0.13469800897E+03 -0.11245328058E+03  0.19105120127E+03  0.00000000000E+00 0.  1.
         22    1    1    2    0    0 -0.82812910605E+03  0.98321673721E+03  0.48629586063E+03  0.13744077389E+04  0.00000000000E+00 0.  1.
<mgrwt>
<rscale>  0 0.29522361E+04</rscale>
<asrwt>0</asrwt>
<pdfrwt beam="1">  1        2 0.19229299E+00 0.29522361E+04</pdfrwt>
<pdfrwt beam="2">  1       -2 0.26819581E+00 0.29522361E+04</pdfrwt>
<totfact> 0.75573923E-01</totfact>
</mgrwt>
</event>
<event>
 6    1  0.4630212E-004  0.1214744E+04  0.7818608E-02  0.9100048E-01
          2   -1    0    0  501    0  0.00000000000E+00  0.00000000000E+00  0.36541557268E+03  0.36541557268E+03  0.00000000000E+00 0.  1.
         -2   -1    0    0    0  501 -0.00000000000E+00 -0.00000000000E+00 -0.10095369534E+04  0.10095369534E+04  0.00000000000E+00 0. -1.
         23    2    1    2    0    0 -0.30320073405E+03 -0.52104294486E+03 -0.36656667977E+03  0.71128615843E+03  0.90224347854E+02 0.  0.
         13    1    3    3    0    0 -0.93106140836E+02 -0.21102314255E+03 -0.98882290478E+02  0.25095264000E+03  0.00000000000E+00 0.  1.
        -13    1    3    3    0    0 -0.21009459322E+03 -0.31001980230E+03 -0.26768438929E+03  0.46033351843E+03  0.00000000000E+00 0. -1.
         22    1    1    2    0    0  0.30320073405E+03  0.52104294486E+03 -0.27755470092E+03  0.66366636763E+03  0.00000000000E+00 0. -1.
<mgrwt>
<rscale>  0 0.12147436E+04</rscale>
<asrwt>0</asrwt>
<pdfrwt beam="1">  1        2 0.56217781E-01 0.12147436E+04</pdfrwt>
<pdfrwt beam="2">  1       -2 0.15531338E+00 0.12147436E+04</pdfrwt>
<totfact> 0.23671055E+01</totfact>
</mgrwt>
</event>
<event>
 6    1  0.4630212E-004  0.2670582E+04  0.7818608E-02  0.8344614E-01
         -2   -1    0    0    0  501 -0.00000000000E+00  0.00000000000E+00  0.17697540168E+04  0.17697540168E+04  0.00000000000E+00 0. -1.
          2   -1    0    0  501    0  0.00000000000E+00 -0.00000000000E+00 -0.10074859929E+04  0.10074859929E+04  0.00000000000E+00 0.  1.
         23    2    1    2    0    0  0.67518161307E+03  0.71854725523E+02  0.15756195499E+04  0.17177240744E+04  0.83460874479E+02 0.  0.
         11    1    3    3    0    0  0.48149695374E+03  0.49032201042E+02  0.10232854097E+04  0.11319701864E+04  0.00000000000E+00 0. -1.
        -11    1    3    3    0    0  0.19368465933E+03  0.22822524480E+02  0.55233414021E+03  0.58575388802E+03  0.00000000000E+00 0.  1.
         22    1    1    2    0    0 -0.67518161307E+03 -0.71854725523E+02 -0.81335152599E+03  0.10595159352E+04  0.00000000000E+00 0.  1.
<mgrwt>
<rscale>  0 0.26705822E+04</rscale>
<asrwt>0</asrwt>
<pdfrwt beam="1">  1        2 0.15499785E+00 0.26705822E+04</pdfrwt>
<pdfrwt beam="2">  1       -2 0.27226985E+00 0.26705822E+04</pdfrwt>
<totfact> 0.10283798E+00</totfact>
</mgrwt>
</event>
<event>
 6    1  0.4630212E-004  0.1704912E+04  0.7818608E-02  0.8758568E-01
         -2   -1    0    0    0  501 -0.00000000000E+00  0.00000000000E+00  0.45914597210E+03  0.45914597210E+03  0.00000000000E+00 0. -1.
          2   -1    0    0  501    0  0.00000000000E+00 -0.00000000000E+00 -0.15826792924E+04  0.15826792924E+04  0.00000000000E+00 0.  1.
         23    2    1    2    0    0  0.13539080411E+03  0.55182207448E+03 -0.13204796315E+04  0.14404716903E+04  0.91945426438E+02 0.  0.
         13    1    3    3    0    0  0.11537476680E+03  0.27780808557E+03 -0.69650229965E+03  0.75868578650E+03  0.00000000000E+00 0.  1.
        -13    1    3    3    0    0  0.20016037310E+02  0.27401398891E+03 -0.62397733189E+03  0.68178590377E+03  0.00000000000E+00 0. -1.
         22    1    1    2    0    0 -0.13539080411E+03 -0.55182207448E+03  0.19694631125E+03  0.60135357422E+03  0.00000000000E+00 0. -1.
<mgrwt>
<rscale>  0 0.17049115E+04</rscale>
<asrwt>0</asrwt>
<pdfrwt beam="1">  1        2 0.24348912E+00 0.17049115E+04</pdfrwt>
<pdfrwt beam="2">  1       -2 0.70637842E-01 0.17049115E+04</pdfrwt>
<totfact> 0.19766116E+01</totfact>
</mgrwt>
</event>
<event>
 6    1  0.4630212E-004  0.2609200E+04  0.7818608E-02  0.8365083E-01
          1   -1    0    0  501    0  0.00000000000E+00  0.00000000000E+00  0.25859500069E+04  0.25859500069E+04  0.00000000000E+00 0.  1.
         -1   -1    0    0    0  501 -0.00000000000E+00 -0.00000000000E+00 -0.65816472164E+03  0.65816472164E+03  0.00000000000E+00 0. -1.
         23    2    1    2    0    0 -0.31353009883E+02  0.11235744653E+04  0.17847284154E+04  0.21110358001E+04  0.88397070525E+02 0.  0.
         13    1    3    3    0    0 -0.51396787288E+02  0.39205121937E+03  0.60378514797E+03  0.72173561175E+03  0.00000000000E+00 0. -1.
        -13    1    3    3    0    0  0.20043777405E+02  0.73152324590E+03  0.11809432674E+04  0.13893001883E+04  0.00000000000E+00 0.  1.
         22    1    1    2    0    0  0.31353009883E+02 -0.11235744653E+04  0.14305686987E+03  0.11330789285E+04  0.00000000000E+00 0. -1.
<mgrwt>
<rscale>  0 0.26091999E+04</rscale>
<asrwt>0</asrwt>
<pdfrwt beam="1">  1        1 0.39783846E+00 0.26091999E+04</pdfrwt>
<pdfrwt beam="2">  1       -1 0.10125611E+00 0.26091999E+04</pdfrwt>
<totfact> 0.96157288E-01</totfact>
</mgrwt>
</event>
<event>
 6    1  0.5436068E-004  0.3602659E+04  0.7818608E-02  0.8089883E-01
          2   -1    0    0  501    0  0.00000000000E+00  0.00000000000E+00  0.21901361008E+04  0.21901361008E+04  0.00000000000E+00 0.  1.
         -2   -1    0    0    0  501 -0.00000000000E+00 -0.00000000000E+00 -0.14815458701E+04  0.14815458701E+04  0.00000000000E+00 0. -1.
         23    2    1    2    0    0  0.10922885743E+04 -0.40819885038E+02 -0.11031769218E+04  0.15557280944E+04  0.92357947424E+02 0.  0.
         11    1    3    3    0    0  0.61051318010E+03 -0.68459038253E+02 -0.61133510643E+03  0.86668540737E+03  0.00000000000E+00 0.  1.
        -11    1    3    3    0    0  0.48177539415E+03  0.27639153215E+02 -0.49184181537E+03  0.68904268703E+03  0.00000000000E+00 0. -1.
         22    1    1    2    0    0 -0.10922885743E+04  0.40819885038E+02  0.18117671525E+04  0.21159538765E+04  0.00000000000E+00 0.  1.
<mgrwt>
<rscale>  0 0.36026585E+04</rscale>
<asrwt>0</asrwt>
<pdfrwt beam="1">  1        2 0.33694401E+00 0.36026585E+04</pdfrwt>
<pdfrwt beam="2">  1       -2 0.22793013E+00 0.36026585E+04</pdfrwt>
<totfact> 0.37545404E-01</totfact>
</mgrwt>
</event>
<event>
 6    1  0.4630212E-004  0.1938675E+04  0.7818608E-02  0.8635841E-01
          2   -1    0    0  501    0  0.00000000000E+00  0.00000000000E+00  0.18761894909E+04  0.18761894909E+04  0.00000000000E+00 0.  1.
         -2   -1    0    0    0  501 -0.00000000000E+00 -0.00000000000E+00 -0.50081041241E+03  0.50081041241E+03  0.00000000000E+00 0. -1.
         23    2    1    2    0    0  0.13671264030E+02  0.81515703772E+03  0.49412502205E+02  0.82044753959E+03  0.77618749316E+02 0.  0.
         13    1    3    3    0    0 -0.57434157762E+01  0.39861104542E+03 -0.12667531176E+02  0.39885363068E+03  0.00000000000E+00 0. -1.
        -13    1    3    3    0    0  0.19414679806E+02  0.41654599230E+03  0.62080033381E+02  0.42159390891E+03  0.00000000000E+00 0.  1.
         22    1    1    2    0    0 -0.13671264030E+02 -0.81515703772E+03  0.13259665763E+04  0.15565523637E+04  0.00000000000E+00 0.  1.
<mgrwt>
<rscale>  0 0.19386750E+04</rscale>
<asrwt>0</asrwt>
<pdfrwt beam="1">  1        2 0.28864453E+00 0.19386750E+04</pdfrwt>
<pdfrwt beam="2">  1       -2 0.77047756E-01 0.19386750E+04</pdfrwt>
<totfact> 0.10990567E+01</totfact>
</mgrwt>
</event>
<event>
 6    1  0.4630212E-004  0.1311341E+04  0.7818608E-02  0.9020620E-01
         -2   -1    0    0    0  501 -0.00000000000E+00  0.00000000000E+00  0.19666583798E+03  0.19666583798E+03  0.00000000000E+00 0. -1.
          2   -1    0    0  501    0  0.00000000000E+00 -0.00000000000E+00 -0.21859595473E+04  0.21859595473E+04  0.00000000000E+00 0.  1.
         23    2    1    2    0    0 -0.22981147631E+03  0.54770962136E+03 -0.14897463465E+04  0.16065153984E+04  0.93532906342E+02 0.  0.
         13    1    3    3    0    0 -0.16964997825E+03  0.36619916193E+03 -0.89508947709E+03  0.98186970282E+03  0.00000000000E+00 0. -1.
        -13    1    3    3    0    0 -0.60161498063E+02  0.18151045943E+03 -0.59465686941E+03  0.62464569562E+03  0.00000000000E+00 0.  1.
         22    1    1    2    0    0  0.22981147631E+03 -0.54770962136E+03 -0.49954736286E+03  0.77610998687E+03  0.00000000000E+00 0. -1.
<mgrwt>
<rscale>  0 0.13113406E+04</rscale>
<asrwt>0</asrwt>
<pdfrwt beam="1">  1        2 0.33630146E+00 0.13113406E+04</pdfrwt>
<pdfrwt beam="2">  1       -2 0.30256284E-01 0.13113406E+04</pdfrwt>
<totfact> 0.52081862E+01</totfact>
</mgrwt>
</event>
<event>
 6    1  0.4630212E-004  0.1083994E+04  0.7818608E-02  0.9220934E-01
         -2   -1    0    0    0  501 -0.00000000000E+00  0.00000000000E+00  0.38308913532E+03  0.38308913532E+03  0.00000000000E+00 0. -1.
          2   -1    0    0  501    0  0.00000000000E+00 -0.00000000000E+00 -0.76682072318E+03  0.76682072318E+03  0.00000000000E+00 0.  1.
         23    2    1    2    0    0  0.52643575119E+03  0.44731752119E+02 -0.83923713526E+02  0.54243945487E+03  0.89787764919E+02 0.  0.
         13    1    3    3    0    0  0.40857356305E+03 -0.33436625323E+01 -0.66459561759E+02  0.41395701450E+03  0.00000000000E+00 0. -1.
        -13    1    3    3    0    0  0.11786218813E+03  0.48075414651E+02 -0.17464151767E+02  0.12848244036E+03  0.00000000000E+00 0.  1.
         22    1    1    2    0    0 -0.52643575119E+03 -0.44731752119E+02 -0.29980787434E+03  0.60747040363E+03  0.00000000000E+00 0.  1.
<mgrwt>
<rscale>  0 0.10839939E+04</rscale>
<asrwt>0</asrwt>
<pdfrwt beam="1">  1        2 0.11797242E+00 0.10839939E+04</pdfrwt>
<pdfrwt beam="2">  1       -2 0.58936790E-01 0.10839939E+04</pdfrwt>
<totfact> 0.97412111E+01</totfact>
</mgrwt>
</event>
<event>
 6    1  0.4630212E-004  0.1665413E+04  0.7818608E-02  0.8781340E-01
         -1   -1    0    0    0  501 -0.00000000000E+00  0.00000000000E+00  0.96976085519E+03  0.96976085519E+03  0.00000000000E+00 0. -1.
          1   -1    0    0  501    0  0.00000000000E+00 -0.00000000000E+00 -0.71502170149E+03  0.71502170149E+03  0.00000000000E+00 0.  1.
         23    2    1    2    0    0  0.41753066753E+03 -0.67256437418E+03 -0.12619533682E+03  0.80626916360E+03  0.86429192969E+02 0.  0.
         13    1    3    3    0    0  0.24833533852E+03 -0.32424293176E+03 -0.48177815792E+02  0.41124812595E+03  0.00000000000E+00 0. -1.
        -13    1    3    3    0    0  0.16919532900E+03 -0.34832144242E+03 -0.78017521033E+02  0.39502103766E+03  0.00000000000E+00 0.  1.
         22    1    1    2    0    0 -0.41753066753E+03  0.67256437418E+03  0.38093449052E+03  0.87851339308E+03  0.00000000000E+00 0.  1.
<mgrwt>
<rscale>  0 0.16654129E+04</rscale>
<asrwt>0</asrwt>
<pdfrwt beam="1">  1        1 0.11000334E+00 0.16654129E+04</pdfrwt>
<pdfrwt beam="2">  1       -1 0.14919398E+00 0.16654129E+04</pdfrwt>
<totfact> 0.89110986E+00</totfact>
</mgrwt>
</event>
<event>
 6    1  0.4630212E-004  0.2997390E+04  0.7818608E-02  0.8244476E-01
          2   -1    0    0  501    0  0.00000000000E+00  0.00000000000E+00  0.13784937342E+04  0.13784937342E+04  0.00000000000E+00 0.  1.
         -2   -1    0    0    0  501 -0.00000000000E+00 -0.00000000000E+00 -0.16293779086E+04  0.16293779086E+04  0.00000000000E+00 0. -1.
         23    2    1    2    0    0 -0.12081091660E+04 -0.67548480814E+03 -0.69862117506E+03  0.15531290867E+04  0.91273931471E+02 0.  0.
         11    1    3    3    0    0 -0.30811720238E+03 -0.14047895336E+03 -0.20215122453E+03  0.39438010132E+03  0.00000000000E+00 0. -1.
        -11    1    3    3    0    0 -0.89999196363E+03 -0.53500585478E+03 -0.49646995053E+03  0.11587489853E+04  0.00000000000E+00 0.  1.
         22    1    1    2    0    0  0.12081091660E+04  0.67548480814E+03  0.44773700061E+03  0.14547425562E+04  0.00000000000E+00 0.  1.
<mgrwt>
<rscale>  0 0.29973904E+04</rscale>
<asrwt>0</asrwt>
<pdfrwt beam="1">  1        2 0.21207596E+00 0.29973904E+04</pdfrwt>
<pdfrwt beam="2">  1       -2 0.25067352E+00 0.29973904E+04</pdfrwt>
<totfact> 0.81137585E-01</totfact>
</mgrwt>
</event>
<event>
 6    1  0.4630212E-004  0.1985501E+04  0.7818608E-02  0.8613430E-01
          2   -1    0    0  501    0  0.00000000000E+00  0.00000000000E+00  0.83972037250E+03  0.83972037250E+03  0.00000000000E+00 0.  1.
         -2   -1    0    0    0  501 -0.00000000000E+00 -0.00000000000E+00 -0.11736687539E+04  0.11736687539E+04  0.00000000000E+00 0. -1.
         23    2    1    2    0    0  0.20057787769E+03 -0.81729276548E+03 -0.69708747612E+03  0.10968363720E+04  0.94446429302E+02 0.  0.
         11    1    3    3    0    0  0.91150235107E+02 -0.55789420375E+03 -0.46411131311E+03  0.73140523576E+03  0.00000000000E+00 0.  1.
        -11    1    3    3    0    0  0.10942764258E+03 -0.25939856173E+03 -0.23297616301E+03  0.36543113622E+03  0.00000000000E+00 0. -1.
         22    1    1    2    0    0 -0.20057787769E+03  0.81729276548E+03  0.36313909472E+03  0.91655275442E+03  0.00000000000E+00 0.  1.
<mgrwt>
<rscale>  0 0.19855010E+04</rscale>
<asrwt>0</asrwt>
<pdfrwt beam="1">  1        2 0.12918775E+00 0.19855010E+04</pdfrwt>
<pdfrwt beam="2">  1       -2 0.18056442E+00 0.19855010E+04</pdfrwt>
<totfact> 0.53916209E+00</totfact>
</mgrwt>
</event>
<event>
 6    1  0.4630212E-004  0.9727244E+03  0.7818608E-02  0.9338977E-01
          2   -1    0    0  501    0  0.00000000000E+00  0.00000000000E+00  0.17189206673E+04  0.17189206673E+04  0.00000000000E+00 0.  1.
         -2   -1    0    0    0  501 -0.00000000000E+00 -0.00000000000E+00 -0.13761436653E+03  0.13761436653E+03  0.00000000000E+00 0. -1.
         23    2    1    2    0    0 -0.39033605339E+03  0.25389422000E+03  0.56013822632E+03  0.73421210980E+03  0.92130776927E+02 0.  0.
         13    1    3    3    0    0 -0.95047681162E+02  0.45902703242E+02  0.18807324415E+03  0.21566795085E+03  0.00000000000E+00 0.  1.
        -13    1    3    3    0    0 -0.29528837223E+03  0.20799151676E+03  0.37206498217E+03  0.51854415894E+03  0.00000000000E+00 0. -1.
         22    1    1    2    0    0  0.39033605339E+03 -0.25389422000E+03  0.10211680744E+04  0.11223229240E+04  0.00000000000E+00 0.  1.
<mgrwt>
<rscale>  0 0.97272438E+03</rscale>
<asrwt>0</asrwt>
<pdfrwt beam="1">  1        2 0.26444932E+00 0.97272438E+03</pdfrwt>
<pdfrwt beam="2">  1       -2 0.21171442E-01 0.97272438E+03</pdfrwt>
<totfact> 0.18515015E+02</totfact>
</mgrwt>
</event>
<event>
 6    1  0.4630212E-004  0.3161099E+04  0.7818608E-02  0.8199167E-01
          2   -1    0    0  501    0  0.00000000000E+00  0.00000000000E+00  0.38358007979E+04  0.38358007979E+04  0.00000000000E+00 0.  1.
         -2   -1    0    0    0  501 -0.00000000000E+00 -0.00000000000E+00 -0.65126868900E+03  0.65126868900E+03  0.00000000000E+00 0. -1.
         23    2    1    2    0    0  0.14819880322E+04 -0.53902810242E+03  0.14746749164E+04  0.21610317740E+04  0.92479167961E+02 0.  0.
         11    1    3    3    0    0  0.13217821955E+04 -0.45225335416E+03  0.12873079935E+04  0.18996850104E+04  0.00000000000E+00 0.  1.
        -11    1    3    3    0    0  0.16020583668E+03 -0.86774748260E+02  0.18736692291E+03  0.26134676360E+03  0.00000000000E+00 0. -1.
         22    1    1    2    0    0 -0.14819880322E+04  0.53902810242E+03  0.17098571925E+04  0.23260377129E+04  0.00000000000E+00 0.  1.
<mgrwt>
<rscale>  0 0.31610991E+04</rscale>
<asrwt>0</asrwt>
<pdfrwt beam="1">  1        2 0.59012319E+00 0.31610991E+04</pdfrwt>
<pdfrwt beam="2">  1       -2 0.10019519E+00 0.31610991E+04</pdfrwt>
<totfact> 0.31981448E-01</totfact>
</mgrwt>
</event>
<event>
 6    1  0.4630212E-004  0.2611931E+04  0.7818608E-02  0.8364160E-01
          2   -1    0    0  501    0  0.00000000000E+00  0.00000000000E+00  0.17758205937E+04  0.17758205937E+04  0.00000000000E+00 0. -1.
         -2   -1    0    0    0  501 -0.00000000000E+00 -0.00000000000E+00 -0.96042696292E+03  0.96042696292E+03  0.00000000000E+00 0.  1.
         23    2    1    2    0    0  0.75232412596E+03  0.93488546357E+03  0.94352735253E+03  0.15294250049E+04  0.94310976629E+02 0.  0.
         13    1    3    3    0    0  0.36577918653E+03  0.48693218975E+03  0.53261035136E+03  0.80905571939E+03  0.00000000000E+00 0. -1.
        -13    1    3    3    0    0  0.38654493943E+03  0.44795327382E+03  0.41091700117E+03  0.72036928556E+03  0.00000000000E+00 0.  1.
         22    1    1    2    0    0 -0.75232412596E+03 -0.93488546357E+03 -0.12813372177E+03  0.12068225516E+04  0.00000000000E+00 0.  1.
<mgrwt>
<rscale>  0 0.26119311E+04</rscale>
<asrwt>0</asrwt>
<pdfrwt beam="1">  1        2 0.27320317E+00 0.26119311E+04</pdfrwt>
<pdfrwt beam="2">  1       -2 0.14775799E+00 0.26119311E+04</pdfrwt>
<totfact> 0.24525921E+00</totfact>
</mgrwt>
</event>
<event>
 6    1  0.4630212E-004  0.3013816E+04  0.7818608E-02  0.8239797E-01
          2   -1    0    0  501    0  0.00000000000E+00  0.00000000000E+00  0.18413056360E+04  0.18413056360E+04  0.00000000000E+00 0.  1.
         -2   -1    0    0    0  501 -0.00000000000E+00 -0.00000000000E+00 -0.12332396969E+04  0.12332396969E+04  0.00000000000E+00 0. -1.
         23    2    1    2    0    0  0.59698088713E+03 -0.13755692917E+04  0.16627280018E+03  0.15112928795E+04  0.88218295448E+02 0.  0.
         13    1    3    3    0    0  0.29595588076E+03 -0.58941444003E+03  0.96860227044E+02  0.66661920844E+03  0.00000000000E+00 0.  1.
        -13    1    3    3    0    0  0.30102500637E+03 -0.78615485165E+03  0.69412573137E+02  0.84467367104E+03  0.00000000000E+00 0. -1.
         22    1    1    2    0    0 -0.59698088713E+03  0.13755692917E+04  0.44179313891E+03  0.15632524535E+04  0.00000000000E+00 0.  1.
<mgrwt>
<rscale>  0 0.30138157E+04</rscale>
<asrwt>0</asrwt>
<pdfrwt beam="1">  1        2 0.28327779E+00 0.30138157E+04</pdfrwt>
<pdfrwt beam="2">  1       -2 0.18972918E+00 0.30138157E+04</pdfrwt>
<totfact> 0.10894671E+00</totfact>
</mgrwt>
</event>
<event>
 6    1  0.4630212E-004  0.1910268E+04  0.7818608E-02  0.8649762E-01
          1   -1    0    0  501    0  0.00000000000E+00  0.00000000000E+00  0.11056608041E+04  0.11056608041E+04  0.00000000000E+00 0.  1.
         -1   -1    0    0    0  501 -0.00000000000E+00 -0.00000000000E+00 -0.82510045617E+03  0.82510045617E+03  0.00000000000E+00 0. -1.
         23    2    1    2    0    0  0.23221065389E+03  0.80275412084E+03  0.60366828607E+03  0.10348066263E+04  0.89852034037E+02 0.  0.
         13    1    3    3    0    0  0.15347817056E+03  0.37343998770E+03  0.30292237849E+03  0.50475235576E+03  0.00000000000E+00 0. -1.
        -13    1    3    3    0    0  0.78732483322E+02  0.42931413313E+03  0.30074590758E+03  0.53005427059E+03  0.00000000000E+00 0.  1.
         22    1    1    2    0    0 -0.23221065389E+03 -0.80275412084E+03 -0.32310793817E+03  0.89595463390E+03  0.00000000000E+00 0. -1.
<mgrwt>
<rscale>  0 0.19102683E+04</rscale>
<asrwt>0</asrwt>
<pdfrwt beam="1">  1        1 0.17010166E+00 0.19102683E+04</pdfrwt>
<pdfrwt beam="2">  1       -1 0.12693853E+00 0.19102683E+04</pdfrwt>
<totfact> 0.63208668E+00</totfact>
</mgrwt>
</event>
<event>
 6    1  0.4630212E-004  0.7657950E+04  0.7818608E-02  0.7513142E-01
         -2   -1    0    0    0  501 -0.00000000000E+00  0.00000000000E+00  0.38111357275E+04  0.38111357275E+04  0.00000000000E+00 0. -1.
          2   -1    0    0  501    0  0.00000000000E+00 -0.00000000000E+00 -0.38468974187E+04  0.38468974187E+04  0.00000000000E+00 0.  1.
         23    2    1    2    0    0 -0.36910641672E+04 -0.44003527646E+03  0.89918824618E+03  0.38250555678E+04  0.70177373305E+02 0.  0.
         11    1    3    3    0    0 -0.37172887485E+03 -0.39296658003E+02  0.69435995133E+02  0.38019460957E+03  0.00000000000E+00 0.  1.
        -11    1    3    3    0    0 -0.33193352924E+04 -0.40073861846E+03  0.82975225104E+03  0.34448609582E+04  0.00000000000E+00 0. -1.
         22    1    1    2    0    0  0.36910641672E+04  0.44003527646E+03 -0.93494993734E+03  0.38329775784E+04  0.00000000000E+00 0.  1.
<mgrwt>
<rscale>  0 0.76579496E+04</rscale>
<asrwt>0</asrwt>
<pdfrwt beam="1">  1        2 0.59183038E+00 0.76579496E+04</pdfrwt>
<pdfrwt beam="2">  1       -2 0.58632857E+00 0.76579496E+04</pdfrwt>
<totfact> 0.15939307E-04</totfact>
</mgrwt>
</event>
<event>
 6    1  0.4630212E-004  0.3750332E+04  0.7818608E-02  0.8056898E-01
          2   -1    0    0  501    0  0.00000000000E+00  0.00000000000E+00  0.14734288193E+04  0.14734288193E+04  0.00000000000E+00 0.  1.
         -2   -1    0    0    0  501 -0.00000000000E+00 -0.00000000000E+00 -0.23864386220E+04  0.23864386220E+04  0.00000000000E+00 0. -1.
         23    2    1    2    0    0  0.65048612647E+03 -0.85542966052E+03 -0.20369587826E+04  0.23048261511E+04  0.90168731067E+02 0.  0.
         13    1    3    3    0    0  0.31438450775E+03 -0.47937123587E+03 -0.11278907017E+04  0.12652161220E+04  0.00000000000E+00 0.  1.
        -13    1    3    3    0    0  0.33610161872E+03 -0.37605842466E+03 -0.90906808090E+03  0.10396100291E+04  0.00000000000E+00 0. -1.
         22    1    1    2    0    0 -0.65048612647E+03  0.85542966052E+03  0.11239489798E+04  0.15550412902E+04  0.00000000000E+00 0.  1.
<mgrwt>
<rscale>  0 0.37503320E+04</rscale>
<asrwt>0</asrwt>
<pdfrwt beam="1">  1        2 0.22668136E+00 0.37503320E+04</pdfrwt>
<pdfrwt beam="2">  1       -2 0.36714440E+00 0.37503320E+04</pdfrwt>
<totfact> 0.12804295E-01</totfact>
</mgrwt>
</event>
<event>
 6    1  0.4630212E-004  0.1411137E+04  0.7818608E-02  0.8945797E-01
         -2   -1    0    0    0  501 -0.00000000000E+00  0.00000000000E+00  0.20665788627E+03  0.20665788627E+03  0.00000000000E+00 0. -1.
          2   -1    0    0  501    0  0.00000000000E+00 -0.00000000000E+00 -0.24089405474E+04  0.24089405474E+04  0.00000000000E+00 0.  1.
         23    2    1    2    0    0 -0.17819909304E+03  0.66549601429E+03 -0.13615921886E+04  0.15286760205E+04  0.90979259085E+02 0.  0.
         13    1    3    3    0    0 -0.13887541075E+03  0.44877868457E+03 -0.10080110900E+04  0.11121038823E+04  0.00000000000E+00 0.  1.
        -13    1    3    3    0    0 -0.39323682292E+02  0.21671732972E+03 -0.35358109862E+03  0.41657213816E+03  0.00000000000E+00 0. -1.
         22    1    1    2    0    0  0.17819909304E+03 -0.66549601429E+03 -0.84069047254E+03  0.10869224132E+04  0.00000000000E+00 0. -1.
<mgrwt>
<rscale>  0 0.14111365E+04</rscale>
<asrwt>0</asrwt>
<pdfrwt beam="1">  1        2 0.37060624E+00 0.14111365E+04</pdfrwt>
<pdfrwt beam="2">  1       -2 0.31793521E-01 0.14111365E+04</pdfrwt>
<totfact> 0.35235646E+01</totfact>
</mgrwt>
</event>
<event>
 6    1  0.4630212E-004  0.2255089E+04  0.7818608E-02  0.8495842E-01
         -2   -1    0    0    0  501 -0.00000000000E+00  0.00000000000E+00  0.83025650248E+03  0.83025650248E+03  0.00000000000E+00 0. -1.
          2   -1    0    0  501    0  0.00000000000E+00 -0.00000000000E+00 -0.15312820663E+04  0.15312820663E+04  0.00000000000E+00 0.  1.
         23    2    1    2    0    0 -0.69809677895E+03  0.49467900509E+03 -0.11154262988E+04  0.14108680686E+04  0.11969314104E+03 0.  0.
         11    1    3    3    0    0 -0.49386241509E+03  0.30063877383E+03 -0.81221056697E+03  0.99698032201E+03  0.00000000000E+00 0.  1.
        -11    1    3    3    0    0 -0.20423436386E+03  0.19404023127E+03 -0.30321573180E+03  0.41388774655E+03  0.00000000000E+00 0. -1.
         22    1    1    2    0    0  0.69809677895E+03 -0.49467900509E+03  0.41440073495E+03  0.95067050022E+03  0.00000000000E+00 0. -1.
<mgrwt>
<rscale>  0 0.22550893E+04</rscale>
<asrwt>0</asrwt>
<pdfrwt beam="1">  1        2 0.23558185E+00 0.22550893E+04</pdfrwt>
<pdfrwt beam="2">  1       -2 0.12773177E+00 0.22550893E+04</pdfrwt>
<totfact> 0.50367866E+00</totfact>
</mgrwt>
</event>
<event>
 6    1  0.4630212E-004  0.3780580E+04  0.7818608E-02  0.8050335E-01
         -2   -1    0    0    0  501 -0.00000000000E+00  0.00000000000E+00  0.10921310612E+04  0.10921310612E+04  0.00000000000E+00 0. -1.
          2   -1    0    0  501    0  0.00000000000E+00 -0.00000000000E+00 -0.32717644407E+04  0.32717644407E+04  0.00000000000E+00 0.  1.
         23    2    1    2    0    0 -0.79206844685E+03  0.14409509271E+04 -0.16797833405E+02  0.16469910873E+04  0.92657841719E+02 0.  0.
         11    1    3    3    0    0 -0.47254894282E+03  0.94904370410E+03 -0.21537954673E+02  0.10604010275E+04  0.00000000000E+00 0. -1.
        -11    1    3    3    0    0 -0.31951950403E+03  0.49190722300E+03  0.47401212684E+01  0.58659005979E+03  0.00000000000E+00 0.  1.
         22    1    1    2    0    0  0.79206844685E+03 -0.14409509271E+04 -0.21628355461E+04  0.27169044146E+04  0.00000000000E+00 0.  1.
<mgrwt>
<rscale>  0 0.37805796E+04</rscale>
<asrwt>0</asrwt>
<pdfrwt beam="1">  1        2 0.50334837E+00 0.37805796E+04</pdfrwt>
<pdfrwt beam="2">  1       -2 0.16802017E+00 0.37805796E+04</pdfrwt>
<totfact> 0.20542966E-01</totfact>
</mgrwt>
</event>
<event>
 6    1  0.4630212E-004  0.7039376E+04  0.7818608E-02  0.7573388E-01
          2   -1    0    0  501    0  0.00000000000E+00  0.00000000000E+00  0.40710963003E+04  0.40710963003E+04  0.00000000000E+00 0.  1.
         -2   -1    0    0    0  501 -0.00000000000E+00 -0.00000000000E+00 -0.30429653573E+04  0.30429653573E+04  0.00000000000E+00 0. -1.
         23    2    1    2    0    0  0.98121332500E+03  0.24608478559E+04 -0.18267622619E+04  0.32193258552E+04  0.91906699435E+02 0.  0.
         11    1    3    3    0    0  0.48373147037E+03  0.11043953065E+04 -0.85736300368E+03  0.14794446419E+04  0.00000000000E+00 0. -1.
        -11    1    3    3    0    0  0.49748185463E+03  0.13564525494E+04 -0.96939925822E+03  0.17398812132E+04  0.00000000000E+00 0.  1.
         22    1    1    2    0    0 -0.98121332500E+03 -0.24608478559E+04  0.28548932050E+04  0.38947358024E+04  0.00000000000E+00 0.  1.
<mgrwt>
<rscale>  0 0.70393764E+04</rscale>
<asrwt>0</asrwt>
<pdfrwt beam="1">  1        2 0.62632251E+00 0.70393764E+04</pdfrwt>
<pdfrwt beam="2">  1       -2 0.46814852E+00 0.70393764E+04</pdfrwt>
<totfact> 0.49151484E-04</totfact>
</mgrwt>
</event>
<event>
 6    1  0.4630212E-004  0.1974755E+04  0.7818608E-02  0.8618515E-01
          2   -1    0    0  501    0  0.00000000000E+00  0.00000000000E+00  0.22757586589E+04  0.22757586589E+04  0.00000000000E+00 0.  1.
         -2   -1    0    0    0  501 -0.00000000000E+00 -0.00000000000E+00 -0.42839106728E+03  0.42839106728E+03  0.00000000000E+00 0. -1.
         23    2    1    2    0    0  0.92953391000E+03 -0.12292907381E+03  0.13402383898E+04  0.16381643255E+04  0.90545949868E+02 0.  0.
         11    1    3    3    0    0  0.73569056389E+03 -0.11682394511E+03  0.10065535176E+04  0.12522134098E+04  0.00000000000E+00 0. -1.
        -11    1    3    3    0    0  0.19384334611E+03 -0.61051286987E+01  0.33368487220E+03  0.38595091574E+03  0.00000000000E+00 0.  1.
         22    1    1    2    0    0 -0.92953391000E+03  0.12292907381E+03  0.50712920190E+03  0.10659854007E+04  0.00000000000E+00 0. -1.
<mgrwt>
<rscale>  0 0.19747554E+04</rscale>
<asrwt>0</asrwt>
<pdfrwt beam="1">  1        2 0.35011671E+00 0.19747554E+04</pdfrwt>
<pdfrwt beam="2">  1       -2 0.65906319E-01 0.19747554E+04</pdfrwt>
<totfact> 0.92322470E+00</totfact>
</mgrwt>
</event>
<event>
 6    1  0.4630212E-004  0.3455103E+04  0.7818608E-02  0.8124513E-01
         -2   -1    0    0    0  501 -0.00000000000E+00  0.00000000000E+00  0.27693166827E+04  0.27693166827E+04  0.00000000000E+00 0. -1.
          2   -1    0    0  501    0  0.00000000000E+00 -0.00000000000E+00 -0.10776791341E+04  0.10776791341E+04  0.00000000000E+00 0.  1.
         23    2    1    2    0    0 -0.97109326666E+03 -0.62742758429E+03  0.22738286210E+04  0.25525330128E+04  0.91873162053E+02 0.  0.
         11    1    3    3    0    0 -0.63063130522E+03 -0.45876348224E+03  0.15302537004E+04  0.17175087084E+04  0.00000000000E+00 0.  1.
        -11    1    3    3    0    0 -0.34046196144E+03 -0.16866410204E+03  0.74357492052E+03  0.83502430440E+03  0.00000000000E+00 0. -1.
         22    1    1    2    0    0  0.97109326666E+03  0.62742758429E+03 -0.58219107236E+03  0.12944628040E+04  0.00000000000E+00 0.  1.
<mgrwt>
<rscale>  0 0.34551034E+04</rscale>
<asrwt>0</asrwt>
<pdfrwt beam="1">  1        2 0.16579679E+00 0.34551034E+04</pdfrwt>
<pdfrwt beam="2">  1       -2 0.42604872E+00 0.34551034E+04</pdfrwt>
<totfact> 0.92664042E-02</totfact>
</mgrwt>
</event>
<event>
 6    1  0.4630212E-004  0.3656786E+04  0.7818608E-02  0.8077607E-01
          2   -1    0    0  501    0  0.00000000000E+00  0.00000000000E+00  0.23066824024E+04  0.23066824024E+04  0.00000000000E+00 0.  1.
         -2   -1    0    0    0  501 -0.00000000000E+00 -0.00000000000E+00 -0.14492769489E+04  0.14492769489E+04  0.00000000000E+00 0. -1.
         23    2    1    2    0    0  0.79345426249E+03 -0.35208863260E+03  0.20805356231E+04  0.22560981965E+04  0.88399782132E+02 0.  0.
         11    1    3    3    0    0  0.15334095116E+03 -0.10716260361E+03  0.46078221855E+03  0.49731028930E+03  0.00000000000E+00 0. -1.
        -11    1    3    3    0    0  0.64011331133E+03 -0.24492602899E+03  0.16197534045E+04  0.17587879072E+04  0.00000000000E+00 0.  1.
         22    1    1    2    0    0 -0.79345426249E+03  0.35208863260E+03 -0.12231301696E+04  0.14998611548E+04  0.00000000000E+00 0. -1.
<mgrwt>
<rscale>  0 0.36567864E+04</rscale>
<asrwt>0</asrwt>
<pdfrwt beam="1">  1        2 0.35487422E+00 0.36567864E+04</pdfrwt>
<pdfrwt beam="2">  1       -2 0.22296568E+00 0.36567864E+04</pdfrwt>
<totfact> 0.34512148E-01</totfact>
</mgrwt>
</event>
<event>
 6    1  0.5258439E-004  0.5472671E+04  0.7818608E-02  0.7759461E-01
          2   -1    0    0  501    0  0.00000000000E+00  0.00000000000E+00  0.40005907516E+04  0.40005907516E+04  0.00000000000E+00 0.  1.
         -2   -1    0    0    0  501 -0.00000000000E+00 -0.00000000000E+00 -0.18716065411E+04  0.18716065411E+04  0.00000000000E+00 0. -1.
         23    2    1    2    0    0 -0.25639010331E+04  0.26972164622E+03  0.20463606865E+04  0.32928243223E+04  0.93603869628E+02 0.  0.
         11    1    3    3    0    0 -0.11611289486E+04  0.14690788920E+03  0.87842317745E+03  0.14633624437E+04  0.00000000000E+00 0.  1.
        -11    1    3    3    0    0 -0.14027720845E+04  0.12281375702E+03  0.11679375091E+04  0.18294618786E+04  0.00000000000E+00 0. -1.
         22    1    1    2    0    0  0.25639010331E+04 -0.26972164622E+03  0.82623523957E+02  0.25793729704E+04  0.00000000000E+00 0. -1.
<mgrwt>
<rscale>  0 0.54726709E+04</rscale>
<asrwt>0</asrwt>
<pdfrwt beam="1">  1        2 0.61547550E+00 0.54726709E+04</pdfrwt>
<pdfrwt beam="2">  1       -2 0.28793947E+00 0.54726709E+04</pdfrwt>
<totfact> 0.89817351E-03</totfact>
</mgrwt>
</event>
<event>
 6    1  0.4630212E-004  0.1594194E+04  0.7818608E-02  0.8824123E-01
          2   -1    0    0  501    0  0.00000000000E+00  0.00000000000E+00  0.10819508735E+04  0.10819508735E+04  0.00000000000E+00 0.  1.
         -2   -1    0    0    0  501 -0.00000000000E+00 -0.00000000000E+00 -0.58723922619E+03  0.58723922619E+03  0.00000000000E+00 0. -1.
         23    2    1    2    0    0  0.12577826309E+03  0.23533553158E+03 -0.53525064318E+03  0.60522332213E+03  0.92730980447E+02 0.  0.
         11    1    3    3    0    0  0.66982295514E+02  0.18473051150E+03 -0.44344468074E+03  0.48503110690E+03  0.00000000000E+00 0. -1.
        -11    1    3    3    0    0  0.58795967576E+02  0.50605020086E+02 -0.91805962446E+02  0.12019221523E+03  0.00000000000E+00 0.  1.
         22    1    1    2    0    0 -0.12577826309E+03 -0.23533553158E+03  0.10299622905E+04  0.10639667776E+04  0.00000000000E+00 0.  1.
<mgrwt>
<rscale>  0 0.15941945E+04</rscale>
<asrwt>0</asrwt>
<pdfrwt beam="1">  1        2 0.16645398E+00 0.15941945E+04</pdfrwt>
<pdfrwt beam="2">  1       -2 0.90344496E-01 0.15941945E+04</pdfrwt>
<totfact> 0.22469973E+01</totfact>
</mgrwt>
</event>
<event>
 6    1  0.4630212E-004  0.4137823E+04  0.7818608E-02  0.7977306E-01
          2   -1    0    0  501    0  0.00000000000E+00  0.00000000000E+00  0.13310287173E+04  0.13310287173E+04  0.00000000000E+00 0.  1.
         -2   -1    0    0    0  501 -0.00000000000E+00 -0.00000000000E+00 -0.32158539760E+04  0.32158539760E+04  0.00000000000E+00 0. -1.
         23    2    1    2    0    0  0.19411346632E+03  0.16611147142E+04  0.39357601008E+03  0.17205609719E+04  0.91901310938E+02 0.  0.
         13    1    3    3    0    0  0.36038980583E+02  0.69703311339E+03  0.15964970692E+03  0.71599022214E+03  0.00000000000E+00 0.  1.
        -13    1    3    3    0    0  0.15807448574E+03  0.96408160079E+03  0.23392630316E+03  0.10045707498E+04  0.00000000000E+00 0. -1.
         22    1    1    2    0    0 -0.19411346632E+03 -0.16611147142E+04 -0.22784012688E+04  0.28263217214E+04  0.00000000000E+00 0. -1.
<mgrwt>
<rscale>  0 0.41378226E+04</rscale>
<asrwt>0</asrwt>
<pdfrwt beam="1">  1        2 0.20477365E+00 0.41378226E+04</pdfrwt>
<pdfrwt beam="2">  1       -2 0.49474676E+00 0.41378226E+04</pdfrwt>
<totfact> 0.22047374E-02</totfact>
</mgrwt>
</event>
<event>
 6    1  0.4630212E-004  0.2664266E+04  0.7818608E-02  0.8346693E-01
         -2   -1    0    0    0  501 -0.00000000000E+00  0.00000000000E+00  0.17802536455E+04  0.17802536455E+04  0.00000000000E+00 0. -1.
          2   -1    0    0  501    0  0.00000000000E+00 -0.00000000000E+00 -0.99681198978E+03  0.99681198978E+03  0.00000000000E+00 0.  1.
         23    2    1    2    0    0  0.63644702467E+03 -0.10580111626E+03  0.16050853995E+04  0.17323852377E+04  0.92740393854E+02 0.  0.
         11    1    3    3    0    0  0.72304863612E+02 -0.37822395558E+02  0.16022540251E+03  0.17980741508E+03  0.00000000000E+00 0. -1.
        -11    1    3    3    0    0  0.56414216106E+03 -0.67978720699E+02  0.14448599970E+04  0.15525778226E+04  0.00000000000E+00 0.  1.
         22    1    1    2    0    0 -0.63644702467E+03  0.10580111626E+03 -0.82164374378E+03  0.10446803976E+04  0.00000000000E+00 0.  1.
<mgrwt>
<rscale>  0 0.26642659E+04</rscale>
<asrwt>0</asrwt>
<pdfrwt beam="1">  1        2 0.15335569E+00 0.26642659E+04</pdfrwt>
<pdfrwt beam="2">  1       -2 0.27388518E+00 0.26642659E+04</pdfrwt>
<totfact> 0.10218424E+00</totfact>
</mgrwt>
</event>
<event>
 6    1  0.4630212E-004  0.9713740E+03  0.7818608E-02  0.9340511E-01
         -2   -1    0    0    0  501 -0.00000000000E+00  0.00000000000E+00  0.26004287768E+03  0.26004287768E+03  0.00000000000E+00 0. -1.
          2   -1    0    0  501    0  0.00000000000E+00 -0.00000000000E+00 -0.90712677888E+03  0.90712677888E+03  0.00000000000E+00 0.  1.
         23    2    1    2    0    0  0.27202266136E+03  0.26020966703E+03 -0.68696235934E+03  0.78862548405E+03  0.91145333629E+02 0.  0.
         13    1    3    3    0    0  0.75381821901E+02  0.84088375361E+02 -0.29670957549E+03  0.31747416608E+03  0.00000000000E+00 0. -1.
        -13    1    3    3    0    0  0.19664083946E+03  0.17612129167E+03 -0.39025278385E+03  0.47115131797E+03  0.00000000000E+00 0.  1.
         22    1    1    2    0    0 -0.27202266136E+03 -0.26020966703E+03  0.39878458135E+02  0.37854417250E+03  0.00000000000E+00 0. -1.
<mgrwt>
<rscale>  0 0.97137399E+03</rscale>
<asrwt>0</asrwt>
<pdfrwt beam="1">  1        2 0.13955797E+00 0.97137399E+03</pdfrwt>
<pdfrwt beam="2">  1       -2 0.40006596E-01 0.97137399E+03</pdfrwt>
<totfact> 0.17126955E+02</totfact>
</mgrwt>
</event>
<event>
 6    1  0.5421799E-004  0.3469321E+04  0.7818608E-02  0.8121099E-01
         -1   -1    0    0    0  501 -0.00000000000E+00  0.00000000000E+00  0.14822902949E+04  0.14822902949E+04  0.00000000000E+00 0. -1.
          1   -1    0    0  501    0  0.00000000000E+00 -0.00000000000E+00 -0.20299985955E+04  0.20299985955E+04  0.00000000000E+00 0.  1.
         23    2    1    2    0    0  0.35436744280E+03  0.16611048760E+04 -0.62461897848E+03  0.18120650976E+04  0.92657196708E+02 0.  0.
         13    1    3    3    0    0  0.96051766926E+02  0.36818431961E+03 -0.10339606187E+03  0.39430493371E+03  0.00000000000E+00 0.  1.
        -13    1    3    3    0    0  0.25831567587E+03  0.12929205563E+04 -0.52122291662E+03  0.14177601639E+04  0.00000000000E+00 0. -1.
         22    1    1    2    0    0 -0.35436744280E+03 -0.16611048760E+04  0.76910677809E+02  0.17002237929E+04  0.00000000000E+00 0. -1.
<mgrwt>
<rscale>  0 0.34693211E+04</rscale>
<asrwt>0</asrwt>
<pdfrwt beam="1">  1        1 0.31230748E+00 0.34693211E+04</pdfrwt>
<pdfrwt beam="2">  1       -1 0.22804466E+00 0.34693211E+04</pdfrwt>
<totfact> 0.22621592E-01</totfact>
</mgrwt>
</event>
<event>
 6    1  0.4630212E-004  0.2775271E+04  0.7818608E-02  0.8310987E-01
         -2   -1    0    0    0  501 -0.00000000000E+00  0.00000000000E+00  0.68897351475E+03  0.68897351475E+03  0.00000000000E+00 0. -1.
          2   -1    0    0  501    0  0.00000000000E+00 -0.00000000000E+00 -0.27947840597E+04  0.27947840597E+04  0.00000000000E+00 0.  1.
         23    2    1    2    0    0  0.50408080962E+03  0.10109512006E+03 -0.26698922286E+04  0.27205368779E+04  0.93159569417E+02 0.  0.
         13    1    3    3    0    0  0.26491878802E+03  0.72748918339E+02 -0.16407099445E+04  0.16635514694E+04  0.00000000000E+00 0. -1.
        -13    1    3    3    0    0  0.23916202161E+03  0.28346201725E+02 -0.10291822841E+04  0.10569854084E+04  0.00000000000E+00 0.  1.
         22    1    1    2    0    0 -0.50408080962E+03 -0.10109512006E+03  0.56408168365E+03  0.76322069663E+03  0.00000000000E+00 0. -1.
<mgrwt>
<rscale>  0 0.27752709E+04</rscale>
<asrwt>0</asrwt>
<pdfrwt beam="1">  1        2 0.42996679E+00 0.27752709E+04</pdfrwt>
<pdfrwt beam="2">  1       -2 0.10599592E+00 0.27752709E+04</pdfrwt>
<totfact> 0.14588702E+00</totfact>
</mgrwt>
</event>
<event>
 6    1  0.4630212E-004  0.2170613E+04  0.7818608E-02  0.8530760E-01
          2   -1    0    0  501    0  0.00000000000E+00  0.00000000000E+00  0.13019780475E+04  0.13019780475E+04  0.00000000000E+00 0.  1.
         -2   -1    0    0    0  501 -0.00000000000E+00 -0.00000000000E+00 -0.90469258671E+03  0.90469258671E+03  0.00000000000E+00 0. -1.
         23    2    1    2    0    0 -0.86037911224E+03 -0.64634637914E+03  0.71005572373E+02  0.10821821175E+04  0.89780206640E+02 0.  0.
         11    1    3    3    0    0 -0.26352946746E+03 -0.16020865313E+03 -0.67976755789E+01  0.30848144377E+03  0.00000000000E+00 0. -1.
        -11    1    3    3    0    0 -0.59684964478E+03 -0.48613772602E+03  0.77803247952E+02  0.77370067372E+03  0.00000000000E+00 0.  1.
         22    1    1    2    0    0  0.86037911224E+03  0.64634637914E+03  0.32627988839E+03  0.11244885167E+04  0.00000000000E+00 0.  1.
<mgrwt>
<rscale>  0 0.21706127E+04</rscale>
<asrwt>0</asrwt>
<pdfrwt beam="1">  1        2 0.20030431E+00 0.21706127E+04</pdfrwt>
<pdfrwt beam="2">  1       -2 0.13918348E+00 0.21706127E+04</pdfrwt>
<totfact> 0.55096842E+00</totfact>
</mgrwt>
</event>
<event>
 6    1  0.4630212E-004  0.1719792E+04  0.7818608E-02  0.8750156E-01
         -2   -1    0    0    0  501 -0.00000000000E+00  0.00000000000E+00  0.96910296520E+03  0.96910296520E+03  0.00000000000E+00 0. -1.
          2   -1    0    0  501    0  0.00000000000E+00 -0.00000000000E+00 -0.76299586873E+03  0.76299586873E+03  0.00000000000E+00 0.  1.
         23    2    1    2    0    0 -0.21962073607E+03 -0.35736469274E+03  0.85654467302E+03  0.95814028704E+03  0.91767322306E+02 0.  0.
         13    1    3    3    0    0 -0.10817193418E+03 -0.94340100054E+02  0.29976747502E+03  0.33235788076E+03  0.00000000000E+00 0.  1.
        -13    1    3    3    0    0 -0.11144880189E+03 -0.26302459268E+03  0.55677719800E+03  0.62578240628E+03  0.00000000000E+00 0. -1.
         22    1    1    2    0    0  0.21962073607E+03  0.35736469274E+03 -0.65043757654E+03  0.77395854689E+03  0.00000000000E+00 0.  1.
<mgrwt>
<rscale>  0 0.17197925E+04</rscale>
<asrwt>0</asrwt>
<pdfrwt beam="1">  1        2 0.11738398E+00 0.17197925E+04</pdfrwt>
<pdfrwt beam="2">  1       -2 0.14909276E+00 0.17197925E+04</pdfrwt>
<totfact> 0.10602852E+01</totfact>
</mgrwt>
</event>
<event>
 6    1  0.4630212E-004  0.2851899E+04  0.7818608E-02  0.8287335E-01
          2   -1    0    0  501    0  0.00000000000E+00  0.00000000000E+00  0.51025660616E+04  0.51025660616E+04  0.00000000000E+00 0.  1.
         -2   -1    0    0    0  501 -0.00000000000E+00 -0.00000000000E+00 -0.39849193781E+03  0.39849193781E+03  0.00000000000E+00 0. -1.
         23    2    1    2    0    0 -0.54200463120E+03 -0.61081145106E+03  0.46060631656E+04  0.46785825913E+04  0.80358754778E+02 0.  0.
         13    1    3    3    0    0 -0.17214904260E+03 -0.16355619825E+03  0.15170363255E+04  0.15355081034E+04  0.00000000000E+00 0. -1.
        -13    1    3    3    0    0 -0.36985558860E+03 -0.44725525281E+03  0.30890268401E+04  0.31430744879E+04  0.00000000000E+00 0.  1.
         22    1    1    2    0    0  0.54200463120E+03  0.61081145106E+03  0.98010958211E+02  0.82247540810E+03  0.00000000000E+00 0. -1.
<mgrwt>
<rscale>  0 0.28518986E+04</rscale>
<asrwt>0</asrwt>
<pdfrwt beam="1">  1        2 0.78501012E+00 0.28518986E+04</pdfrwt>
<pdfrwt beam="2">  1       -2 0.61306456E-01 0.28518986E+04</pdfrwt>
<totfact> 0.54193387E-02</totfact>
</mgrwt>
</event>
<event>
 6    1  0.4630212E-004  0.5617515E+04  0.7818608E-02  0.7739723E-01
         -2   -1    0    0    0  501 -0.00000000000E+00  0.00000000000E+00  0.26255092138E+04  0.26255092138E+04  0.00000000000E+00 0. -1.
          2   -1    0    0  501    0  0.00000000000E+00 -0.00000000000E+00 -0.30047954619E+04  0.30047954619E+04  0.00000000000E+00 0.  1.
         23    2    1    2    0    0  0.74086310538E+03 -0.31159964145E+03 -0.28863682630E+04  0.29975432533E+04  0.90395397606E+02 0.  0.
         13    1    3    3    0    0  0.38840480370E+03 -0.13858414807E+03 -0.16227662267E+04  0.16743458675E+04  0.00000000000E+00 0.  1.
        -13    1    3    3    0    0  0.35245830168E+03 -0.17301549339E+03 -0.12636020364E+04  0.13231973858E+04  0.00000000000E+00 0. -1.
         22    1    1    2    0    0 -0.74086310538E+03  0.31159964145E+03  0.25070820150E+04  0.26327614224E+04  0.00000000000E+00 0. -1.
<mgrwt>
<rscale>  0 0.56175148E+04</rscale>
<asrwt>0</asrwt>
<pdfrwt beam="1">  1        2 0.46227622E+00 0.56175148E+04</pdfrwt>
<pdfrwt beam="2">  1       -2 0.40392450E+00 0.56175148E+04</pdfrwt>
<totfact> 0.83938421E-03</totfact>
</mgrwt>
</event>
<event>
 6    1  0.4630212E-004  0.1274096E+04  0.7818608E-02  0.9050363E-01
          2   -1    0    0  501    0  0.00000000000E+00  0.00000000000E+00  0.11388063934E+04  0.11388063934E+04  0.00000000000E+00 0. -1.
         -2   -1    0    0    0  501 -0.00000000000E+00 -0.00000000000E+00 -0.35636450429E+03  0.35636450429E+03  0.00000000000E+00 0.  1.
         23    2    1    2    0    0  0.19465211881E+03 -0.49089081595E+03  0.80431029536E+03  0.96664325627E+03  0.92848764818E+02 0.  0.
         13    1    3    3    0    0  0.14341362787E+03 -0.24706075604E+03  0.46368720363E+03  0.54462125247E+03  0.00000000000E+00 0. -1.
        -13    1    3    3    0    0  0.51238490933E+02 -0.24383005990E+03  0.34062309173E+03  0.42202200379E+03  0.00000000000E+00 0.  1.
         22    1    1    2    0    0 -0.19465211881E+03  0.49089081595E+03 -0.21868406276E+02  0.52852764140E+03  0.00000000000E+00 0.  1.
<mgrwt>
<rscale>  0 0.12740960E+04</rscale>
<asrwt>0</asrwt>
<pdfrwt beam="1">  1        2 0.17520098E+00 0.12740960E+04</pdfrwt>
<pdfrwt beam="2">  1       -2 0.54825309E-01 0.12740960E+04</pdfrwt>
<totfact> 0.63369907E+01</totfact>
</mgrwt>
</event>
<event>
 6    1  0.4723962E-004  0.1089290E+04  0.7818608E-02  0.9215694E-01
         -2   -1    0    0    0  501 -0.00000000000E+00  0.00000000000E+00  0.25005463478E+03  0.25005463478E+03  0.00000000000E+00 0. -1.
          2   -1    0    0  501    0  0.00000000000E+00 -0.00000000000E+00 -0.11862925615E+04  0.11862925615E+04  0.00000000000E+00 0.  1.
         23    2    1    2    0    0 -0.11703383824E+03  0.22609783867E+03 -0.11004293352E+04  0.11334017053E+04  0.94008254127E+02 0.  0.
         13    1    3    3    0    0 -0.11363869590E+03  0.15948229983E+03 -0.67709397779E+03  0.70484367906E+03  0.00000000000E+00 0.  1.
        -13    1    3    3    0    0 -0.33951423431E+01  0.66615538841E+02 -0.42333535737E+03  0.42855802619E+03  0.00000000000E+00 0. -1.
         22    1    1    2    0    0  0.11703383824E+03 -0.22609783867E+03  0.16419140842E+03  0.30294549105E+03  0.00000000000E+00 0. -1.
<mgrwt>
<rscale>  0 0.10892896E+04</rscale>
<asrwt>0</asrwt>
<pdfrwt beam="1">  1        2 0.18250655E+00 0.10892896E+04</pdfrwt>
<pdfrwt beam="2">  1       -2 0.38469943E-01 0.10892896E+04</pdfrwt>
<totfact> 0.12228979E+02</totfact>
</mgrwt>
</event>
<event>
 6    1  0.4630212E-004  0.2192693E+04  0.7818608E-02  0.8521476E-01
         -2   -1    0    0    0  501 -0.00000000000E+00  0.00000000000E+00  0.10034000236E+04  0.10034000236E+04  0.00000000000E+00 0. -1.
          2   -1    0    0  501    0  0.00000000000E+00 -0.00000000000E+00 -0.11979029627E+04  0.11979029627E+04  0.00000000000E+00 0.  1.
         23    2    1    2    0    0 -0.66412801901E+03 -0.12075250717E+03  0.76730311115E+03  0.10262633819E+04  0.93889675215E+02 0.  0.
         13    1    3    3    0    0 -0.10251180012E+03 -0.30066871863E+02  0.17482994222E+03  0.20488580880E+03  0.00000000000E+00 0.  1.
        -13    1    3    3    0    0 -0.56161621889E+03 -0.90685635304E+02  0.59247316892E+03  0.82137757315E+03  0.00000000000E+00 0. -1.
         22    1    1    2    0    0  0.66412801901E+03  0.12075250717E+03 -0.96180605025E+03  0.11750396044E+04  0.00000000000E+00 0.  1.
<mgrwt>
<rscale>  0 0.21926932E+04</rscale>
<asrwt>0</asrwt>
<pdfrwt beam="1">  1        2 0.18429276E+00 0.21926932E+04</pdfrwt>
<pdfrwt beam="2">  1       -2 0.15436924E+00 0.21926932E+04</pdfrwt>
<totfact> 0.48221167E+00</totfact>
</mgrwt>
</event>
<event>
 6    1  0.4630212E-004  0.2312430E+04  0.7818608E-02  0.8473036E-01
          2   -1    0    0  501    0  0.00000000000E+00  0.00000000000E+00  0.12078762381E+04  0.12078762381E+04  0.00000000000E+00 0.  1.
         -2   -1    0    0    0  501 -0.00000000000E+00 -0.00000000000E+00 -0.11067630419E+04  0.11067630419E+04  0.00000000000E+00 0. -1.
         23    2    1    2    0    0  0.12211809524E+03  0.82376137927E+03 -0.74974817765E+03  0.11240676876E+04  0.88939289880E+02 0.  0.
         11    1    3    3    0    0  0.76143381066E+02  0.60295483391E+03 -0.59519571974E+03  0.85065286164E+03  0.00000000000E+00 0. -1.
        -11    1    3    3    0    0  0.45974714175E+02  0.22080654536E+03 -0.15455245791E+03  0.27341482597E+03  0.00000000000E+00 0.  1.
         22    1    1    2    0    0 -0.12211809524E+03 -0.82376137927E+03  0.85086137379E+03  0.11905715924E+04  0.00000000000E+00 0.  1.
<mgrwt>
<rscale>  0 0.23124297E+04</rscale>
<asrwt>0</asrwt>
<pdfrwt beam="1">  1        2 0.18582711E+00 0.23124297E+04</pdfrwt>
<pdfrwt beam="2">  1       -2 0.17027124E+00 0.23124297E+04</pdfrwt>
<totfact> 0.36008542E+00</totfact>
</mgrwt>
</event>
<event>
 6    1  0.4630212E-004  0.4041036E+04  0.7818608E-02  0.7996319E-01
         -1   -1    0    0    0  501 -0.00000000000E+00  0.00000000000E+00  0.22811297227E+04  0.22811297227E+04  0.00000000000E+00 0. -1.
          1   -1    0    0  501    0  0.00000000000E+00 -0.00000000000E+00 -0.17896799976E+04  0.17896799976E+04  0.00000000000E+00 0.  1.
         23    2    1    2    0    0  0.10506733495E+04  0.45614889524E+03  0.19213519483E+04  0.22387052828E+04  0.90673765878E+02 0.  0.
         13    1    3    3    0    0  0.30251593737E+03  0.17487395354E+03  0.60800165895E+03  0.70125801905E+03  0.00000000000E+00 0. -1.
        -13    1    3    3    0    0  0.74815741209E+03  0.28127494170E+03  0.13133502894E+04  0.15374472637E+04  0.00000000000E+00 0.  1.
         22    1    1    2    0    0 -0.10506733495E+04 -0.45614889524E+03 -0.14299022233E+04  0.18321044375E+04  0.00000000000E+00 0.  1.
<mgrwt>
<rscale>  0 0.40410356E+04</rscale>
<asrwt>0</asrwt>
<pdfrwt beam="1">  1        1 0.27533538E+00 0.40410356E+04</pdfrwt>
<pdfrwt beam="2">  1       -1 0.35094303E+00 0.40410356E+04</pdfrwt>
<totfact> 0.49446206E-02</totfact>
</mgrwt>
</event>
<event>
 6    1  0.4630212E-004  0.2876104E+04  0.7818608E-02  0.8280023E-01
          2   -1    0    0  501    0  0.00000000000E+00  0.00000000000E+00  0.13449763802E+04  0.13449763802E+04  0.00000000000E+00 0.  1.
         -2   -1    0    0    0  501 -0.00000000000E+00 -0.00000000000E+00 -0.15375682981E+04  0.15375682981E+04  0.00000000000E+00 0. -1.
         23    2    1    2    0    0  0.86075019491E+03  0.11112269641E+04  0.20091833431E+03  0.14228986314E+04  0.92499051483E+02 0.  0.
         11    1    3    3    0    0  0.46338953280E+03  0.52697936278E+03  0.11559907775E+03  0.71119635452E+03  0.00000000000E+00 0. -1.
        -11    1    3    3    0    0  0.39736066210E+03  0.58424760131E+03  0.85319256560E+02  0.71170227692E+03  0.00000000000E+00 0.  1.
         22    1    1    2    0    0 -0.86075019491E+03 -0.11112269641E+04 -0.39351025221E+03  0.14596460469E+04  0.00000000000E+00 0.  1.
<mgrwt>
<rscale>  0 0.28761036E+04</rscale>
<asrwt>0</asrwt>
<pdfrwt beam="1">  1        2 0.20691945E+00 0.28761036E+04</pdfrwt>
<pdfrwt beam="2">  1       -2 0.23654897E+00 0.28761036E+04</pdfrwt>
<totfact> 0.10475252E+00</totfact>
</mgrwt>
</event>
<event>
 6    1  0.4630212E-004  0.2772193E+04  0.7818608E-02  0.8311954E-01
          2   -1    0    0  501    0  0.00000000000E+00  0.00000000000E+00  0.16473606586E+04  0.16473606586E+04  0.00000000000E+00 0.  1.
         -2   -1    0    0    0  501 -0.00000000000E+00 -0.00000000000E+00 -0.11662677799E+04  0.11662677799E+04  0.00000000000E+00 0. -1.
         23    2    1    2    0    0 -0.12353015728E+04  0.42883207813E+03 -0.22118486922E+03  0.13293572496E+04  0.91657097237E+02 0.  0.
         13    1    3    3    0    0 -0.95633942764E+02  0.82145514255E+01 -0.18617603703E+02  0.97774971395E+02  0.00000000000E+00 0. -1.
        -13    1    3    3    0    0 -0.11396676301E+04  0.42061752671E+03 -0.20256726552E+03  0.12315822782E+04  0.00000000000E+00 0.  1.
         22    1    1    2    0    0  0.12353015728E+04 -0.42883207813E+03  0.70227774789E+03  0.14842711889E+04  0.00000000000E+00 0.  1.
<mgrwt>
<rscale>  0 0.27721931E+04</rscale>
<asrwt>0</asrwt>
<pdfrwt beam="1">  1        2 0.25344010E+00 0.27721931E+04</pdfrwt>
<pdfrwt beam="2">  1       -2 0.17942581E+00 0.27721931E+04</pdfrwt>
<totfact> 0.16747994E+00</totfact>
</mgrwt>
</event>
<event>
 6    1  0.4630212E-004  0.1048624E+04  0.7818608E-02  0.9256766E-01
          2   -1    0    0  501    0  0.00000000000E+00  0.00000000000E+00  0.12267028452E+04  0.12267028452E+04  0.00000000000E+00 0.  1.
         -2   -1    0    0    0  501 -0.00000000000E+00 -0.00000000000E+00 -0.22409900693E+03  0.22409900693E+03  0.00000000000E+00 0. -1.
         23    2    1    2    0    0  0.68531734109E+02 -0.43922651213E+03  0.13137088268E+03  0.47271014352E+03  0.92628523890E+02 0.  0.
         13    1    3    3    0    0  0.46110931135E+02 -0.83326923933E+02  0.88514786854E+01  0.95644879096E+02  0.00000000000E+00 0. -1.
        -13    1    3    3    0    0  0.22420802974E+02 -0.35589958819E+03  0.12251940399E+03  0.37706526443E+03  0.00000000000E+00 0.  1.
         22    1    1    2    0    0 -0.68531734109E+02  0.43922651213E+03  0.87123295558E+03  0.97809170859E+03  0.00000000000E+00 0.  1.
<mgrwt>
<rscale>  0 0.10486236E+04</rscale>
<asrwt>0</asrwt>
<pdfrwt beam="1">  1        2 0.18872351E+00 0.10486236E+04</pdfrwt>
<pdfrwt beam="2">  1       -2 0.34476771E-01 0.10486236E+04</pdfrwt>
<totfact> 0.14319472E+02</totfact>
</mgrwt>
</event>
<event>
 6    1  0.4630212E-004  0.3432830E+04  0.7818608E-02  0.8129896E-01
          2   -1    0    0  501    0  0.00000000000E+00  0.00000000000E+00  0.43054927068E+04  0.43054927068E+04  0.00000000000E+00 0.  1.
         -2   -1    0    0    0  501 -0.00000000000E+00 -0.00000000000E+00 -0.68426077992E+03  0.68426077992E+03  0.00000000000E+00 0. -1.
         23    2    1    2    0    0  0.16742980705E+04  0.37237952871E+03  0.17987447665E+04  0.24870749232E+04  0.90102143101E+02 0.  0.
         13    1    3    3    0    0  0.85043379084E+03  0.19536912279E+03  0.97964725423E+03  0.13119129047E+04  0.00000000000E+00 0.  1.
        -13    1    3    3    0    0  0.82386427970E+03  0.17701040591E+03  0.81909751223E+03  0.11751620185E+04  0.00000000000E+00 0. -1.
         22    1    1    2    0    0 -0.16742980705E+04 -0.37237952871E+03  0.18224871604E+04  0.25026785635E+04  0.00000000000E+00 0.  1.
<mgrwt>
<rscale>  0 0.34328296E+04</rscale>
<asrwt>0</asrwt>
<pdfrwt beam="1">  1        2 0.66238348E+00 0.34328296E+04</pdfrwt>
<pdfrwt beam="2">  1       -2 0.10527089E+00 0.34328296E+04</pdfrwt>
<totfact> 0.11279059E-01</totfact>
</mgrwt>
</event>
<event>
 6    1  0.4931431E-004  0.3278850E+04  0.7818608E-02  0.8168298E-01
          2   -1    0    0  501    0  0.00000000000E+00  0.00000000000E+00  0.22658255239E+04  0.22658255239E+04  0.00000000000E+00 0.  1.
         -2   -1    0    0    0  501 -0.00000000000E+00 -0.00000000000E+00 -0.11861965708E+04  0.11861965708E+04  0.00000000000E+00 0. -1.
         23    2    1    2    0    0 -0.16236847394E+04 -0.12501308251E+03  0.72723957453E+03  0.17858412288E+04  0.91493670684E+02 0.  0.
         11    1    3    3    0    0 -0.81563247974E+03 -0.26711351872E+02  0.33314581303E+03  0.88145105994E+03  0.00000000000E+00 0. -1.
        -11    1    3    3    0    0 -0.80805225967E+03 -0.98301730637E+02  0.39409376151E+03  0.90439016883E+03  0.00000000000E+00 0.  1.
         22    1    1    2    0    0  0.16236847394E+04  0.12501308251E+03  0.35238937861E+03  0.16661808659E+04  0.00000000000E+00 0. -1.
<mgrwt>
<rscale>  0 0.32788501E+04</rscale>
<asrwt>0</asrwt>
<pdfrwt beam="1">  1        2 0.34858854E+00 0.32788501E+04</pdfrwt>
<pdfrwt beam="2">  1       -2 0.18249178E+00 0.32788501E+04</pdfrwt>
<totfact> 0.69126900E-01</totfact>
</mgrwt>
</event>
<event>
 6    1  0.4630212E-004  0.2941820E+04  0.7818608E-02  0.8260543E-01
          2   -1    0    0  501    0  0.00000000000E+00  0.00000000000E+00  0.14581533976E+04  0.14581533976E+04  0.00000000000E+00 0. -1.
         -2   -1    0    0    0  501 -0.00000000000E+00 -0.00000000000E+00 -0.14837778506E+04  0.14837778506E+04  0.00000000000E+00 0.  1.
         23    2    1    2    0    0 -0.79598060287E+03 -0.85814680641E+03 -0.90139366672E+03  0.14800924140E+04  0.90343511853E+02 0.  0.
         13    1    3    3    0    0 -0.65135079984E+03 -0.67571873842E+03 -0.68162501172E+03  0.11599423841E+04  0.00000000000E+00 0.  1.
        -13    1    3    3    0    0 -0.14462980303E+03 -0.18242806799E+03 -0.21976865500E+03  0.32015002989E+03  0.00000000000E+00 0. -1.
         22    1    1    2    0    0  0.79598060287E+03  0.85814680641E+03  0.87576921376E+03  0.14618388342E+04  0.00000000000E+00 0. -1.
<mgrwt>
<rscale>  0 0.29418197E+04</rscale>
<asrwt>0</asrwt>
<pdfrwt beam="1">  1        2 0.22433129E+00 0.29418197E+04</pdfrwt>
<pdfrwt beam="2">  1       -2 0.22827352E+00 0.29418197E+04</pdfrwt>
<totfact> 0.10108033E+00</totfact>
</mgrwt>
</event>
<event>
 6    1  0.4630212E-004  0.4054725E+04  0.7818608E-02  0.7993597E-01
         -2   -1    0    0    0  501 -0.00000000000E+00  0.00000000000E+00  0.98978851988E+03  0.98978851988E+03  0.00000000000E+00 0. -1.
          2   -1    0    0  501    0  0.00000000000E+00 -0.00000000000E+00 -0.41526022574E+04  0.41526022574E+04  0.00000000000E+00 0.  1.
         23    2    1    2    0    0 -0.16679327639E+03  0.18814385371E+04 -0.25129480392E+04  0.31449032575E+04  0.88756324904E+02 0.  0.
         13    1    3    3    0    0 -0.14495454362E+03  0.11460643408E+04 -0.15397444567E+04  0.19249125396E+04  0.00000000000E+00 0. -1.
        -13    1    3    3    0    0 -0.21838732768E+02  0.73537419628E+03 -0.97320358250E+03  0.12199907179E+04  0.00000000000E+00 0.  1.
         22    1    1    2    0    0  0.16679327639E+03 -0.18814385371E+04 -0.64986569829E+03  0.19974875198E+04  0.00000000000E+00 0.  1.
<mgrwt>
<rscale>  0 0.40547247E+04</rscale>
<asrwt>0</asrwt>
<pdfrwt beam="1">  1        2 0.63886190E+00 0.40547247E+04</pdfrwt>
<pdfrwt beam="2">  1       -2 0.15227515E+00 0.40547247E+04</pdfrwt>
<totfact> 0.57485719E-02</totfact>
</mgrwt>
</event>
<event>
 6    1  0.4630212E-004  0.3635035E+04  0.7818608E-02  0.8082513E-01
         -2   -1    0    0    0  501 -0.00000000000E+00  0.00000000000E+00  0.18554969555E+04  0.18554969555E+04  0.00000000000E+00 0. -1.
          2   -1    0    0  501    0  0.00000000000E+00 -0.00000000000E+00 -0.17803158628E+04  0.17803158628E+04  0.00000000000E+00 0.  1.
         23    2    1    2    0    0 -0.15219207058E+04 -0.87706068088E+03  0.49961526007E+03  0.18287094911E+04  0.95314857430E+02 0.  0.
         11    1    3    3    0    0 -0.13343139372E+03 -0.97705254329E+02  0.69405655960E+02  0.17935272129E+03  0.00000000000E+00 0. -1.
        -11    1    3    3    0    0 -0.13884893121E+04 -0.77935542656E+03  0.43020960411E+03  0.16493567698E+04  0.00000000000E+00 0.  1.
         22    1    1    2    0    0  0.15219207058E+04  0.87706068088E+03 -0.42443416740E+03  0.18071033272E+04  0.00000000000E+00 0.  1.
<mgrwt>
<rscale>  0 0.36350354E+04</rscale>
<asrwt>0</asrwt>
<pdfrwt beam="1">  1        2 0.27389475E+00 0.36350354E+04</pdfrwt>
<pdfrwt beam="2">  1       -2 0.28546107E+00 0.36350354E+04</pdfrwt>
<totfact> 0.28047694E-01</totfact>
</mgrwt>
</event>
<event>
 6    1  0.4630212E-004  0.2756195E+04  0.7818608E-02  0.8316998E-01
          2   -1    0    0  501    0  0.00000000000E+00  0.00000000000E+00  0.28458053158E+04  0.28458053158E+04  0.00000000000E+00 0.  1.
         -2   -1    0    0    0  501 -0.00000000000E+00 -0.00000000000E+00 -0.66735171450E+03  0.66735171450E+03  0.00000000000E+00 0. -1.
         23    2    1    2    0    0 -0.53094892609E+03  0.52716625910E+03 -0.38238986517E+03  0.84524955691E+03  0.91726646204E+02 0.  0.
         11    1    3    3    0    0 -0.22721899993E+03  0.17511462318E+03 -0.11644479799E+03  0.30960135039E+03  0.00000000000E+00 0. -1.
        -11    1    3    3    0    0 -0.30372992616E+03  0.35205163591E+03 -0.26594506717E+03  0.53564820652E+03  0.00000000000E+00 0.  1.
         22    1    1    2    0    0  0.53094892609E+03 -0.52716625910E+03  0.25608434665E+04  0.26679074734E+04  0.00000000000E+00 0.  1.
<mgrwt>
<rscale>  0 0.27561952E+04</rscale>
<asrwt>0</asrwt>
<pdfrwt beam="1">  1        2 0.43781620E+00 0.27561952E+04</pdfrwt>
<pdfrwt beam="2">  1       -2 0.10266950E+00 0.27561952E+04</pdfrwt>
<totfact> 0.14686599E+00</totfact>
</mgrwt>
</event>
<event>
 6    1  0.4630212E-004  0.2861710E+04  0.7818608E-02  0.8284362E-01
          2   -1    0    0  501    0  0.00000000000E+00  0.00000000000E+00  0.15245170294E+04  0.15245170294E+04  0.00000000000E+00 0.  1.
         -2   -1    0    0    0  501 -0.00000000000E+00 -0.00000000000E+00 -0.13429471071E+04  0.13429471071E+04  0.00000000000E+00 0. -1.
         23    2    1    2    0    0  0.62697454248E+03 -0.10103809937E+04 -0.70379651249E+03  0.13849525672E+04  0.93793672592E+02 0.  0.
         13    1    3    3    0    0  0.28855731854E+03 -0.37812066334E+03 -0.28422394944E+03  0.55409729792E+03  0.00000000000E+00 0. -1.
        -13    1    3    3    0    0  0.33841722394E+03 -0.63226033031E+03 -0.41957256305E+03  0.83085526923E+03  0.00000000000E+00 0.  1.
         22    1    1    2    0    0 -0.62697454248E+03  0.10103809937E+04  0.88536643483E+03  0.14825115693E+04  0.00000000000E+00 0. -1.
<mgrwt>
<rscale>  0 0.28617098E+04</rscale>
<asrwt>0</asrwt>
<pdfrwt beam="1">  1        2 0.23454108E+00 0.28617098E+04</pdfrwt>
<pdfrwt beam="2">  1       -2 0.20660725E+00 0.28617098E+04</pdfrwt>
<totfact> 0.12821658E+00</totfact>
</mgrwt>
</event>
<event>
 6    1  0.4630212E-004  0.2009410E+04  0.7818608E-02  0.8602234E-01
          2   -1    0    0  501    0  0.00000000000E+00  0.00000000000E+00  0.11161747991E+04  0.11161747991E+04  0.00000000000E+00 0.  1.
         -2   -1    0    0    0  501 -0.00000000000E+00 -0.00000000000E+00 -0.90436781069E+03  0.90436781069E+03  0.00000000000E+00 0. -1.
         23    2    1    2    0    0 -0.84456227895E+03  0.42321887288E+03  0.44383806415E+03  0.10477949151E+04  0.92099400210E+02 0.  0.
         11    1    3    3    0    0 -0.76089784872E+03  0.38210798178E+03  0.36779660723E+03  0.92749468474E+03  0.00000000000E+00 0. -1.
        -11    1    3    3    0    0 -0.83664430229E+02  0.41110891104E+02  0.76041456926E+02  0.12030023036E+03  0.00000000000E+00 0.  1.
         22    1    1    2    0    0  0.84456227895E+03 -0.42321887288E+03 -0.23203107576E+03  0.97274769468E+03  0.00000000000E+00 0. -1.
<mgrwt>
<rscale>  0 0.20094104E+04</rscale>
<asrwt>0</asrwt>
<pdfrwt beam="1">  1        2 0.17171920E+00 0.20094104E+04</pdfrwt>
<pdfrwt beam="2">  1       -2 0.13913351E+00 0.20094104E+04</pdfrwt>
<totfact> 0.72151815E+00</totfact>
</mgrwt>
</event>
<event>
 6    1  0.7910638E-004  0.4219357E+04  0.7818608E-02  0.7961700E-01
         -2   -1    0    0    0  501 -0.00000000000E+00  0.00000000000E+00  0.16341436878E+04  0.16341436878E+04  0.00000000000E+00 0. -1.
          2   -1    0    0  501    0  0.00000000000E+00 -0.00000000000E+00 -0.27235931313E+04  0.27235931313E+04  0.00000000000E+00 0.  1.
         23    2    1    2    0    0 -0.14876506356E+03 -0.31058253658E+03 -0.26935964444E+04  0.27170417967E+04  0.90894242834E+02 0.  0.
         11    1    3    3    0    0 -0.19267285458E+02 -0.12227605439E+03 -0.11452363812E+04  0.11519066935E+04  0.00000000000E+00 0.  1.
        -11    1    3    3    0    0 -0.12949777810E+03 -0.18830648219E+03 -0.15483600632E+04  0.15651351032E+04  0.00000000000E+00 0. -1.
         22    1    1    2    0    0  0.14876506356E+03  0.31058253658E+03  0.16041470009E+04  0.16406950224E+04  0.00000000000E+00 0. -1.
<mgrwt>
<rscale>  0 0.42193566E+04</rscale>
<asrwt>0</asrwt>
<pdfrwt beam="1">  1        2 0.41901433E+00 0.42193566E+04</pdfrwt>
<pdfrwt beam="2">  1       -2 0.25140672E+00 0.42193566E+04</pdfrwt>
<totfact> 0.12549255E-01</totfact>
</mgrwt>
</event>
<event>
 6    1  0.4630212E-004  0.3210648E+03  0.7818608E-02  0.1075160E+00
         -2   -1    0    0    0  501 -0.00000000000E+00  0.00000000000E+00  0.56676443468E+02  0.56676443468E+02  0.00000000000E+00 0. -1.
          2   -1    0    0  501    0  0.00000000000E+00 -0.00000000000E+00 -0.45469789337E+03  0.45469789337E+03  0.00000000000E+00 0.  1.
         23    2    1    2    0    0  0.14092602804E+03 -0.14016133607E+02 -0.15066704871E+03  0.22634662385E+03  0.92063223823E+02 0.  0.
         13    1    3    3    0    0  0.55046311367E+02 -0.18962885382E+02 -0.66565345707E+01  0.58600314586E+02  0.00000000000E+00 0. -1.
        -13    1    3    3    0    0  0.85879716675E+02  0.49467517753E+01 -0.14401051414E+03  0.16774630926E+03  0.00000000000E+00 0.  1.
         22    1    1    2    0    0 -0.14092602804E+03  0.14016133607E+02 -0.24735440120E+03  0.28502771299E+03  0.00000000000E+00 0. -1.
<mgrwt>
<rscale>  0 0.32106485E+03</rscale>
<asrwt>0</asrwt>
<pdfrwt beam="1">  1        2 0.69953523E-01 0.32106485E+03</pdfrwt>
<pdfrwt beam="2">  1       -2 0.87194527E-02 0.32106485E+03</pdfrwt>
<totfact> 0.57222233E+03</totfact>
</mgrwt>
</event>
<event>
 6    1  0.4630212E-004  0.5383676E+04  0.7818608E-02  0.7771901E-01
         -2   -1    0    0    0  501 -0.00000000000E+00  0.00000000000E+00  0.31883414101E+04  0.31883414101E+04  0.00000000000E+00 0. -1.
          2   -1    0    0  501    0  0.00000000000E+00 -0.00000000000E+00 -0.22726521576E+04  0.22726521576E+04  0.00000000000E+00 0.  1.
         23    2    1    2    0    0 -0.21971805421E+04  0.52208953343E+03  0.19425003172E+04  0.29801629048E+04  0.88789873560E+02 0.  0.
         13    1    3    3    0    0 -0.55387396184E+03  0.17079143909E+03  0.50747540857E+03  0.77037482538E+03  0.00000000000E+00 0.  1.
        -13    1    3    3    0    0 -0.16433065802E+04  0.35129809434E+03  0.14350249086E+04  0.22097880795E+04  0.00000000000E+00 0. -1.
         22    1    1    2    0    0  0.21971805421E+04 -0.52208953343E+03 -0.10268110646E+04  0.24808306629E+04  0.00000000000E+00 0.  1.
<mgrwt>
<rscale>  0 0.53836757E+04</rscale>
<asrwt>0</asrwt>
<pdfrwt beam="1">  1        2 0.34963879E+00 0.53836757E+04</pdfrwt>
<pdfrwt beam="2">  1       -2 0.49051406E+00 0.53836757E+04</pdfrwt>
<totfact> 0.63256182E-03</totfact>
</mgrwt>
</event>
<event>
 6    1  0.4630212E-004  0.3169602E+04  0.7818608E-02  0.8196892E-01
         -2   -1    0    0    0  501 -0.00000000000E+00  0.00000000000E+00  0.70228353432E+03  0.70228353432E+03  0.00000000000E+00 0.  1.
          2   -1    0    0  501    0  0.00000000000E+00 -0.00000000000E+00 -0.35763248170E+04  0.35763248170E+04  0.00000000000E+00 0. -1.
         23    2    1    2    0    0  0.25974248665E+03  0.15616553171E+04 -0.13901874300E+04  0.21088028888E+04  0.90526484493E+02 0.  0.
         13    1    3    3    0    0  0.87807453269E+02  0.33916680170E+03 -0.33596627297E+03  0.48540457847E+03  0.00000000000E+00 0. -1.
        -13    1    3    3    0    0  0.17193503339E+03  0.12224885154E+04 -0.10542211570E+04  0.16233983104E+04  0.00000000000E+00 0.  1.
         22    1    1    2    0    0 -0.25974248665E+03 -0.15616553171E+04 -0.14838538526E+04  0.21698054625E+04  0.00000000000E+00 0. -1.
<mgrwt>
<rscale>  0 0.31696019E+04</rscale>
<asrwt>0</asrwt>
<pdfrwt beam="1">  1        2 0.55020382E+00 0.31696019E+04</pdfrwt>
<pdfrwt beam="2">  1       -2 0.10804362E+00 0.31696019E+04</pdfrwt>
<totfact> 0.41531963E-01</totfact>
</mgrwt>
</event>
<event>
 6    1  0.4630212E-004  0.1980164E+04  0.7818608E-02  0.8615951E-01
         -2   -1    0    0    0  501 -0.00000000000E+00  0.00000000000E+00  0.36308277973E+03  0.36308277973E+03  0.00000000000E+00 0. -1.
          2   -1    0    0  501    0  0.00000000000E+00 -0.00000000000E+00 -0.26998320407E+04  0.26998320407E+04  0.00000000000E+00 0.  1.
         23    2    1    2    0    0  0.91410590582E+03 -0.34329048459E+03 -0.93822513191E+03  0.13572455373E+04  0.91711975730E+02 0.  0.
         11    1    3    3    0    0  0.57712902098E+03 -0.20675858752E+03 -0.64793131535E+03  0.89198767355E+03  0.00000000000E+00 0. -1.
        -11    1    3    3    0    0  0.33697688484E+03 -0.13653189707E+03 -0.29029381656E+03  0.46525786374E+03  0.00000000000E+00 0.  1.
         22    1    1    2    0    0 -0.91410590582E+03  0.34329048459E+03 -0.13985241290E+04  0.17056692831E+04  0.00000000000E+00 0.  1.
<mgrwt>
<rscale>  0 0.19801642E+04</rscale>
<asrwt>0</asrwt>
<pdfrwt beam="1">  1        2 0.41535876E+00 0.19801642E+04</pdfrwt>
<pdfrwt beam="2">  1       -2 0.55858892E-01 0.19801642E+04</pdfrwt>
<totfact> 0.74490979E+00</totfact>
</mgrwt>
</event>
<event>
 6    1  0.4630212E-004  0.2461926E+04  0.7818608E-02  0.8416676E-01
         -2   -1    0    0    0  501 -0.00000000000E+00  0.00000000000E+00  0.62762987118E+03  0.62762987118E+03  0.00000000000E+00 0.  1.
          2   -1    0    0  501    0  0.00000000000E+00 -0.00000000000E+00 -0.24142735109E+04  0.24142735109E+04  0.00000000000E+00 0. -1.
         23    2    1    2    0    0  0.77876669161E+03 -0.93405261799E+03 -0.67513988978E+03  0.13943681201E+04  0.97553731726E+02 0.  0.
         13    1    3    3    0    0  0.13400344014E+03 -0.21091428012E+03 -0.16482371425E+03  0.29934697645E+03  0.00000000000E+00 0. -1.
        -13    1    3    3    0    0  0.64476325147E+03 -0.72313833786E+03 -0.51031617553E+03  0.10950211437E+04  0.00000000000E+00 0.  1.
         22    1    1    2    0    0 -0.77876669161E+03  0.93405261799E+03 -0.11115037499E+04  0.16475352619E+04  0.00000000000E+00 0. -1.
<mgrwt>
<rscale>  0 0.24619262E+04</rscale>
<asrwt>0</asrwt>
<pdfrwt beam="1">  1        2 0.37142669E+00 0.24619262E+04</pdfrwt>
<pdfrwt beam="2">  1       -2 0.96558444E-01 0.24619262E+04</pdfrwt>
<totfact> 0.31307732E+00</totfact>
</mgrwt>
</event>
<event>
 6    1  0.4630212E-004  0.8005622E+03  0.7818608E-02  0.9559204E-01
         -2   -1    0    0    0  501 -0.00000000000E+00  0.00000000000E+00  0.29162117282E+03  0.29162117282E+03  0.00000000000E+00 0. -1.
          2   -1    0    0  501    0  0.00000000000E+00 -0.00000000000E+00 -0.54942837943E+03  0.54942837943E+03  0.00000000000E+00 0.  1.
         23    2    1    2    0    0  0.79788154763E+02 -0.83039790325E+02 -0.52762055460E+03  0.54768800198E+03  0.91197266722E+02 0.  0.
         11    1    3    3    0    0  0.58570642905E+02 -0.58397149318E+01 -0.31586171724E+03  0.32129931045E+03  0.00000000000E+00 0. -1.
        -11    1    3    3    0    0  0.21217511858E+02 -0.77200075394E+02 -0.21175883737E+03  0.22638869153E+03  0.00000000000E+00 0.  1.
         22    1    1    2    0    0 -0.79788154763E+02  0.83039790325E+02  0.26981334799E+03  0.29336155026E+03  0.00000000000E+00 0. -1.
<mgrwt>
<rscale>  0 0.80056217E+03</rscale>
<asrwt>0</asrwt>
<pdfrwt beam="1">  1        2 0.84527442E-01 0.80056217E+03</pdfrwt>
<pdfrwt beam="2">  1       -2 0.44864797E-01 0.80056217E+03</pdfrwt>
<totfact> 0.26139484E+02</totfact>
</mgrwt>
</event>
<event>
 6    1  0.4630212E-004  0.4458792E+04  0.7818608E-02  0.7917891E-01
         -2   -1    0    0    0  501 -0.00000000000E+00  0.00000000000E+00  0.16397612899E+04  0.16397612899E+04  0.00000000000E+00 0. -1.
          2   -1    0    0  501    0  0.00000000000E+00 -0.00000000000E+00 -0.30310544201E+04  0.30310544201E+04  0.00000000000E+00 0.  1.
         23    2    1    2    0    0 -0.20464845595E+04 -0.86563176806E+03 -0.87343562739E+03  0.23892386669E+04  0.90300618957E+02 0.  0.
         11    1    3    3    0    0 -0.11598627262E+04 -0.47449476075E+03 -0.53786110727E+03  0.13637160233E+04  0.00000000000E+00 0. -1.
        -11    1    3    3    0    0 -0.88662183337E+03 -0.39113700731E+03 -0.33557452012E+03  0.10255226436E+04  0.00000000000E+00 0.  1.
         22    1    1    2    0    0  0.20464845595E+04  0.86563176806E+03 -0.51785750283E+03  0.22815770431E+04  0.00000000000E+00 0. -1.
<mgrwt>
<rscale>  0 0.44587916E+04</rscale>
<asrwt>0</asrwt>
<pdfrwt beam="1">  1        2 0.46631606E+00 0.44587916E+04</pdfrwt>
<pdfrwt beam="2">  1       -2 0.25227097E+00 0.44587916E+04</pdfrwt>
<totfact> 0.78698385E-02</totfact>
</mgrwt>
</event>
<event>
 6    1  0.4630212E-004  0.1152236E+04  0.7818608E-02  0.9155724E-01
         -2   -1    0    0    0  501 -0.00000000000E+00  0.00000000000E+00  0.94839124022E+02  0.94839124022E+02  0.00000000000E+00 0. -1.
          2   -1    0    0  501    0  0.00000000000E+00 -0.00000000000E+00 -0.34997336666E+04  0.34997336666E+04  0.00000000000E+00 0.  1.
         23    2    1    2    0    0 -0.31389624186E+03 -0.40692334072E+03 -0.25011157288E+04  0.25548932245E+04  0.88215894780E+02 0.  0.
         13    1    3    3    0    0 -0.18030849769E+03 -0.22712228697E+03 -0.11931160687E+04  0.12278524508E+04  0.00000000000E+00 0. -1.
        -13    1    3    3    0    0 -0.13358774418E+03 -0.17980105374E+03 -0.13079996601E+04  0.13270407737E+04  0.00000000000E+00 0.  1.
         22    1    1    2    0    0  0.31389624186E+03  0.40692334072E+03 -0.90377881375E+03  0.10396795660E+04  0.00000000000E+00 0. -1.
<mgrwt>
<rscale>  0 0.11522355E+04</rscale>
<asrwt>0</asrwt>
<pdfrwt beam="1">  1        2 0.53842051E+00 0.11522355E+04</pdfrwt>
<pdfrwt beam="2">  1       -2 0.14590636E-01 0.11522355E+04</pdfrwt>
<totfact> 0.30478152E+01</totfact>
</mgrwt>
</event>
<event>
 6    1  0.4630212E-004  0.9646043E+03  0.7818608E-02  0.9348241E-01
         -2   -1    0    0    0  501 -0.00000000000E+00  0.00000000000E+00  0.18326779131E+03  0.18326779131E+03  0.00000000000E+00 0. -1.
          2   -1    0    0  501    0  0.00000000000E+00 -0.00000000000E+00 -0.12692648650E+04  0.12692648650E+04  0.00000000000E+00 0.  1.
         23    2    1    2    0    0 -0.22589581018E+03  0.35672944256E+03 -0.88501655588E+03  0.98490248111E+03  0.92161710369E+02 0.  0.
         13    1    3    3    0    0 -0.17098718359E+03  0.20531196582E+03 -0.61436870532E+03  0.66995412257E+03  0.00000000000E+00 0. -1.
        -13    1    3    3    0    0 -0.54908626596E+02  0.15141747674E+03 -0.27064785056E+03  0.31494835854E+03  0.00000000000E+00 0.  1.
         22    1    1    2    0    0  0.22589581018E+03 -0.35672944256E+03 -0.20098051785E+03  0.46763017525E+03  0.00000000000E+00 0. -1.
<mgrwt>
<rscale>  0 0.96460431E+03</rscale>
<asrwt>0</asrwt>
<pdfrwt beam="1">  1        2 0.19527152E+00 0.96460431E+03</pdfrwt>
<pdfrwt beam="2">  1       -2 0.28195044E-01 0.96460431E+03</pdfrwt>
<totfact> 0.19802089E+02</totfact>
</mgrwt>
</event>
<event>
 6    1  0.4630212E-004  0.2866946E+04  0.7818608E-02  0.8282780E-01
          2   -1    0    0  501    0  0.00000000000E+00  0.00000000000E+00  0.14691868881E+04  0.14691868881E+04  0.00000000000E+00 0.  1.
         -2   -1    0    0    0  501 -0.00000000000E+00 -0.00000000000E+00 -0.13986277233E+04  0.13986277233E+04  0.00000000000E+00 0. -1.
         23    2    1    2    0    0  0.83166006757E+03  0.11827499555E+03 -0.11247366947E+04  0.14068629920E+04  0.92646658964E+02 0.  0.
         13    1    3    3    0    0  0.58905840694E+03  0.41284870917E+02 -0.79550254654E+03  0.99071617979E+03  0.00000000000E+00 0.  1.
        -13    1    3    3    0    0  0.24260166063E+03  0.76990124638E+02 -0.32923414814E+03  0.41614681224E+03  0.00000000000E+00 0. -1.
         22    1    1    2    0    0 -0.83166006757E+03 -0.11827499555E+03  0.11952958595E+04  0.14609516194E+04  0.00000000000E+00 0.  1.
<mgrwt>
<rscale>  0 0.28669465E+04</rscale>
<asrwt>0</asrwt>
<pdfrwt beam="1">  1        2 0.22602875E+00 0.28669465E+04</pdfrwt>
<pdfrwt beam="2">  1       -2 0.21517350E+00 0.28669465E+04</pdfrwt>
<totfact> 0.12131781E+00</totfact>
</mgrwt>
</event>
<event>
 6    1  0.4630212E-004  0.2733467E+04  0.7818608E-02  0.8324227E-01
         -2   -1    0    0    0  501 -0.00000000000E+00  0.00000000000E+00  0.80713512607E+03  0.80713512607E+03  0.00000000000E+00 0. -1.
          2   -1    0    0  501    0  0.00000000000E+00 -0.00000000000E+00 -0.23143099849E+04  0.23143099849E+04  0.00000000000E+00 0.  1.
         23    2    1    2    0    0  0.55035107482E+03 -0.34445411929E+03  0.61699681382E+03  0.90026519014E+03  0.90870228676E+02 0.  0.
         11    1    3    3    0    0  0.31179240410E+03 -0.14627211090E+03  0.35000304594E+03  0.49103173609E+03  0.00000000000E+00 0. -1.
        -11    1    3    3    0    0  0.23855867073E+03 -0.19818200839E+03  0.26699376788E+03  0.40923345405E+03  0.00000000000E+00 0.  1.
         22    1    1    2    0    0 -0.55035107482E+03  0.34445411929E+03 -0.21241716726E+04  0.22211799208E+04  0.00000000000E+00 0.  1.
<mgrwt>
<rscale>  0 0.27334673E+04</rscale>
<asrwt>0</asrwt>
<pdfrwt beam="1">  1        2 0.35604769E+00 0.27334673E+04</pdfrwt>
<pdfrwt beam="2">  1       -2 0.12417464E+00 0.27334673E+04</pdfrwt>
<totfact> 0.18976133E+00</totfact>
</mgrwt>
</event>
<event>
 6    1  0.4630212E-004  0.6186125E+03  0.7818608E-02  0.9867526E-01
          2   -1    0    0  501    0  0.00000000000E+00  0.00000000000E+00  0.29901522964E+04  0.29901522964E+04  0.00000000000E+00 0.  1.
         -2   -1    0    0    0  501 -0.00000000000E+00 -0.00000000000E+00 -0.31995148929E+02  0.31995148929E+02  0.00000000000E+00 0. -1.
         23    2    1    2    0    0 -0.23621621031E+03 -0.40278329376E+02  0.24146153888E+04  0.24281288553E+04  0.89564616202E+02 0.  0.
         13    1    3    3    0    0 -0.77099160581E+02 -0.53322540973E+02  0.10603088866E+04  0.10644446951E+04  0.00000000000E+00 0. -1.
        -13    1    3    3    0    0 -0.15911704972E+03  0.13044211597E+02  0.13543065022E+04  0.13636841603E+04  0.00000000000E+00 0.  1.
         22    1    1    2    0    0  0.23621621031E+03  0.40278329376E+02  0.54354175862E+03  0.59401858994E+03  0.00000000000E+00 0. -1.
<mgrwt>
<rscale>  0 0.61861254E+03</rscale>
<asrwt>0</asrwt>
<pdfrwt beam="1">  1        2 0.46002321E+00 0.61861254E+03</pdfrwt>
<pdfrwt beam="2">  1       -2 0.49223330E-02 0.61861254E+03</pdfrwt>
<totfact> 0.39981222E+02</totfact>
</mgrwt>
</event>
<event>
 6    1  0.4630212E-004  0.5451996E+04  0.7818608E-02  0.7762329E-01
         -2   -1    0    0    0  501 -0.00000000000E+00  0.00000000000E+00  0.22303776976E+04  0.22303776976E+04  0.00000000000E+00 0. -1.
          2   -1    0    0  501    0  0.00000000000E+00 -0.00000000000E+00 -0.33317512932E+04  0.33317512932E+04  0.00000000000E+00 0.  1.
         23    2    1    2    0    0  0.95222081626E+03  0.17577095183E+04 -0.24405933941E+04  0.31559334662E+04  0.84573601340E+02 0.  0.
         11    1    3    3    0    0  0.32433063644E+03  0.67993963720E+03 -0.89782537557E+03  0.11720062615E+04  0.00000000000E+00 0. -1.
        -11    1    3    3    0    0  0.62789017981E+03  0.10777698811E+04 -0.15427680186E+04  0.19839272047E+04  0.00000000000E+00 0.  1.
         22    1    1    2    0    0 -0.95222081626E+03 -0.17577095183E+04  0.13392197986E+04  0.24061955246E+04  0.00000000000E+00 0. -1.
<mgrwt>
<rscale>  0 0.54519955E+04</rscale>
<asrwt>0</asrwt>
<pdfrwt beam="1">  1        2 0.51257712E+00 0.54519955E+04</pdfrwt>
<pdfrwt beam="2">  1       -2 0.34313503E+00 0.54519955E+04</pdfrwt>
<totfact> 0.12786782E-02</totfact>
</mgrwt>
</event>
<event>
 6    1  0.4630212E-004  0.3733323E+04  0.7818608E-02  0.8060617E-01
          2   -1    0    0  501    0  0.00000000000E+00  0.00000000000E+00  0.26172198768E+04  0.26172198768E+04  0.00000000000E+00 0.  1.
         -2   -1    0    0    0  501 -0.00000000000E+00 -0.00000000000E+00 -0.13313459579E+04  0.13313459579E+04  0.00000000000E+00 0. -1.
         23    2    1    2    0    0  0.71376247482E+03 -0.11463391220E+04 -0.71795456267E+03  0.15321886215E+04  0.92698246186E+02 0.  0.
         13    1    3    3    0    0  0.30813486881E+03 -0.42678346232E+03 -0.31052575327E+03  0.61116075179E+03  0.00000000000E+00 0.  1.
        -13    1    3    3    0    0  0.40562760602E+03 -0.71955565968E+03 -0.40742880940E+03  0.92102786976E+03  0.00000000000E+00 0. -1.
         22    1    1    2    0    0 -0.71376247482E+03  0.11463391220E+04  0.20038284815E+04  0.24163772132E+04  0.00000000000E+00 0.  1.
<mgrwt>
<rscale>  0 0.37333230E+04</rscale>
<asrwt>0</asrwt>
<pdfrwt beam="1">  1        2 0.40264921E+00 0.37333230E+04</pdfrwt>
<pdfrwt beam="2">  1       -2 0.20482246E+00 0.37333230E+04</pdfrwt>
<totfact> 0.29642169E-01</totfact>
</mgrwt>
</event>
<event>
 6    1  0.4630212E-004  0.1693054E+04  0.7818608E-02  0.8765336E-01
         -2   -1    0    0    0  501 -0.00000000000E+00  0.00000000000E+00  0.27087487958E+03  0.27087487958E+03  0.00000000000E+00 0.  1.
          2   -1    0    0  501    0  0.00000000000E+00 -0.00000000000E+00 -0.26455316513E+04  0.26455316513E+04  0.00000000000E+00 0. -1.
         23    2    1    2    0    0 -0.33787979845E+03 -0.28626312652E+03  0.47077647746E+02  0.45451560433E+03  0.90877906337E+02 0.  0.
         13    1    3    3    0    0 -0.33770024208E+03 -0.27195563064E+03  0.33652913456E+02  0.43489520246E+03  0.00000000000E+00 0.  1.
        -13    1    3    3    0    0 -0.17955636597E+00 -0.14307495883E+02  0.13424734290E+02  0.19620401874E+02  0.00000000000E+00 0. -1.
         22    1    1    2    0    0  0.33787979845E+03  0.28626312652E+03 -0.24217344195E+04  0.24618909265E+04  0.00000000000E+00 0. -1.
<mgrwt>
<rscale>  0 0.16930541E+04</rscale>
<asrwt>0</asrwt>
<pdfrwt beam="1">  1        2 0.40700487E+00 0.16930541E+04</pdfrwt>
<pdfrwt beam="2">  1       -2 0.41673058E-01 0.16930541E+04</pdfrwt>
<totfact> 0.14897022E+01</totfact>
</mgrwt>
</event>
<event>
 6    1  0.4630212E-004  0.2846287E+04  0.7818608E-02  0.8289041E-01
          2   -1    0    0  501    0  0.00000000000E+00  0.00000000000E+00  0.27210545225E+04  0.27210545225E+04  0.00000000000E+00 0.  1.
         -2   -1    0    0    0  501 -0.00000000000E+00 -0.00000000000E+00 -0.74432063606E+03  0.74432063606E+03  0.00000000000E+00 0. -1.
         23    2    1    2    0    0 -0.57362328828E+03  0.11301762245E+04  0.20481009925E+03  0.12868307172E+04  0.87430787225E+02 0.  0.
         13    1    3    3    0    0 -0.12539950711E+03  0.27551814979E+03  0.13667805218E+02  0.30302161003E+03  0.00000000000E+00 0.  1.
        -13    1    3    3    0    0 -0.44822378117E+03  0.85465807476E+03  0.19114229404E+03  0.98380910716E+03  0.00000000000E+00 0. -1.
         22    1    1    2    0    0  0.57362328828E+03 -0.11301762245E+04  0.17719237872E+04  0.21785444413E+04  0.00000000000E+00 0.  1.
<mgrwt>
<rscale>  0 0.28462867E+04</rscale>
<asrwt>0</asrwt>
<pdfrwt beam="1">  1        2 0.41862377E+00 0.28462867E+04</pdfrwt>
<pdfrwt beam="2">  1       -2 0.11451087E+00 0.28462867E+04</pdfrwt>
<totfact> 0.13319506E+00</totfact>
</mgrwt>
</event>
<event>
 6    1  0.4630212E-004  0.5216258E+04  0.7818608E-02  0.7795987E-01
         -2   -1    0    0    0  501 -0.00000000000E+00  0.00000000000E+00  0.49430807120E+04  0.49430807120E+04  0.00000000000E+00 0. -1.
          2   -1    0    0  501    0  0.00000000000E+00 -0.00000000000E+00 -0.13761329294E+04  0.13761329294E+04  0.00000000000E+00 0.  1.
         23    2    1    2    0    0  0.17176862013E+04  0.14876243482E+04  0.33329325399E+04  0.40348679537E+04  0.90818508221E+02 0.  0.
         11    1    3    3    0    0  0.54917025413E+03  0.45309259205E+03  0.11133220757E+04  0.13215017628E+04  0.00000000000E+00 0.  1.
        -11    1    3    3    0    0  0.11685159471E+04  0.10345317562E+04  0.22196104642E+04  0.27133661909E+04  0.00000000000E+00 0. -1.
         22    1    1    2    0    0 -0.17176862013E+04 -0.14876243482E+04  0.23401524275E+03  0.22843456878E+04  0.00000000000E+00 0.  1.
<mgrwt>
<rscale>  0 0.52162577E+04</rscale>
<asrwt>0</asrwt>
<pdfrwt beam="1">  1        2 0.21171276E+00 0.52162577E+04</pdfrwt>
<pdfrwt beam="2">  1       -2 0.76047394E+00 0.52162577E+04</pdfrwt>
<totfact> 0.13783385E-03</totfact>
</mgrwt>
</event>
<event>
 6    1  0.4630212E-004  0.3891331E+04  0.7818608E-02  0.8026835E-01
          2   -1    0    0  501    0  0.00000000000E+00  0.00000000000E+00  0.40114724004E+04  0.40114724004E+04  0.00000000000E+00 0.  1.
         -2   -1    0    0    0  501 -0.00000000000E+00 -0.00000000000E+00 -0.94369704452E+03  0.94369704452E+03  0.00000000000E+00 0. -1.
         23    2    1    2    0    0 -0.15411806036E+04  0.73329199557E+02  0.27498788332E+02  0.15457858597E+04  0.89905040166E+02 0.  0.
         13    1    3    3    0    0 -0.87634831410E+03  0.63247594369E+02  0.54624370081E+02  0.88032405830E+03  0.00000000000E+00 0. -1.
        -13    1    3    3    0    0 -0.66483228946E+03  0.10081605187E+02 -0.27125581750E+02  0.66546180135E+03  0.00000000000E+00 0.  1.
         22    1    1    2    0    0  0.15411806036E+04 -0.73329199557E+02  0.30402765675E+04  0.34093835852E+04  0.00000000000E+00 0.  1.
<mgrwt>
<rscale>  0 0.38913312E+04</rscale>
<asrwt>0</asrwt>
<pdfrwt beam="1">  1        2 0.61714959E+00 0.38913312E+04</pdfrwt>
<pdfrwt beam="2">  1       -2 0.14518416E+00 0.38913312E+04</pdfrwt>
<totfact> 0.86722376E-02</totfact>
</mgrwt>
</event>
<event>
 6    1  0.4630212E-004  0.4952936E+04  0.7818608E-02  0.7835809E-01
          2   -1    0    0  501    0  0.00000000000E+00  0.00000000000E+00  0.39490200419E+04  0.39490200419E+04  0.00000000000E+00 0.  1.
         -2   -1    0    0    0  501 -0.00000000000E+00 -0.00000000000E+00 -0.15530163856E+04  0.15530163856E+04  0.00000000000E+00 0. -1.
         23    2    1    2    0    0 -0.14793877378E+04 -0.19318559117E+04  0.17048760164E+04  0.29725477920E+04  0.93716604955E+02 0.  0.
         11    1    3    3    0    0 -0.50395218682E+03 -0.59789950303E+03  0.51844496566E+03  0.93820936083E+03  0.00000000000E+00 0.  1.
        -11    1    3    3    0    0 -0.97543555100E+03 -0.13339564087E+04  0.11864310508E+04  0.20343384312E+04  0.00000000000E+00 0. -1.
         22    1    1    2    0    0  0.14793877378E+04  0.19318559117E+04  0.69112763982E+03  0.25294886355E+04  0.00000000000E+00 0. -1.
<mgrwt>
<rscale>  0 0.49529356E+04</rscale>
<asrwt>0</asrwt>
<pdfrwt beam="1">  1        2 0.60754154E+00 0.49529356E+04</pdfrwt>
<pdfrwt beam="2">  1       -2 0.23892560E+00 0.49529356E+04</pdfrwt>
<totfact> 0.20577537E-02</totfact>
</mgrwt>
</event>
<event>
 6    1  0.4630212E-004  0.1560610E+04  0.7818608E-02  0.8845119E-01
          2   -1    0    0  501    0  0.00000000000E+00  0.00000000000E+00  0.89807870644E+03  0.89807870644E+03  0.00000000000E+00 0.  1.
         -2   -1    0    0    0  501 -0.00000000000E+00 -0.00000000000E+00 -0.67797589479E+03  0.67797589479E+03  0.00000000000E+00 0. -1.
         23    2    1    2    0    0  0.37495791106E+03 -0.67404835368E+03  0.21007616473E+03  0.80466938499E+03  0.91794367954E+02 0.  0.
         11    1    3    3    0    0  0.31834687118E+03 -0.55650599465E+03  0.13870748468E+03  0.65595992163E+03  0.00000000000E+00 0. -1.
        -11    1    3    3    0    0  0.56611039884E+02 -0.11754235903E+03  0.71368680049E+02  0.14870946337E+03  0.00000000000E+00 0.  1.
         22    1    1    2    0    0 -0.37495791106E+03  0.67404835368E+03  0.10026646918E+02  0.77138521623E+03  0.00000000000E+00 0. -1.
<mgrwt>
<rscale>  0 0.15606098E+04</rscale>
<asrwt>0</asrwt>
<pdfrwt beam="1">  1        2 0.13816596E+00 0.15606098E+04</pdfrwt>
<pdfrwt beam="2">  1       -2 0.10430398E+00 0.15606098E+04</pdfrwt>
<totfact> 0.21131108E+01</totfact>
</mgrwt>
</event>
<event>
 6    1  0.4630212E-004  0.3322990E+04  0.7818608E-02  0.8157070E-01
          2   -1    0    0  501    0  0.00000000000E+00  0.00000000000E+00  0.23802136176E+04  0.23802136176E+04  0.00000000000E+00 0.  1.
         -2   -1    0    0    0  501 -0.00000000000E+00 -0.00000000000E+00 -0.11597977305E+04  0.11597977305E+04  0.00000000000E+00 0. -1.
         23    2    1    2    0    0 -0.68842713132E+03  0.48020381416E+03 -0.91534876538E+03  0.12452306900E+04  0.90600721113E+02 0.  0.
         13    1    3    3    0    0 -0.43549941249E+03  0.35248477058E+03 -0.63021301967E+03  0.84325186150E+03  0.00000000000E+00 0. -1.
        -13    1    3    3    0    0 -0.25292771883E+03  0.12771904358E+03 -0.28513574571E+03  0.40197882846E+03  0.00000000000E+00 0.  1.
         22    1    1    2    0    0  0.68842713132E+03 -0.48020381416E+03  0.21357646525E+04  0.22947806582E+04  0.00000000000E+00 0.  1.
<mgrwt>
<rscale>  0 0.33229904E+04</rscale>
<asrwt>0</asrwt>
<pdfrwt beam="1">  1        2 0.36618671E+00 0.33229904E+04</pdfrwt>
<pdfrwt beam="2">  1       -2 0.17843042E+00 0.33229904E+04</pdfrwt>
<totfact> 0.63244124E-01</totfact>
</mgrwt>
</event>
<event>
 6    1  0.4630212E-004  0.6684284E+03  0.7818608E-02  0.9772801E-01
          2   -1    0    0  501    0  0.00000000000E+00  0.00000000000E+00  0.81748290196E+03  0.81748290196E+03  0.00000000000E+00 0. -1.
         -2   -1    0    0    0  501 -0.00000000000E+00 -0.00000000000E+00 -0.13663788427E+03  0.13663788427E+03  0.00000000000E+00 0.  1.
         23    2    1    2    0    0  0.69462421571E+02  0.20191482471E+03 -0.12398474776E+02  0.22873732606E+03  0.81070449037E+02 0.  0.
         11    1    3    3    0    0  0.17155524711E+02  0.14431056127E+03  0.15334680657E+02  0.14613350934E+03  0.00000000000E+00 0.  1.
        -11    1    3    3    0    0  0.52306896859E+02  0.57604263442E+02 -0.27733155434E+02  0.82603816716E+02  0.00000000000E+00 0. -1.
         22    1    1    2    0    0 -0.69462421571E+02 -0.20191482471E+03  0.69324349246E+03  0.72538346017E+03  0.00000000000E+00 0. -1.
<mgrwt>
<rscale>  0 0.66842841E+03</rscale>
<asrwt>0</asrwt>
<pdfrwt beam="1">  1        2 0.12576660E+00 0.66842841E+03</pdfrwt>
<pdfrwt beam="2">  1       -2 0.21021213E-01 0.66842841E+03</pdfrwt>
<totfact> 0.65805279E+02</totfact>
</mgrwt>
</event>
<event>
 6    1  0.4630212E-004  0.1045952E+04  0.7818608E-02  0.9259533E-01
          2   -1    0    0  501    0  0.00000000000E+00  0.00000000000E+00  0.10040686564E+04  0.10040686564E+04  0.00000000000E+00 0.  1.
         -2   -1    0    0    0  501 -0.00000000000E+00 -0.00000000000E+00 -0.27239580477E+03  0.27239580477E+03  0.00000000000E+00 0. -1.
         23    2    1    2    0    0  0.24435819367E+01  0.22026455212E+03 -0.20504518486E+03  0.31419468409E+03  0.90290241229E+02 0.  0.
         13    1    3    3    0    0  0.41546188437E+02  0.16213957981E+03 -0.13387484962E+03  0.21433106278E+03  0.00000000000E+00 0.  1.
        -13    1    3    3    0    0 -0.39102606500E+02  0.58124972313E+02 -0.71170335244E+02  0.99863621305E+02  0.00000000000E+00 0. -1.
         22    1    1    2    0    0 -0.24435819367E+01 -0.22026455212E+03  0.93671803651E+03  0.96226977711E+03  0.00000000000E+00 0.  1.
<mgrwt>
<rscale>  0 0.10459524E+04</rscale>
<asrwt>0</asrwt>
<pdfrwt beam="1">  1        2 0.15447210E+00 0.10459524E+04</pdfrwt>
<pdfrwt beam="2">  1       -2 0.41907047E-01 0.10459524E+04</pdfrwt>
<totfact> 0.13445991E+02</totfact>
</mgrwt>
</event>
<event>
 6    1  0.4630212E-004  0.1193893E+04  0.7818608E-02  0.9118219E-01
         -2   -1    0    0    0  501 -0.00000000000E+00  0.00000000000E+00  0.43465590800E+03  0.43465590800E+03  0.00000000000E+00 0. -1.
          2   -1    0    0  501    0  0.00000000000E+00 -0.00000000000E+00 -0.81983222918E+03  0.81983222918E+03  0.00000000000E+00 0.  1.
         23    2    1    2    0    0 -0.38499344231E+03 -0.43151714795E+03 -0.33451424291E+03  0.67397659917E+03  0.88981334726E+02 0.  0.
         11    1    3    3    0    0 -0.19452779978E+03 -0.22835410003E+03 -0.12273311851E+03  0.32411429815E+03  0.00000000000E+00 0.  1.
        -11    1    3    3    0    0 -0.19046564254E+03 -0.20316304792E+03 -0.21178112440E+03  0.34986230103E+03  0.00000000000E+00 0. -1.
         22    1    1    2    0    0  0.38499344231E+03  0.43151714795E+03 -0.50662078274E+02  0.58051153802E+03  0.00000000000E+00 0. -1.
<mgrwt>
<rscale>  0 0.11938927E+04</rscale>
<asrwt>0</asrwt>
<pdfrwt beam="1">  1        2 0.12612804E+00 0.11938927E+04</pdfrwt>
<pdfrwt beam="2">  1       -2 0.66870140E-01 0.11938927E+04</pdfrwt>
<totfact> 0.67597024E+01</totfact>
</mgrwt>
</event>
<event>
 6    1  0.4630212E-004  0.1962676E+04  0.7818608E-02  0.8624272E-01
         -1   -1    0    0    0  501 -0.00000000000E+00  0.00000000000E+00  0.74432970770E+03  0.74432970770E+03  0.00000000000E+00 0. -1.
          1   -1    0    0  501    0  0.00000000000E+00 -0.00000000000E+00 -0.12938139283E+04  0.12938139283E+04  0.00000000000E+00 0.  1.
         23    2    1    2    0    0 -0.54746902334E+03 -0.63756245715E+03  0.24654699829E+03  0.88061440539E+03  0.92130832725E+02 0.  0.
         13    1    3    3    0    0 -0.51265146777E+03 -0.56627103999E+03  0.20418641616E+03  0.79067471863E+03  0.00000000000E+00 0.  1.
        -13    1    3    3    0    0 -0.34817555567E+02 -0.71291417154E+02  0.42360582133E+02  0.89939686758E+02  0.00000000000E+00 0. -1.
         22    1    1    2    0    0  0.54746902334E+03  0.63756245715E+03 -0.79603121891E+03  0.11575292306E+04  0.00000000000E+00 0.  1.
<mgrwt>
<rscale>  0 0.19626759E+04</rscale>
<asrwt>0</asrwt>
<pdfrwt beam="1">  1        1 0.19904829E+00 0.19626759E+04</pdfrwt>
<pdfrwt beam="2">  1       -1 0.11451226E+00 0.19626759E+04</pdfrwt>
<totfact> 0.58976858E+00</totfact>
</mgrwt>
</event>
<event>
 6    1  0.5868762E-004  0.4488165E+04  0.7818608E-02  0.7912712E-01
         -2   -1    0    0    0  501 -0.00000000000E+00  0.00000000000E+00  0.19504801709E+04  0.19504801709E+04  0.00000000000E+00 0. -1.
          2   -1    0    0  501    0  0.00000000000E+00 -0.00000000000E+00 -0.25818798695E+04  0.25818798695E+04  0.00000000000E+00 0.  1.
         23    2    1    2    0    0 -0.74677506223E+02 -0.16364202784E+04 -0.18633691808E+04  0.24826779034E+04  0.89982277160E+02 0.  0.
         13    1    3    3    0    0  0.11174469433E+02 -0.65007460394E+03 -0.76368135776E+03  0.10029611536E+04  0.00000000000E+00 0. -1.
        -13    1    3    3    0    0 -0.85851975656E+02 -0.98634567448E+03 -0.10996878231E+04  0.14797167498E+04  0.00000000000E+00 0.  1.
         22    1    1    2    0    0  0.74677506223E+02  0.16364202784E+04  0.12319694822E+04  0.20496821370E+04  0.00000000000E+00 0. -1.
<mgrwt>
<rscale>  0 0.44881647E+04</rscale>
<asrwt>0</asrwt>
<pdfrwt beam="1">  1        2 0.39721229E+00 0.44881647E+04</pdfrwt>
<pdfrwt beam="2">  1       -2 0.30007387E+00 0.44881647E+04</pdfrwt>
<totfact> 0.75097849E-02</totfact>
</mgrwt>
</event>
<event>
 6    1  0.4630212E-004  0.1028981E+04  0.7818608E-02  0.9277318E-01
          1   -1    0    0  501    0  0.00000000000E+00  0.00000000000E+00  0.10891839188E+04  0.10891839188E+04  0.00000000000E+00 0.  1.
         -1   -1    0    0    0  501 -0.00000000000E+00 -0.00000000000E+00 -0.24302646801E+03  0.24302646801E+03  0.00000000000E+00 0. -1.
         23    2    1    2    0    0 -0.10853692698E+03 -0.28453351428E+03  0.95660564326E+03  0.10082684345E+04  0.93655186377E+02 0.  0.
         13    1    3    3    0    0 -0.11328616448E+03 -0.24625228415E+03  0.73625879926E+03  0.78457055897E+03  0.00000000000E+00 0. -1.
        -13    1    3    3    0    0  0.47492374916E+01 -0.38281230126E+02  0.22034684400E+03  0.22369787549E+03  0.00000000000E+00 0.  1.
         22    1    1    2    0    0  0.10853692698E+03  0.28453351428E+03 -0.11044819248E+03  0.32394195235E+03  0.00000000000E+00 0. -1.
<mgrwt>
<rscale>  0 0.10289811E+04</rscale>
<asrwt>0</asrwt>
<pdfrwt beam="1">  1        1 0.16756675E+00 0.10289811E+04</pdfrwt>
<pdfrwt beam="2">  1       -1 0.37388688E-01 0.10289811E+04</pdfrwt>
<totfact> 0.88990493E+01</totfact>
</mgrwt>
</event>
<event>
 6    1  0.4630212E-004  0.1515309E+04  0.7818608E-02  0.8874336E-01
         -2   -1    0    0    0  501 -0.00000000000E+00  0.00000000000E+00  0.26261649523E+03  0.26261649523E+03  0.00000000000E+00 0.  1.
          2   -1    0    0  501    0  0.00000000000E+00 -0.00000000000E+00 -0.21858501840E+04  0.21858501840E+04  0.00000000000E+00 0. -1.
         23    2    1    2    0    0  0.43442171338E+03  0.38075264660E+03 -0.17512915264E+04  0.18457570393E+04  0.78116800460E+02 0.  0.
         11    1    3    3    0    0  0.96119049131E+02  0.12633416474E+03 -0.43355054394E+03  0.46169824230E+03  0.00000000000E+00 0.  1.
        -11    1    3    3    0    0  0.33830266425E+03  0.25441848186E+03 -0.13177409825E+04  0.13840587970E+04  0.00000000000E+00 0. -1.
         22    1    1    2    0    0 -0.43442171338E+03 -0.38075264660E+03 -0.17194216239E+03  0.60270964001E+03  0.00000000000E+00 0.  1.
<mgrwt>
<rscale>  0 0.15153090E+04</rscale>
<asrwt>0</asrwt>
<pdfrwt beam="1">  1        2 0.33628466E+00 0.15153090E+04</pdfrwt>
<pdfrwt beam="2">  1       -2 0.40402536E-01 0.15153090E+04</pdfrwt>
<totfact> 0.29463565E+01</totfact>
</mgrwt>
</event>
<event>
 6    1  0.4630212E-004  0.1758215E+04  0.7818608E-02  0.8728841E-01
          2   -1    0    0  501    0  0.00000000000E+00  0.00000000000E+00  0.65037488403E+03  0.65037488403E+03  0.00000000000E+00 0.  1.
         -2   -1    0    0    0  501 -0.00000000000E+00 -0.00000000000E+00 -0.11882838324E+04  0.11882838324E+04  0.00000000000E+00 0. -1.
         23    2    1    2    0    0  0.53530416080E+03  0.58846063607E+03 -0.65496319293E+03  0.10345827492E+04  0.92456563678E+02 0.  0.
         13    1    3    3    0    0  0.99750177590E+02  0.12205726748E+03 -0.85704756694E+02  0.17942513702E+03  0.00000000000E+00 0. -1.
        -13    1    3    3    0    0  0.43555398321E+03  0.46640336859E+03 -0.56925843623E+03  0.85515761222E+03  0.00000000000E+00 0.  1.
         22    1    1    2    0    0 -0.53530416080E+03 -0.58846063607E+03  0.11705424460E+03  0.80407596715E+03  0.00000000000E+00 0.  1.
<mgrwt>
<rscale>  0 0.17582150E+04</rscale>
<asrwt>0</asrwt>
<pdfrwt beam="1">  1        2 0.10005767E+00 0.17582150E+04</pdfrwt>
<pdfrwt beam="2">  1       -2 0.18281290E+00 0.17582150E+04</pdfrwt>
<totfact> 0.73743509E+00</totfact>
</mgrwt>
</event>
<event>
 6    1  0.4630212E-004  0.2495332E+04  0.7818608E-02  0.8404651E-01
          2   -1    0    0  501    0  0.00000000000E+00  0.00000000000E+00  0.22370094503E+04  0.22370094503E+04  0.00000000000E+00 0.  1.
         -2   -1    0    0    0  501 -0.00000000000E+00 -0.00000000000E+00 -0.69587105588E+03  0.69587105588E+03  0.00000000000E+00 0. -1.
         23    2    1    2    0    0 -0.27394603144E+03  0.30359698022E+03  0.21549721659E+04  0.21953105411E+04  0.90916343319E+02 0.  0.
         11    1    3    3    0    0 -0.22801877435E+03  0.28695383656E+03  0.17948393958E+04  0.18318797784E+04  0.00000000000E+00 0. -1.
        -11    1    3    3    0    0 -0.45927257087E+02  0.16643143657E+02  0.36013277010E+03  0.36343076270E+03  0.00000000000E+00 0.  1.
         22    1    1    2    0    0  0.27394603144E+03 -0.30359698022E+03 -0.61383377142E+03  0.73756996514E+03  0.00000000000E+00 0. -1.
<mgrwt>
<rscale>  0 0.24953317E+04</rscale>
<asrwt>0</asrwt>
<pdfrwt beam="1">  1        2 0.34415530E+00 0.24953317E+04</pdfrwt>
<pdfrwt beam="2">  1       -2 0.10705709E+00 0.24953317E+04</pdfrwt>
<totfact> 0.30801536E+00</totfact>
</mgrwt>
</event>
<event>
 6    1  0.4630212E-004  0.9847131E+03  0.7818608E-02  0.9325472E-01
         -2   -1    0    0    0  501 -0.00000000000E+00  0.00000000000E+00  0.15478471730E+03  0.15478471730E+03  0.00000000000E+00 0. -1.
          2   -1    0    0  501    0  0.00000000000E+00 -0.00000000000E+00 -0.15661428372E+04  0.15661428372E+04  0.00000000000E+00 0.  1.
         23    2    1    2    0    0 -0.19937599373E+03  0.26252868917E+03 -0.13410085176E+04  0.13838501657E+04  0.89807223567E+02 0.  0.
         13    1    3    3    0    0 -0.12383662885E+03  0.10558278177E+03 -0.76331168865E+03  0.78046650696E+03  0.00000000000E+00 0. -1.
        -13    1    3    3    0    0 -0.75539364878E+02  0.15694590740E+03 -0.57769682891E+03  0.60338365874E+03  0.00000000000E+00 0.  1.
         22    1    1    2    0    0  0.19937599373E+03 -0.26252868917E+03 -0.70349602363E+02  0.33707738884E+03  0.00000000000E+00 0. -1.
<mgrwt>
<rscale>  0 0.98471311E+03</rscale>
<asrwt>0</asrwt>
<pdfrwt beam="1">  1        2 0.24094506E+00 0.98471311E+03</pdfrwt>
<pdfrwt beam="2">  1       -2 0.23813033E-01 0.98471311E+03</pdfrwt>
<totfact> 0.18227804E+02</totfact>
</mgrwt>
</event>
<event>
 6    1  0.4630212E-004  0.1903625E+04  0.7818608E-02  0.8653054E-01
         -2   -1    0    0    0  501 -0.00000000000E+00  0.00000000000E+00  0.34613218472E+03  0.34613218472E+03  0.00000000000E+00 0. -1.
          2   -1    0    0  501    0  0.00000000000E+00 -0.00000000000E+00 -0.26173437977E+04  0.26173437977E+04  0.00000000000E+00 0.  1.
         23    2    1    2    0    0 -0.31376874783E+03  0.30311774706E+03  0.17452460664E+03  0.47913364455E+03  0.93696399738E+02 0.  0.
         11    1    3    3    0    0 -0.55730463607E+00  0.29353461907E+02  0.19256794617E+02  0.35110688591E+02  0.00000000000E+00 0.  1.
        -11    1    3    3    0    0 -0.31321144319E+03  0.27376428515E+03  0.15526781203E+03  0.44402295596E+03  0.00000000000E+00 0. -1.
         22    1    1    2    0    0  0.31376874783E+03 -0.30311774706E+03 -0.24457362197E+04  0.24843423379E+04  0.00000000000E+00 0.  1.
<mgrwt>
<rscale>  0 0.19036249E+04</rscale>
<asrwt>0</asrwt>
<pdfrwt beam="1">  1        2 0.40266828E+00 0.19036249E+04</pdfrwt>
<pdfrwt beam="2">  1       -2 0.53251104E-01 0.19036249E+04</pdfrwt>
<totfact> 0.92642039E+00</totfact>
</mgrwt>
</event>
<event>
 6    1  0.4630212E-004  0.2795776E+04  0.7818608E-02  0.8304581E-01
         -2   -1    0    0    0  501 -0.00000000000E+00  0.00000000000E+00  0.92258783421E+03  0.92258783421E+03  0.00000000000E+00 0. -1.
          2   -1    0    0  501    0  0.00000000000E+00 -0.00000000000E+00 -0.21180540980E+04  0.21180540980E+04  0.00000000000E+00 0.  1.
         23    2    1    2    0    0 -0.64204010158E+02  0.64694569048E+03  0.74712598468E+03  0.99214845524E+03  0.59164507162E+02 0.  0.
         11    1    3    3    0    0 -0.50154078634E+02  0.22564504906E+03  0.25540033339E+03  0.34447126160E+03  0.00000000000E+00 0. -1.
        -11    1    3    3    0    0 -0.14049931524E+02  0.42130064142E+03  0.49172565129E+03  0.64767719365E+03  0.00000000000E+00 0.  1.
         22    1    1    2    0    0  0.64204010158E+02 -0.64694569048E+03 -0.19425922485E+04  0.20484934770E+04  0.00000000000E+00 0.  1.
<mgrwt>
<rscale>  0 0.27957761E+04</rscale>
<asrwt>0</asrwt>
<pdfrwt beam="1">  1        2 0.32585447E+00 0.27957761E+04</pdfrwt>
<pdfrwt beam="2">  1       -2 0.14193659E+00 0.27957761E+04</pdfrwt>
<totfact> 0.17316400E+00</totfact>
</mgrwt>
</event>
<event>
 6    1  0.4630212E-004  0.3580795E+04  0.7818608E-02  0.8094905E-01
         -2   -1    0    0    0  501 -0.00000000000E+00  0.00000000000E+00  0.22510166869E+04  0.22510166869E+04  0.00000000000E+00 0. -1.
          2   -1    0    0  501    0  0.00000000000E+00 -0.00000000000E+00 -0.14240331475E+04  0.14240331475E+04  0.00000000000E+00 0.  1.
         23    2    1    2    0    0  0.15952914621E+04  0.73944166964E+03  0.73743126874E+02  0.17621724335E+04  0.89915542433E+02 0.  0.
         13    1    3    3    0    0  0.12172718354E+04  0.53145406198E+03  0.30880085731E+02  0.13285886199E+04  0.00000000000E+00 0. -1.
        -13    1    3    3    0    0  0.37801962667E+03  0.20798760767E+03  0.42863041143E+02  0.43358381357E+03  0.00000000000E+00 0.  1.
         22    1    1    2    0    0 -0.15952914621E+04 -0.73944166964E+03  0.75324041248E+03  0.19128774009E+04  0.00000000000E+00 0. -1.
<mgrwt>
<rscale>  0 0.35807945E+04</rscale>
<asrwt>0</asrwt>
<pdfrwt beam="1">  1        2 0.21908202E+00 0.35807945E+04</pdfrwt>
<pdfrwt beam="2">  1       -2 0.34631026E+00 0.35807945E+04</pdfrwt>
<totfact> 0.18777167E-01</totfact>
</mgrwt>
</event>
<event>
 6    1  0.4630212E-004  0.3747132E+04  0.7818608E-02  0.8057596E-01
         -2   -1    0    0    0  501 -0.00000000000E+00  0.00000000000E+00  0.18445764241E+04  0.18445764241E+04  0.00000000000E+00 0. -1.
          2   -1    0    0  501    0  0.00000000000E+00 -0.00000000000E+00 -0.19030112065E+04  0.19030112065E+04  0.00000000000E+00 0.  1.
         23    2    1    2    0    0 -0.12422218610E+04  0.99687243903E+03  0.95543842429E+03  0.18595175337E+04  0.89850229487E+02 0.  0.
         11    1    3    3    0    0 -0.59479423681E+03  0.53490500737E+03  0.48025961632E+03  0.93303421701E+03  0.00000000000E+00 0. -1.
        -11    1    3    3    0    0 -0.64742762423E+03  0.46196743166E+03  0.47517880797E+03  0.92648331668E+03  0.00000000000E+00 0.  1.
         22    1    1    2    0    0  0.12422218610E+04 -0.99687243903E+03 -0.10138732067E+04  0.18880700970E+04  0.00000000000E+00 0.  1.
<mgrwt>
<rscale>  0 0.37471320E+04</rscale>
<asrwt>0</asrwt>
<pdfrwt beam="1">  1        2 0.29277096E+00 0.37471320E+04</pdfrwt>
<pdfrwt beam="2">  1       -2 0.28378099E+00 0.37471320E+04</pdfrwt>
<totfact> 0.24326398E-01</totfact>
</mgrwt>
</event>
<event>
 6    1  0.4630212E-004  0.3977687E+04  0.7818608E-02  0.8009063E-01
          2   -1    0    0  501    0  0.00000000000E+00  0.00000000000E+00  0.20007129957E+04  0.20007129957E+04  0.00000000000E+00 0.  1.
         -2   -1    0    0    0  501 -0.00000000000E+00 -0.00000000000E+00 -0.19770439904E+04  0.19770439904E+04  0.00000000000E+00 0. -1.
         23    2    1    2    0    0  0.96368597726E+03  0.17123525863E+04 -0.28901881711E+03  0.19881299566E+04  0.91031889944E+02 0.  0.
         11    1    3    3    0    0  0.38945112148E+03  0.78195988812E+03 -0.13844527646E+03  0.88447755043E+03  0.00000000000E+00 0. -1.
        -11    1    3    3    0    0  0.57423485578E+03  0.93039269817E+03 -0.15057354066E+03  0.11036524061E+04  0.00000000000E+00 0.  1.
         22    1    1    2    0    0 -0.96368597726E+03 -0.17123525863E+04  0.31268782234E+03  0.19896270296E+04  0.00000000000E+00 0.  1.
<mgrwt>
<rscale>  0 0.39776866E+04</rscale>
<asrwt>0</asrwt>
<pdfrwt beam="1">  1        2 0.30780200E+00 0.39776866E+04</pdfrwt>
<pdfrwt beam="2">  1       -2 0.30416062E+00 0.39776866E+04</pdfrwt>
<totfact> 0.15810956E-01</totfact>
</mgrwt>
</event>
<event>
 6    1  0.4630212E-004  0.6755029E+03  0.7818608E-02  0.9760068E-01
          4   -1    0    0  501    0  0.00000000000E+00  0.00000000000E+00  0.14628066017E+03  0.14628066017E+03  0.00000000000E+00 0.  1.
         -4   -1    0    0    0  501 -0.00000000000E+00 -0.00000000000E+00 -0.77984366416E+03  0.77984366416E+03  0.00000000000E+00 0. -1.
         23    2    1    2    0    0 -0.91721775741E+02  0.31614333754E+03 -0.25629248738E+03  0.42543226656E+03  0.83350346897E+02 0.  0.
         13    1    3    3    0    0 -0.35028374605E+02  0.39884022423E+02 -0.17482008318E+02  0.55886875802E+02  0.00000000000E+00 0.  1.
        -13    1    3    3    0    0 -0.56693401136E+02  0.27625931512E+03 -0.23881047907E+03  0.36954539076E+03  0.00000000000E+00 0. -1.
         22    1    1    2    0    0  0.91721775741E+02 -0.31614333754E+03 -0.37727051660E+03  0.50069205777E+03  0.00000000000E+00 0.  1.
<mgrwt>
<rscale>  0 0.67550291E+03</rscale>
<asrwt>0</asrwt>
<pdfrwt beam="1">  1        4 0.22504717E-01 0.67550291E+03</pdfrwt>
<pdfrwt beam="2">  1       -4 0.11997595E+00 0.67550291E+03</pdfrwt>
<totfact> 0.19533351E+01</totfact>
</mgrwt>
</event>
<event>
 6    1  0.4630212E-004  0.2758661E+04  0.7818608E-02  0.8316219E-01
         -2   -1    0    0    0  501 -0.00000000000E+00  0.00000000000E+00  0.15259585380E+04  0.15259585380E+04  0.00000000000E+00 0.  1.
          2   -1    0    0  501    0  0.00000000000E+00 -0.00000000000E+00 -0.12467916246E+04  0.12467916246E+04  0.00000000000E+00 0. -1.
         23    2    1    2    0    0 -0.73039375907E+03 -0.11387880651E+04  0.40175331868E+03  0.14143169742E+04  0.92593055065E+02 0.  0.
         13    1    3    3    0    0 -0.53806214453E+03 -0.79800488876E+03  0.24810062597E+03  0.99391981289E+03  0.00000000000E+00 0. -1.
        -13    1    3    3    0    0 -0.19233161454E+03 -0.34078317638E+03  0.15365269271E+03  0.42039716131E+03  0.00000000000E+00 0.  1.
         22    1    1    2    0    0  0.73039375907E+03  0.11387880651E+04 -0.12258640531E+03  0.13584331884E+04  0.00000000000E+00 0.  1.
<mgrwt>
<rscale>  0 0.27586608E+04</rscale>
<asrwt>0</asrwt>
<pdfrwt beam="1">  1        2 0.19181410E+00 0.27586608E+04</pdfrwt>
<pdfrwt beam="2">  1       -2 0.23476285E+00 0.27586608E+04</pdfrwt>
<totfact> 0.12383399E+00</totfact>
</mgrwt>
</event>
<event>
 6    1  0.4630212E-004  0.1444999E+04  0.7818608E-02  0.8921875E-01
          2   -1    0    0  501    0  0.00000000000E+00  0.00000000000E+00  0.31496886623E+04  0.31496886623E+04  0.00000000000E+00 0.  1.
         -2   -1    0    0    0  501 -0.00000000000E+00 -0.00000000000E+00 -0.16573245684E+03  0.16573245684E+03  0.00000000000E+00 0. -1.
         23    2    1    2    0    0 -0.51760104896E+03 -0.22100914181E+03  0.25267613952E+04  0.25903121748E+04  0.91859283439E+02 0.  0.
         11    1    3    3    0    0 -0.24477149183E+03 -0.15296694254E+03  0.12293925652E+04  0.12628214633E+04  0.00000000000E+00 0. -1.
        -11    1    3    3    0    0 -0.27282955713E+03 -0.68042199267E+02  0.12973688299E+04  0.13274907115E+04  0.00000000000E+00 0.  1.
         22    1    1    2    0    0  0.51760104896E+03  0.22100914181E+03  0.45719481028E+03  0.72510894436E+03  0.00000000000E+00 0. -1.
<mgrwt>
<rscale>  0 0.14449992E+04</rscale>
<asrwt>0</asrwt>
<pdfrwt beam="1">  1        2 0.48456744E+00 0.14449992E+04</pdfrwt>
<pdfrwt beam="2">  1       -2 0.25497303E-01 0.14449992E+04</pdfrwt>
<totfact> 0.18967800E+01</totfact>
</mgrwt>
</event>
<event>
 6    1  0.4630212E-004  0.1539400E+04  0.7818608E-02  0.8858667E-01
          2   -1    0    0  501    0  0.00000000000E+00  0.00000000000E+00  0.28571942242E+04  0.28571942242E+04  0.00000000000E+00 0.  1.
         -2   -1    0    0    0  501 -0.00000000000E+00 -0.00000000000E+00 -0.20734953098E+03  0.20734953098E+03  0.00000000000E+00 0. -1.
         23    2    1    2    0    0 -0.26517843408E+03  0.45033159039E+02  0.27593841308E+04  0.27741191080E+04  0.95856438008E+02 0.  0.
         11    1    3    3    0    0 -0.18088652778E+03  0.74604570809E+02  0.18127182707E+04  0.18232480103E+04  0.00000000000E+00 0.  1.
        -11    1    3    3    0    0 -0.84291906302E+02 -0.29571411770E+02  0.94666586006E+03  0.95087109771E+03  0.00000000000E+00 0. -1.
         22    1    1    2    0    0  0.26517843408E+03 -0.45033159039E+02 -0.10953943757E+03  0.29042464719E+03  0.00000000000E+00 0. -1.
<mgrwt>
<rscale>  0 0.15393997E+04</rscale>
<asrwt>0</asrwt>
<pdfrwt beam="1">  1        2 0.43956832E+00 0.15393997E+04</pdfrwt>
<pdfrwt beam="2">  1       -2 0.31899930E-01 0.15393997E+04</pdfrwt>
<totfact> 0.18888652E+01</totfact>
</mgrwt>
</event>
<event>
 6    1  0.4630212E-004  0.1108856E+04  0.7818608E-02  0.9196603E-01
         -2   -1    0    0    0  501 -0.00000000000E+00  0.00000000000E+00  0.57457471996E+03  0.57457471996E+03  0.00000000000E+00 0. -1.
          2   -1    0    0  501    0  0.00000000000E+00 -0.00000000000E+00 -0.53498764863E+03  0.53498764863E+03  0.00000000000E+00 0.  1.
         23    2    1    2    0    0  0.56263782053E+02  0.22371556814E+03  0.51853373685E+03  0.57795708550E+03  0.10928352040E+03 0.  0.
         11    1    3    3    0    0  0.86678571273E+02  0.12715306190E+03  0.30357845310E+03  0.34035415827E+03  0.00000000000E+00 0. -1.
        -11    1    3    3    0    0 -0.30414789220E+02  0.96562506249E+02  0.21495528375E+03  0.23760292723E+03  0.00000000000E+00 0.  1.
         22    1    1    2    0    0 -0.56263782053E+02 -0.22371556814E+03 -0.47894666551E+03  0.53160528309E+03  0.00000000000E+00 0.  1.
<mgrwt>
<rscale>  0 0.11088559E+04</rscale>
<asrwt>0</asrwt>
<pdfrwt beam="1">  1        2 0.82305792E-01 0.11088559E+04</pdfrwt>
<pdfrwt beam="2">  1       -2 0.88396111E-01 0.11088559E+04</pdfrwt>
<totfact> 0.62212551E+01</totfact>
</mgrwt>
</event>
<event>
 6    1  0.4630212E-004  0.3916845E+04  0.7818608E-02  0.8021535E-01
         -2   -1    0    0    0  501 -0.00000000000E+00  0.00000000000E+00  0.14943369971E+04  0.14943369971E+04  0.00000000000E+00 0. -1.
          2   -1    0    0  501    0  0.00000000000E+00 -0.00000000000E+00 -0.25666359159E+04  0.25666359159E+04  0.00000000000E+00 0.  1.
         23    2    1    2    0    0 -0.56866093260E+03 -0.16699979500E+03 -0.24706465672E+04  0.25422101490E+04  0.86451105951E+02 0.  0.
         11    1    3    3    0    0 -0.11719396838E+03 -0.43343253794E+02 -0.38869823530E+03  0.40828835643E+03  0.00000000000E+00 0.  1.
        -11    1    3    3    0    0 -0.45146696422E+03 -0.12365654121E+03 -0.20819483319E+04  0.21339217925E+04  0.00000000000E+00 0. -1.
         22    1    1    2    0    0  0.56866093260E+03  0.16699979500E+03  0.13983476484E+04  0.15187627641E+04  0.00000000000E+00 0. -1.
<mgrwt>
<rscale>  0 0.39168452E+04</rscale>
<asrwt>0</asrwt>
<pdfrwt beam="1">  1        2 0.39486706E+00 0.39168452E+04</pdfrwt>
<pdfrwt beam="2">  1       -2 0.22989800E+00 0.39168452E+04</pdfrwt>
<totfact> 0.21647016E-01</totfact>
</mgrwt>
</event>
<event>
 6    1  0.4630212E-004  0.1965526E+04  0.7818608E-02  0.8622910E-01
          2   -1    0    0  501    0  0.00000000000E+00  0.00000000000E+00  0.90883061616E+03  0.90883061616E+03  0.00000000000E+00 0.  1.
         -2   -1    0    0    0  501 -0.00000000000E+00 -0.00000000000E+00 -0.10627096989E+04  0.10627096989E+04  0.00000000000E+00 0. -1.
         23    2    1    2    0    0  0.19455677318E+03 -0.95998232677E+03 -0.22241541642E+02  0.98323527715E+03  0.82695334594E+02 0.  0.
         11    1    3    3    0    0  0.10093877865E+03 -0.64388383621E+03  0.11445705969E+02  0.65184816925E+03  0.00000000000E+00 0. -1.
        -11    1    3    3    0    0  0.93617994525E+02 -0.31609849055E+03 -0.33687247611E+02  0.33138710789E+03  0.00000000000E+00 0.  1.
         22    1    1    2    0    0 -0.19455677318E+03  0.95998232677E+03 -0.13163754109E+03  0.98830503789E+03  0.00000000000E+00 0.  1.
<mgrwt>
<rscale>  0 0.19655260E+04</rscale>
<asrwt>0</asrwt>
<pdfrwt beam="1">  1        2 0.13982010E+00 0.19655260E+04</pdfrwt>
<pdfrwt beam="2">  1       -2 0.16349380E+00 0.19655260E+04</pdfrwt>
<totfact> 0.63956761E+00</totfact>
</mgrwt>
</event>
<event>
 6    1  0.4630212E-004  0.1201964E+04  0.7818608E-02  0.9111139E-01
         -1   -1    0    0    0  501 -0.00000000000E+00  0.00000000000E+00  0.21446063312E+03  0.21446063312E+03  0.00000000000E+00 0. -1.
          1   -1    0    0  501    0  0.00000000000E+00 -0.00000000000E+00 -0.16841281833E+04  0.16841281833E+04  0.00000000000E+00 0.  1.
         23    2    1    2    0    0  0.54306467421E+03 -0.23077385525E+03 -0.88765927727E+03  0.10697888150E+04  0.91286929729E+02 0.  0.
         13    1    3    3    0    0  0.25138831739E+03 -0.13150367105E+03 -0.35499515196E+03  0.45443465926E+03  0.00000000000E+00 0.  1.
        -13    1    3    3    0    0  0.29167635682E+03 -0.99270184196E+02 -0.53266412531E+03  0.61535415574E+03  0.00000000000E+00 0. -1.
         22    1    1    2    0    0 -0.54306467421E+03  0.23077385525E+03 -0.58200827294E+03  0.82880000146E+03  0.00000000000E+00 0. -1.
<mgrwt>
<rscale>  0 0.12019637E+04</rscale>
<asrwt>0</asrwt>
<pdfrwt beam="1">  1        1 0.25909664E+00 0.12019637E+04</pdfrwt>
<pdfrwt beam="2">  1       -1 0.32993943E-01 0.12019637E+04</pdfrwt>
<totfact> 0.41710717E+01</totfact>
</mgrwt>
</event>
<event>
 6    1  0.4630212E-004  0.1864155E+04  0.7818608E-02  0.8672907E-01
         -2   -1    0    0    0  501 -0.00000000000E+00  0.00000000000E+00  0.30262466876E+04  0.30262466876E+04  0.00000000000E+00 0. -1.
          2   -1    0    0  501    0  0.00000000000E+00 -0.00000000000E+00 -0.28707781792E+03  0.28707781792E+03  0.00000000000E+00 0.  1.
         23    2    1    2    0    0  0.50923320379E+03  0.37612796407E+03  0.25833264522E+04  0.26613447817E+04  0.91595782694E+02 0.  0.
         13    1    3    3    0    0  0.41032963943E+03  0.31587481033E+03  0.22375821961E+04  0.22967197028E+04  0.00000000000E+00 0.  1.
        -13    1    3    3    0    0  0.98903564357E+02  0.60253153738E+02  0.34574425606E+03  0.36462507892E+03  0.00000000000E+00 0. -1.
         22    1    1    2    0    0 -0.50923320379E+03 -0.37612796407E+03  0.15584241752E+03  0.65197972383E+03  0.00000000000E+00 0.  1.
<mgrwt>
<rscale>  0 0.18641548E+04</rscale>
<asrwt>0</asrwt>
<pdfrwt beam="1">  1        2 0.44165820E-01 0.18641548E+04</pdfrwt>
<pdfrwt beam="2">  1       -2 0.46557639E+00 0.18641548E+04</pdfrwt>
<totfact> 0.29734546E-01</totfact>
</mgrwt>
</event>
<event>
 6    1  0.4630212E-004  0.3015931E+04  0.7818608E-02  0.8239196E-01
         -2   -1    0    0    0  501 -0.00000000000E+00  0.00000000000E+00  0.18115272412E+04  0.18115272412E+04  0.00000000000E+00 0. -1.
          2   -1    0    0  501    0  0.00000000000E+00 -0.00000000000E+00 -0.12552723592E+04  0.12552723592E+04  0.00000000000E+00 0.  1.
         23    2    1    2    0    0  0.13954447121E+03  0.74264626282E+03  0.16038391585E+04  0.17751228036E+04  0.88118047066E+02 0.  0.
         11    1    3    3    0    0  0.10211535420E+02  0.28336434892E+03  0.58617682200E+03  0.65115504786E+03  0.00000000000E+00 0. -1.
        -11    1    3    3    0    0  0.12933293579E+03  0.45928191390E+03  0.10176623365E+04  0.11239677557E+04  0.00000000000E+00 0.  1.
         22    1    1    2    0    0 -0.13954447121E+03 -0.74264626282E+03 -0.10475842765E+04  0.12916767969E+04  0.00000000000E+00 0.  1.
<mgrwt>
<rscale>  0 0.30159311E+04</rscale>
<asrwt>0</asrwt>
<pdfrwt beam="1">  1        2 0.19311882E+00 0.30159311E+04</pdfrwt>
<pdfrwt beam="2">  1       -2 0.27869650E+00 0.30159311E+04</pdfrwt>
<totfact> 0.64390400E-01</totfact>
</mgrwt>
</event>
<event>
 6    1  0.4630212E-004  0.2031009E+04  0.7818608E-02  0.8592259E-01
          2   -1    0    0  501    0  0.00000000000E+00  0.00000000000E+00  0.31837468348E+04  0.31837468348E+04  0.00000000000E+00 0.  1.
         -2   -1    0    0    0  501 -0.00000000000E+00 -0.00000000000E+00 -0.32391052603E+03  0.32391052603E+03  0.00000000000E+00 0. -1.
         23    2    1    2    0    0  0.59436986182E+03 -0.77116356944E+03  0.94707164598E+03  0.13613494988E+04  0.91427412479E+02 0.  0.
         11    1    3    3    0    0  0.23260736121E+03 -0.30217057424E+03  0.30968522083E+03  0.49124146448E+03  0.00000000000E+00 0. -1.
        -11    1    3    3    0    0  0.36176250061E+03 -0.46899299519E+03  0.63738642515E+03  0.87010803430E+03  0.00000000000E+00 0.  1.
         22    1    1    2    0    0 -0.59436986182E+03  0.77116356944E+03  0.19127646628E+04  0.21463078621E+04  0.00000000000E+00 0.  1.
<mgrwt>
<rscale>  0 0.20310087E+04</rscale>
<asrwt>0</asrwt>
<pdfrwt beam="1">  1        2 0.48980718E+00 0.20310087E+04</pdfrwt>
<pdfrwt beam="2">  1       -2 0.49832391E-01 0.20310087E+04</pdfrwt>
<totfact> 0.47070234E+00</totfact>
</mgrwt>
</event>
<event>
 6    1  0.4630212E-004  0.1427322E+04  0.7818608E-02  0.8934276E-01
          2   -1    0    0  501    0  0.00000000000E+00  0.00000000000E+00  0.18024349221E+04  0.18024349221E+04  0.00000000000E+00 0.  1.
         -2   -1    0    0    0  501 -0.00000000000E+00 -0.00000000000E+00 -0.28256877362E+03  0.28256877362E+03  0.00000000000E+00 0. -1.
         23    2    1    2    0    0  0.25842955993E+03 -0.16133070092E+03 -0.17531316133E+03  0.36266623607E+03  0.89323354966E+02 0.  0.
         11    1    3    3    0    0  0.16330307565E+03 -0.57134029303E+02 -0.12263165745E+03  0.21206299826E+03  0.00000000000E+00 0.  1.
        -11    1    3    3    0    0  0.95126484279E+02 -0.10419667162E+03 -0.52681503883E+02  0.15060323781E+03  0.00000000000E+00 0. -1.
         22    1    1    2    0    0 -0.25842955993E+03  0.16133070092E+03  0.16951793098E+04  0.17223374597E+04  0.00000000000E+00 0.  1.
<mgrwt>
<rscale>  0 0.14273217E+04</rscale>
<asrwt>0</asrwt>
<pdfrwt beam="1">  1        2 0.27729767E+00 0.14273217E+04</pdfrwt>
<pdfrwt beam="2">  1       -2 0.43472120E-01 0.14273217E+04</pdfrwt>
<totfact> 0.41926911E+01</totfact>
</mgrwt>
</event>
<event>
 6    1  0.4630212E-004  0.7798335E+03  0.7818608E-02  0.9589675E-01
          1   -1    0    0  501    0  0.00000000000E+00  0.00000000000E+00  0.14999181041E+03  0.14999181041E+03  0.00000000000E+00 0.  1.
         -1   -1    0    0    0  501 -0.00000000000E+00 -0.00000000000E+00 -0.10136224214E+04  0.10136224214E+04  0.00000000000E+00 0. -1.
         23    2    1    2    0    0  0.28398092998E+03  0.18413649479E+03 -0.16428731150E+03  0.38667635279E+03  0.89313290082E+02 0.  0.
         11    1    3    3    0    0  0.10865596549E+02  0.39395776334E+02 -0.21786544066E+02  0.46311358042E+02  0.00000000000E+00 0. -1.
        -11    1    3    3    0    0  0.27311533343E+03  0.14474071845E+03 -0.14250076744E+03  0.34036499475E+03  0.00000000000E+00 0.  1.
         22    1    1    2    0    0 -0.28398092998E+03 -0.18413649479E+03 -0.69934329944E+03  0.77693787897E+03  0.00000000000E+00 0. -1.
<mgrwt>
<rscale>  0 0.77983347E+03</rscale>
<asrwt>0</asrwt>
<pdfrwt beam="1">  1        1 0.23075663E-01 0.77983347E+03</pdfrwt>
<pdfrwt beam="2">  1       -1 0.15594191E+00 0.77983347E+03</pdfrwt>
<totfact> 0.69209803E+01</totfact>
</mgrwt>
</event>
<event>
 6    1  0.4630212E-004  0.7656547E+03  0.7818608E-02  0.9611106E-01
         -2   -1    0    0    0  501 -0.00000000000E+00  0.00000000000E+00  0.11388673991E+03  0.11388673991E+03  0.00000000000E+00 0. -1.
          2   -1    0    0  501    0  0.00000000000E+00 -0.00000000000E+00 -0.12868642956E+04  0.12868642956E+04  0.00000000000E+00 0.  1.
         23    2    1    2    0    0  0.16089660358E+03 -0.19235847969E+03 -0.11110469933E+04  0.11424394091E+04  0.88616479455E+02 0.  0.
         11    1    3    3    0    0  0.87870926937E+02 -0.11074489022E+03 -0.80657819484E+03  0.81887368678E+03  0.00000000000E+00 0. -1.
        -11    1    3    3    0    0  0.73025676640E+02 -0.81613589475E+02 -0.30446879847E+03  0.32356572234E+03  0.00000000000E+00 0.  1.
         22    1    1    2    0    0 -0.16089660358E+03  0.19235847969E+03 -0.61930562334E+02  0.25831162634E+03  0.00000000000E+00 0. -1.
<mgrwt>
<rscale>  0 0.76565470E+03</rscale>
<asrwt>0</asrwt>
<pdfrwt beam="1">  1        2 0.19797912E+00 0.76565470E+03</pdfrwt>
<pdfrwt beam="2">  1       -2 0.17521037E-01 0.76565470E+03</pdfrwt>
<totfact> 0.45581436E+02</totfact>
</mgrwt>
</event>
<event>
 6    1  0.4630212E-004  0.9568492E+03  0.7818608E-02  0.9357181E-01
         -2   -1    0    0    0  501 -0.00000000000E+00  0.00000000000E+00  0.21686178678E+03  0.21686178678E+03  0.00000000000E+00 0. -1.
          2   -1    0    0  501    0  0.00000000000E+00 -0.00000000000E+00 -0.10554652914E+04  0.10554652914E+04  0.00000000000E+00 0.  1.
         23    2    1    2    0    0 -0.19234285499E+03 -0.78891653593E+02  0.14353671981E+03  0.26842514705E+03  0.90717158011E+02 0.  0.
         11    1    3    3    0    0 -0.16605059251E+03 -0.26569347808E+02  0.11000100326E+03  0.20094514235E+03  0.00000000000E+00 0.  1.
        -11    1    3    3    0    0 -0.26292262489E+02 -0.52322305785E+02  0.33535716555E+02  0.67480004700E+02  0.00000000000E+00 0. -1.
         22    1    1    2    0    0  0.19234285499E+03  0.78891653593E+02 -0.98214022442E+03  0.10039019311E+04  0.00000000000E+00 0.  1.
<mgrwt>
<rscale>  0 0.95684918E+03</rscale>
<asrwt>0</asrwt>
<pdfrwt beam="1">  1        2 0.16237928E+00 0.95684918E+03</pdfrwt>
<pdfrwt beam="2">  1       -2 0.33363351E-01 0.95684918E+03</pdfrwt>
<totfact> 0.19474507E+02</totfact>
</mgrwt>
</event>
<event>
 6    1  0.4630212E-004  0.4599749E+04  0.7818608E-02  0.7893403E-01
          2   -1    0    0  501    0  0.00000000000E+00  0.00000000000E+00  0.18216903004E+04  0.18216903004E+04  0.00000000000E+00 0.  1.
         -2   -1    0    0    0  501 -0.00000000000E+00 -0.00000000000E+00 -0.29035797522E+04  0.29035797522E+04  0.00000000000E+00 0. -1.
         23    2    1    2    0    0  0.13456201968E+04  0.11303116900E+04  0.98138504590E+03  0.20150302323E+04  0.94509248128E+02 0.  0.
         11    1    3    3    0    0  0.14633853210E+03  0.12746283246E+03  0.14321570580E+03  0.24118971376E+03  0.00000000000E+00 0.  1.
        -11    1    3    3    0    0  0.11992816647E+04  0.10028488575E+04  0.83816934010E+03  0.17738405185E+04  0.00000000000E+00 0. -1.
         22    1    1    2    0    0 -0.13456201968E+04 -0.11303116900E+04 -0.20632744977E+04  0.27102398203E+04  0.00000000000E+00 0. -1.
<mgrwt>
<rscale>  0 0.45997492E+04</rscale>
<asrwt>0</asrwt>
<pdfrwt beam="1">  1        2 0.28026005E+00 0.45997492E+04</pdfrwt>
<pdfrwt beam="2">  1       -2 0.44670457E+00 0.45997492E+04</pdfrwt>
<totfact> 0.23056272E-02</totfact>
</mgrwt>
</event>
<event>
 6    1  0.4630212E-004  0.1745541E+04  0.7818608E-02  0.8735808E-01
          2   -1    0    0  501    0  0.00000000000E+00  0.00000000000E+00  0.19777035593E+04  0.19777035593E+04  0.00000000000E+00 0. -1.
         -2   -1    0    0    0  501 -0.00000000000E+00 -0.00000000000E+00 -0.38515820846E+03  0.38515820846E+03  0.00000000000E+00 0.  1.
         23    2    1    2    0    0  0.37047983376E+03  0.18046829421E+03 -0.23917580903E+03  0.48535636963E+03  0.92420914751E+02 0.  0.
         13    1    3    3    0    0  0.10797181924E+03  0.96754236776E+02 -0.10418433818E+03  0.17853199267E+03  0.00000000000E+00 0. -1.
        -13    1    3    3    0    0  0.26250801452E+03  0.83714057431E+02 -0.13499147085E+03  0.30682437696E+03  0.00000000000E+00 0.  1.
         22    1    1    2    0    0 -0.37047983376E+03 -0.18046829421E+03  0.18317211599E+04  0.18775053981E+04  0.00000000000E+00 0. -1.
<mgrwt>
<rscale>  0 0.17455415E+04</rscale>
<asrwt>0</asrwt>
<pdfrwt beam="1">  1        2 0.30426208E+00 0.17455415E+04</pdfrwt>
<pdfrwt beam="2">  1       -2 0.59255110E-01 0.17455415E+04</pdfrwt>
<totfact> 0.17334593E+01</totfact>
</mgrwt>
</event>
<event>
 6    1  0.4630212E-004  0.1559041E+04  0.7818608E-02  0.8846113E-01
          2   -1    0    0  501    0  0.00000000000E+00  0.00000000000E+00  0.20995196566E+04  0.20995196566E+04  0.00000000000E+00 0.  1.
         -2   -1    0    0    0  501 -0.00000000000E+00 -0.00000000000E+00 -0.28942457016E+03  0.28942457016E+03  0.00000000000E+00 0. -1.
         23    2    1    2    0    0  0.76191383899E+02  0.33276056566E+03  0.19763934889E+04  0.20092208015E+04  0.11959216181E+03 0.  0.
         11    1    3    3    0    0 -0.10135197049E+02  0.97036658321E+01  0.27041446637E+03  0.27077826163E+03  0.00000000000E+00 0.  1.
        -11    1    3    3    0    0  0.86326580949E+02  0.32305689983E+03  0.17059790225E+04  0.17384425398E+04  0.00000000000E+00 0. -1.
         22    1    1    2    0    0 -0.76191383899E+02 -0.33276056566E+03 -0.16629840245E+03  0.37972342527E+03  0.00000000000E+00 0. -1.
<mgrwt>
<rscale>  0 0.15590415E+04</rscale>
<asrwt>0</asrwt>
<pdfrwt beam="1">  1        2 0.32300301E+00 0.15590415E+04</pdfrwt>
<pdfrwt beam="2">  1       -2 0.44526858E-01 0.15590415E+04</pdfrwt>
<totfact> 0.27067048E+01</totfact>
</mgrwt>
</event>
<event>
 6    1  0.4630212E-004  0.1662435E+04  0.7818608E-02  0.8783084E-01
          1   -1    0    0  501    0  0.00000000000E+00  0.00000000000E+00  0.98397088556E+03  0.98397088556E+03  0.00000000000E+00 0.  1.
         -1   -1    0    0    0  501 -0.00000000000E+00 -0.00000000000E+00 -0.70217820001E+03  0.70217820001E+03  0.00000000000E+00 0. -1.
         23    2    1    2    0    0  0.59829611618E+03  0.69796664311E+02 -0.43567220179E+03  0.74935365349E+03  0.94291110908E+02 0.  0.
         13    1    3    3    0    0  0.42319330538E+03  0.38065154706E+02 -0.35622080909E+03  0.55446802843E+03  0.00000000000E+00 0.  1.
        -13    1    3    3    0    0  0.17510281080E+03  0.31731509605E+02 -0.79451392697E+02  0.19488562506E+03  0.00000000000E+00 0. -1.
         22    1    1    2    0    0 -0.59829611618E+03 -0.69796664311E+02  0.71746488734E+03  0.93679543208E+03  0.00000000000E+00 0.  1.
<mgrwt>
<rscale>  0 0.16624354E+04</rscale>
<asrwt>0</asrwt>
<pdfrwt beam="1">  1        1 0.15138014E+00 0.16624354E+04</pdfrwt>
<pdfrwt beam="2">  1       -1 0.10802742E+00 0.16624354E+04</pdfrwt>
<totfact> 0.11845722E+01</totfact>
</mgrwt>
</event>
<event>
 6    1  0.4630212E-004  0.2899472E+04  0.7818608E-02  0.8273035E-01
         -2   -1    0    0    0  501 -0.00000000000E+00  0.00000000000E+00  0.15287555123E+04  0.15287555123E+04  0.00000000000E+00 0. -1.
          2   -1    0    0  501    0  0.00000000000E+00 -0.00000000000E+00 -0.13748007567E+04  0.13748007567E+04  0.00000000000E+00 0.  1.
         23    2    1    2    0    0 -0.26326360479E+03  0.76896470042E+02  0.15011173297E+04  0.15287589045E+04  0.92356688160E+02 0.  0.
         13    1    3    3    0    0 -0.19154460976E+03  0.31298125396E+02  0.12108355174E+04  0.12262917925E+04  0.00000000000E+00 0.  1.
        -13    1    3    3    0    0 -0.71718995029E+02  0.45598344647E+02  0.29028181229E+03  0.30246711198E+03  0.00000000000E+00 0. -1.
         22    1    1    2    0    0  0.26326360479E+03 -0.76896470042E+02 -0.13471625740E+04  0.13747973645E+04  0.00000000000E+00 0.  1.
<mgrwt>
<rscale>  0 0.28994718E+04</rscale>
<asrwt>0</asrwt>
<pdfrwt beam="1">  1        2 0.21150781E+00 0.28994718E+04</pdfrwt>
<pdfrwt beam="2">  1       -2 0.23519315E+00 0.28994718E+04</pdfrwt>
<totfact> 0.10246190E+00</totfact>
</mgrwt>
</event>
<event>
 6    1  0.4630212E-004  0.2512757E+04  0.7818608E-02  0.8398455E-01
         -2   -1    0    0    0  501 -0.00000000000E+00  0.00000000000E+00  0.39312576550E+03  0.39312576550E+03  0.00000000000E+00 0. -1.
          2   -1    0    0  501    0  0.00000000000E+00 -0.00000000000E+00 -0.40152212707E+04  0.40152212707E+04  0.00000000000E+00 0.  1.
         23    2    1    2    0    0 -0.11500359134E+04 -0.48196944733E+03 -0.20604739551E+04  0.24099629350E+04  0.86552169005E+02 0.  0.
         11    1    3    3    0    0 -0.28467984776E+03 -0.85337712405E+02 -0.45358194341E+03  0.54227458014E+03  0.00000000000E+00 0. -1.
        -11    1    3    3    0    0 -0.86535606566E+03 -0.39663173492E+03 -0.16068920117E+04  0.18676883548E+04  0.00000000000E+00 0.  1.
         22    1    1    2    0    0  0.11500359134E+04  0.48196944733E+03 -0.15616215501E+04  0.19983841012E+04  0.00000000000E+00 0. -1.
<mgrwt>
<rscale>  0 0.25127570E+04</rscale>
<asrwt>0</asrwt>
<pdfrwt beam="1">  1        2 0.61772634E+00 0.25127570E+04</pdfrwt>
<pdfrwt beam="2">  1       -2 0.60480888E-01 0.25127570E+04</pdfrwt>
<totfact> 0.75697437E-01</totfact>
</mgrwt>
</event>
<event>
 6    1  0.4630212E-004  0.2034612E+04  0.7818608E-02  0.8590607E-01
         -1   -1    0    0    0  501 -0.00000000000E+00  0.00000000000E+00  0.95769786490E+03  0.95769786490E+03  0.00000000000E+00 0. -1.
          1   -1    0    0  501    0  0.00000000000E+00 -0.00000000000E+00 -0.10806239232E+04  0.10806239232E+04  0.00000000000E+00 0.  1.
         23    2    1    2    0    0 -0.83318312402E+03 -0.45346703401E+02 -0.64104711753E+03  0.10561304250E+04  0.90662152951E+02 0.  0.
         11    1    3    3    0    0 -0.60081097969E+03 -0.53097727842E+02 -0.41717301201E+03  0.73336656862E+03  0.00000000000E+00 0. -1.
        -11    1    3    3    0    0 -0.23237214433E+03  0.77510244414E+01 -0.22387410551E+03  0.32276385634E+03  0.00000000000E+00 0.  1.
         22    1    1    2    0    0  0.83318312402E+03  0.45346703401E+02  0.51812105927E+03  0.98219136309E+03  0.00000000000E+00 0. -1.
<mgrwt>
<rscale>  0 0.20346117E+04</rscale>
<asrwt>0</asrwt>
<pdfrwt beam="1">  1        1 0.16624983E+00 0.20346117E+04</pdfrwt>
<pdfrwt beam="2">  1       -1 0.14733813E+00 0.20346117E+04</pdfrwt>
<totfact> 0.44409611E+00</totfact>
</mgrwt>
</event>
<event>
 6    1  0.4630212E-004  0.1260373E+04  0.7818608E-02  0.9061594E-01
         -2   -1    0    0    0  501 -0.00000000000E+00  0.00000000000E+00  0.32662932747E+03  0.32662932747E+03  0.00000000000E+00 0.  1.
          2   -1    0    0  501    0  0.00000000000E+00 -0.00000000000E+00 -0.12158582778E+04  0.12158582778E+04  0.00000000000E+00 0. -1.
         23    2    1    2    0    0  0.30017220079E+03 -0.54901685027E+03 -0.49483763386E+03  0.80284758303E+03  0.90427350361E+02 0.  0.
         13    1    3    3    0    0  0.19206875094E+03 -0.42998486283E+03 -0.35491323732E+03  0.58969550904E+03  0.00000000000E+00 0.  1.
        -13    1    3    3    0    0  0.10810344984E+03 -0.11903198743E+03 -0.13992439654E+03  0.21315207399E+03  0.00000000000E+00 0. -1.
         22    1    1    2    0    0 -0.30017220079E+03  0.54901685027E+03 -0.39439131647E+03  0.73964002225E+03  0.00000000000E+00 0.  1.
<mgrwt>
<rscale>  0 0.12603729E+04</rscale>
<asrwt>0</asrwt>
<pdfrwt beam="1">  1        2 0.18705513E+00 0.12603729E+04</pdfrwt>
<pdfrwt beam="2">  1       -2 0.50250664E-01 0.12603729E+04</pdfrwt>
<totfact> 0.68206896E+01</totfact>
</mgrwt>
</event>
<event>
 6    1  0.4630212E-004  0.1871944E+04  0.7818608E-02  0.8668949E-01
         -2   -1    0    0    0  501 -0.00000000000E+00  0.00000000000E+00  0.57954645725E+03  0.57954645725E+03  0.00000000000E+00 0. -1.
          2   -1    0    0  501    0  0.00000000000E+00 -0.00000000000E+00 -0.15116015944E+04  0.15116015944E+04  0.00000000000E+00 0.  1.
         23    2    1    2    0    0  0.24921586319E+03  0.86242021940E+03 -0.17999462346E+03  0.92004933781E+03  0.90639606330E+02 0.  0.
         11    1    3    3    0    0  0.25797324260E+02  0.22969196516E+03 -0.52676139072E+02  0.23706260022E+03  0.00000000000E+00 0.  1.
        -11    1    3    3    0    0  0.22341853893E+03  0.63272825425E+03 -0.12731848439E+03  0.68298673759E+03  0.00000000000E+00 0. -1.
         22    1    1    2    0    0 -0.24921586319E+03 -0.86242021940E+03 -0.75206051372E+03  0.11710987139E+04  0.00000000000E+00 0.  1.
<mgrwt>
<rscale>  0 0.18719437E+04</rscale>
<asrwt>0</asrwt>
<pdfrwt beam="1">  1        2 0.23255409E+00 0.18719437E+04</pdfrwt>
<pdfrwt beam="2">  1       -2 0.89160993E-01 0.18719437E+04</pdfrwt>
<totfact> 0.12675021E+01</totfact>
</mgrwt>
</event>
<event>
 6    1  0.4630212E-004  0.3057546E+04  0.7818608E-02  0.8227486E-01
         -2   -1    0    0    0  501 -0.00000000000E+00  0.00000000000E+00  0.19958393136E+04  0.19958393136E+04  0.00000000000E+00 0. -1.
          2   -1    0    0  501    0  0.00000000000E+00 -0.00000000000E+00 -0.11710097656E+04  0.11710097656E+04  0.00000000000E+00 0.  1.
         23    2    1    2    0    0  0.76908037092E+03  0.12215534657E+03  0.17737580323E+04  0.19393020072E+04  0.90929490165E+02 0.  0.
         13    1    3    3    0    0  0.57412639287E+03  0.13080798861E+03  0.13253006356E+04  0.14502253685E+04  0.00000000000E+00 0. -1.
        -13    1    3    3    0    0  0.19495397805E+03 -0.86526420417E+01  0.44845739679E+03  0.48907663869E+03  0.00000000000E+00 0.  1.
         22    1    1    2    0    0 -0.76908037092E+03 -0.12215534657E+03 -0.94892848428E+03  0.12275470720E+04  0.00000000000E+00 0.  1.
<mgrwt>
<rscale>  0 0.30575463E+04</rscale>
<asrwt>0</asrwt>
<pdfrwt beam="1">  1        2 0.18015535E+00 0.30575463E+04</pdfrwt>
<pdfrwt beam="2">  1       -2 0.30705220E+00 0.30575463E+04</pdfrwt>
<totfact> 0.48323725E-01</totfact>
</mgrwt>
</event>
<event>
 6    1  0.4630212E-004  0.1542449E+04  0.7818608E-02  0.8856706E-01
         -2   -1    0    0    0  501 -0.00000000000E+00  0.00000000000E+00  0.48607783301E+03  0.48607783301E+03  0.00000000000E+00 0. -1.
          2   -1    0    0  501    0  0.00000000000E+00 -0.00000000000E+00 -0.12236454168E+04  0.12236454168E+04  0.00000000000E+00 0.  1.
         23    2    1    2    0    0  0.32542435307E+03 -0.16934641356E+03 -0.11184703916E+04  0.11808885249E+04  0.94564654514E+02 0.  0.
         11    1    3    3    0    0  0.12323081801E+03 -0.37036327494E+02 -0.27731888523E+03  0.30571766087E+03  0.00000000000E+00 0. -1.
        -11    1    3    3    0    0  0.20219353506E+03 -0.13231008607E+03 -0.84115150640E+03  0.87517086401E+03  0.00000000000E+00 0.  1.
         22    1    1    2    0    0 -0.32542435307E+03  0.16934641356E+03  0.38090280779E+03  0.52883472498E+03  0.00000000000E+00 0. -1.
<mgrwt>
<rscale>  0 0.15424486E+04</rscale>
<asrwt>0</asrwt>
<pdfrwt beam="1">  1        2 0.18825314E+00 0.15424486E+04</pdfrwt>
<pdfrwt beam="2">  1       -2 0.74781205E-01 0.15424486E+04</pdfrwt>
<totfact> 0.28384599E+01</totfact>
</mgrwt>
</event>
<event>
 6    1  0.4630212E-004  0.7276957E+03  0.7818608E-02  0.9671007E-01
          2   -1    0    0  501    0  0.00000000000E+00  0.00000000000E+00  0.70542719496E+03  0.70542719496E+03  0.00000000000E+00 0.  1.
         -2   -1    0    0    0  501 -0.00000000000E+00 -0.00000000000E+00 -0.18766678957E+03  0.18766678957E+03  0.00000000000E+00 0. -1.
         23    2    1    2    0    0 -0.31897474883E+03  0.13787853896E+03  0.36894035075E+03  0.51506913011E+03  0.91781504089E+02 0.  0.
         11    1    3    3    0    0 -0.20661631706E+03  0.98222938665E+02  0.17742001682E+03  0.28950977621E+03  0.00000000000E+00 0. -1.
        -11    1    3    3    0    0 -0.11235843177E+03  0.39655600290E+02  0.19152033393E+03  0.22555935390E+03  0.00000000000E+00 0.  1.
         22    1    1    2    0    0  0.31897474883E+03 -0.13787853896E+03  0.14882005464E+03  0.37802485442E+03  0.00000000000E+00 0. -1.
<mgrwt>
<rscale>  0 0.72769570E+03</rscale>
<asrwt>0</asrwt>
<pdfrwt beam="1">  1        2 0.10852726E+00 0.72769570E+03</pdfrwt>
<pdfrwt beam="2">  1       -2 0.28871814E-01 0.72769570E+03</pdfrwt>
<totfact> 0.44930025E+02</totfact>
</mgrwt>
</event>
<event>
 6    1  0.4630212E-004  0.5165888E+04  0.7818608E-02  0.7803415E-01
          2   -1    0    0  501    0  0.00000000000E+00  0.00000000000E+00  0.41273263697E+04  0.41273263697E+04  0.00000000000E+00 0.  1.
         -2   -1    0    0    0  501 -0.00000000000E+00 -0.00000000000E+00 -0.16164461895E+04  0.16164461895E+04  0.00000000000E+00 0. -1.
         23    2    1    2    0    0 -0.16011018445E+03  0.21495259622E+04 -0.32498936755E+03  0.21817151164E+04  0.90363856716E+02 0.  0.
         13    1    3    3    0    0 -0.59833767538E+01  0.57490136427E+03 -0.70774062820E+02  0.57927225671E+03  0.00000000000E+00 0.  1.
        -13    1    3    3    0    0 -0.15412680769E+03  0.15746245980E+04 -0.25421530474E+03  0.16024428597E+04  0.00000000000E+00 0. -1.
         22    1    1    2    0    0  0.16011018445E+03 -0.21495259622E+04  0.28358695478E+04  0.35620574428E+04  0.00000000000E+00 0.  1.
<mgrwt>
<rscale>  0 0.51658885E+04</rscale>
<asrwt>0</asrwt>
<pdfrwt beam="1">  1        2 0.63497328E+00 0.51658885E+04</pdfrwt>
<pdfrwt beam="2">  1       -2 0.24868403E+00 0.51658885E+04</pdfrwt>
<totfact> 0.12552459E-02</totfact>
</mgrwt>
</event>
<event>
 6    1  0.4630212E-004  0.1388659E+04  0.7818608E-02  0.8962069E-01
         -2   -1    0    0    0  501 -0.00000000000E+00  0.00000000000E+00  0.19680398289E+03  0.19680398289E+03  0.00000000000E+00 0. -1.
          2   -1    0    0  501    0  0.00000000000E+00 -0.00000000000E+00 -0.24496109044E+04  0.24496109044E+04  0.00000000000E+00 0.  1.
         23    2    1    2    0    0 -0.60074961700E+03 -0.32971120015E+03 -0.95769507622E+03  0.11811762481E+04  0.91585437420E+02 0.  0.
         11    1    3    3    0    0 -0.34235405461E+03 -0.15299354185E+03 -0.57932080525E+03  0.69009123886E+03  0.00000000000E+00 0. -1.
        -11    1    3    3    0    0 -0.25839556239E+03 -0.17671765830E+03 -0.37837427097E+03  0.49108500929E+03  0.00000000000E+00 0.  1.
         22    1    1    2    0    0  0.60074961700E+03  0.32971120015E+03 -0.12951118453E+04  0.14652386391E+04  0.00000000000E+00 0.  1.
<mgrwt>
<rscale>  0 0.13886586E+04</rscale>
<asrwt>0</asrwt>
<pdfrwt beam="1">  1        2 0.37686321E+00 0.13886586E+04</pdfrwt>
<pdfrwt beam="2">  1       -2 0.30277536E-01 0.13886586E+04</pdfrwt>
<totfact> 0.36674206E+01</totfact>
</mgrwt>
</event>
<event>
 6    1  0.4630212E-004  0.4379092E+04  0.7818608E-02  0.7932153E-01
         -2   -1    0    0    0  501 -0.00000000000E+00  0.00000000000E+00  0.44973091587E+04  0.44973091587E+04  0.00000000000E+00 0.  1.
          2   -1    0    0  501    0  0.00000000000E+00 -0.00000000000E+00 -0.10659956370E+04  0.10659956370E+04  0.00000000000E+00 0. -1.
         23    2    1    2    0    0 -0.16730677456E+04  0.62570074780E+03  0.33230105778E+04  0.37737834534E+04  0.91570441646E+02 0.  0.
         11    1    3    3    0    0 -0.73765739873E+03  0.28201219335E+03  0.13744394809E+04  0.15851666164E+04  0.00000000000E+00 0. -1.
        -11    1    3    3    0    0 -0.93541034682E+03  0.34368855446E+03  0.19485710969E+04  0.21886168370E+04  0.00000000000E+00 0.  1.
         22    1    1    2    0    0  0.16730677456E+04 -0.62570074780E+03  0.10830294388E+03  0.17895213423E+04  0.00000000000E+00 0. -1.
<mgrwt>
<rscale>  0 0.43790921E+04</rscale>
<asrwt>0</asrwt>
<pdfrwt beam="1">  1        2 0.16399933E+00 0.43790921E+04</pdfrwt>
<pdfrwt beam="2">  1       -2 0.69189371E+00 0.43790921E+04</pdfrwt>
<totfact> 0.42646029E-03</totfact>
</mgrwt>
</event>
<event>
 6    1  0.4630212E-004  0.2374269E+04  0.7818608E-02  0.8449200E-01
         -2   -1    0    0    0  501 -0.00000000000E+00  0.00000000000E+00  0.26004993185E+03  0.26004993185E+03  0.00000000000E+00 0. -1.
          2   -1    0    0  501    0  0.00000000000E+00 -0.00000000000E+00 -0.54192993011E+04  0.54192993011E+04  0.00000000000E+00 0.  1.
         23    2    1    2    0    0  0.11182543552E+04  0.23488787351E+03 -0.18290765084E+04  0.21585941436E+04  0.91338311416E+02 0.  0.
         13    1    3    3    0    0  0.30242866020E+03  0.39735734816E+02 -0.55173837794E+03  0.63044211536E+03  0.00000000000E+00 0. -1.
        -13    1    3    3    0    0  0.81582569501E+03  0.19515213869E+03 -0.12773381305E+04  0.15281520282E+04  0.00000000000E+00 0.  1.
         22    1    1    2    0    0 -0.11182543552E+04 -0.23488787351E+03 -0.33301728608E+04  0.35207550893E+04  0.00000000000E+00 0.  1.
<mgrwt>
<rscale>  0 0.23742691E+04</rscale>
<asrwt>0</asrwt>
<pdfrwt beam="1">  1        2 0.83373827E+00 0.23742691E+04</pdfrwt>
<pdfrwt beam="2">  1       -2 0.40007686E-01 0.23742691E+04</pdfrwt>
<totfact> 0.45245192E-02</totfact>
</mgrwt>
</event>
<event>
 6    1  0.4630212E-004  0.2008013E+04  0.7818608E-02  0.8602884E-01
         -1   -1    0    0    0  501 -0.00000000000E+00  0.00000000000E+00  0.51860661953E+03  0.51860661953E+03  0.00000000000E+00 0.  1.
          1   -1    0    0  501    0  0.00000000000E+00 -0.00000000000E+00 -0.19437249288E+04  0.19437249288E+04  0.00000000000E+00 0. -1.
         23    2    1    2    0    0 -0.32565768543E+03  0.46346451398E+02 -0.18745250580E+04  0.19054048500E+04  0.92317536799E+02 0.  0.
         11    1    3    3    0    0 -0.23929047174E+03  0.68571196699E+02 -0.14919541293E+04  0.15125769609E+04  0.00000000000E+00 0.  1.
        -11    1    3    3    0    0 -0.86367213689E+02 -0.22224745301E+02 -0.38257092874E+03  0.39282788905E+03  0.00000000000E+00 0. -1.
         22    1    1    2    0    0  0.32565768543E+03 -0.46346451398E+02  0.44940674869E+03  0.55692669841E+03  0.00000000000E+00 0.  1.
<mgrwt>
<rscale>  0 0.20080126E+04</rscale>
<asrwt>0</asrwt>
<pdfrwt beam="1">  1        1 0.29903461E+00 0.20080126E+04</pdfrwt>
<pdfrwt beam="2">  1       -1 0.79785634E-01 0.20080126E+04</pdfrwt>
<totfact> 0.47319218E+00</totfact>
</mgrwt>
</event>
<event>
 6    1  0.4630212E-004  0.8692860E+03  0.7818608E-02  0.9464811E-01
          2   -1    0    0  501    0  0.00000000000E+00  0.00000000000E+00  0.11063423951E+04  0.11063423951E+04  0.00000000000E+00 0.  1.
         -2   -1    0    0    0  501 -0.00000000000E+00 -0.00000000000E+00 -0.17075593888E+03  0.17075593888E+03  0.00000000000E+00 0. -1.
         23    2    1    2    0    0 -0.29922165105E+03  0.25139670347E+03  0.21205467985E+03  0.45476498892E+03  0.95446890645E+02 0.  0.
         11    1    3    3    0    0 -0.14199041426E+03  0.11071387916E+03  0.15137621390E+03  0.23523094803E+03  0.00000000000E+00 0. -1.
        -11    1    3    3    0    0 -0.15723123679E+03  0.14068282432E+03  0.60678465952E+02  0.21953404089E+03  0.00000000000E+00 0.  1.
         22    1    1    2    0    0  0.29922165105E+03 -0.25139670347E+03  0.72353177637E+03  0.82233334506E+03  0.00000000000E+00 0.  1.
<mgrwt>
<rscale>  0 0.86928599E+03</rscale>
<asrwt>0</asrwt>
<pdfrwt beam="1">  1        2 0.17020652E+00 0.86928599E+03</pdfrwt>
<pdfrwt beam="2">  1       -2 0.26270145E-01 0.86928599E+03</pdfrwt>
<totfact> 0.28356679E+02</totfact>
</mgrwt>
</event>
<event>
 6    1  0.4630212E-004  0.1748545E+04  0.7818608E-02  0.8734151E-01
          2   -1    0    0  501    0  0.00000000000E+00  0.00000000000E+00  0.13236411237E+04  0.13236411237E+04  0.00000000000E+00 0.  1.
         -2   -1    0    0    0  501 -0.00000000000E+00 -0.00000000000E+00 -0.57746216791E+03  0.57746216791E+03  0.00000000000E+00 0. -1.
         23    2    1    2    0    0  0.57180637165E+03 -0.28035345505E+03 -0.27207022696E+03  0.70010704491E+03  0.10279630107E+03 0.  0.
         11    1    3    3    0    0  0.44114689436E+03 -0.23980058665E+03 -0.25211508712E+03  0.56185133346E+03  0.00000000000E+00 0. -1.
        -11    1    3    3    0    0  0.13065947729E+03 -0.40552868408E+02 -0.19955139837E+02  0.13825571145E+03  0.00000000000E+00 0.  1.
         22    1    1    2    0    0 -0.57180637165E+03  0.28035345505E+03  0.10182491828E+04  0.12009962467E+04  0.00000000000E+00 0.  1.
<mgrwt>
<rscale>  0 0.17485453E+04</rscale>
<asrwt>0</asrwt>
<pdfrwt beam="1">  1        2 0.20363710E+00 0.17485453E+04</pdfrwt>
<pdfrwt beam="2">  1       -2 0.88840334E-01 0.17485453E+04</pdfrwt>
<totfact> 0.16532882E+01</totfact>
</mgrwt>
</event>
<event>
 6    1  0.4630212E-004  0.1182787E+04  0.7818608E-02  0.9128058E-01
          2   -1    0    0  501    0  0.00000000000E+00  0.00000000000E+00  0.17861165157E+04  0.17861165157E+04  0.00000000000E+00 0.  1.
         -2   -1    0    0    0  501 -0.00000000000E+00 -0.00000000000E+00 -0.19581379657E+03  0.19581379657E+03  0.00000000000E+00 0. -1.
         23    2    1    2    0    0 -0.21612830335E+03 -0.39271904257E+03  0.14372167279E+04  0.15082479180E+04  0.90995436638E+02 0.  0.
         11    1    3    3    0    0 -0.96637924255E+02 -0.16903066801E+03  0.77632594053E+03  0.80037005258E+03  0.00000000000E+00 0. -1.
        -11    1    3    3    0    0 -0.11949037910E+03 -0.22368837456E+03  0.66089078734E+03  0.70787786546E+03  0.00000000000E+00 0.  1.
         22    1    1    2    0    0  0.21612830335E+03  0.39271904257E+03  0.15308599129E+03  0.47368239427E+03  0.00000000000E+00 0. -1.
<mgrwt>
<rscale>  0 0.11827870E+04</rscale>
<asrwt>0</asrwt>
<pdfrwt beam="1">  1        2 0.27478714E+00 0.11827870E+04</pdfrwt>
<pdfrwt beam="2">  1       -2 0.30125201E-01 0.11827870E+04</pdfrwt>
<totfact> 0.88301076E+01</totfact>
</mgrwt>
</event>
<event>
 6    1  0.4630212E-004  0.1743732E+04  0.7818608E-02  0.8736808E-01
         -2   -1    0    0    0  501 -0.00000000000E+00  0.00000000000E+00  0.65646825336E+03  0.65646825336E+03  0.00000000000E+00 0. -1.
          2   -1    0    0  501    0  0.00000000000E+00 -0.00000000000E+00 -0.11579395149E+04  0.11579395149E+04  0.00000000000E+00 0.  1.
         23    2    1    2    0    0 -0.54053077643E+03  0.58600241545E+03  0.10967897903E+03  0.80987953684E+03  0.91120988645E+02 0.  0.
         13    1    3    3    0    0 -0.26616077258E+03  0.32085157335E+03  0.16969290303E+02  0.41722325654E+03  0.00000000000E+00 0. -1.
        -13    1    3    3    0    0 -0.27437000385E+03  0.26515084210E+03  0.92709688723E+02  0.39265628030E+03  0.00000000000E+00 0.  1.
         22    1    1    2    0    0  0.54053077643E+03 -0.58600241545E+03 -0.61115024058E+03  0.10045282314E+04  0.00000000000E+00 0.  1.
<mgrwt>
<rscale>  0 0.17437322E+04</rscale>
<asrwt>0</asrwt>
<pdfrwt beam="1">  1        2 0.17814454E+00 0.17437322E+04</pdfrwt>
<pdfrwt beam="2">  1       -2 0.10099512E+00 0.17437322E+04</pdfrwt>
<totfact> 0.15363864E+01</totfact>
</mgrwt>
</event>
<event>
 6    1  0.4630212E-004  0.2945242E+04  0.7818608E-02  0.8259543E-01
         -2   -1    0    0    0  501 -0.00000000000E+00  0.00000000000E+00  0.16030024689E+04  0.16030024689E+04  0.00000000000E+00 0. -1.
          2   -1    0    0  501    0  0.00000000000E+00 -0.00000000000E+00 -0.13528438931E+04  0.13528438931E+04  0.00000000000E+00 0.  1.
         23    2    1    2    0    0  0.12846494943E+03  0.14579939764E+04 -0.26614336811E+02  0.14662649028E+04  0.83515051195E+02 0.  0.
         11    1    3    3    0    0  0.47121951142E+02  0.96910633383E+03 -0.27975193245E+02  0.97065450907E+03  0.00000000000E+00 0.  1.
        -11    1    3    3    0    0  0.81342998287E+02  0.48888764259E+03  0.13608564338E+01  0.49561039373E+03  0.00000000000E+00 0. -1.
         22    1    1    2    0    0 -0.12846494943E+03 -0.14579939764E+04  0.27677291253E+03  0.14895814592E+04  0.00000000000E+00 0.  1.
<mgrwt>
<rscale>  0 0.29452417E+04</rscale>
<asrwt>0</asrwt>
<pdfrwt beam="1">  1        2 0.20812983E+00 0.29452417E+04</pdfrwt>
<pdfrwt beam="2">  1       -2 0.24661576E+00 0.29452417E+04</pdfrwt>
<totfact> 0.89302580E-01</totfact>
</mgrwt>
</event>
<event>
 6    1  0.4630212E-004  0.1592093E+04  0.7818608E-02  0.8825421E-01
          2   -1    0    0  501    0  0.00000000000E+00  0.00000000000E+00  0.46426794947E+03  0.46426794947E+03  0.00000000000E+00 0.  1.
         -2   -1    0    0    0  501 -0.00000000000E+00 -0.00000000000E+00 -0.13649224437E+04  0.13649224437E+04  0.00000000000E+00 0. -1.
         23    2    1    2    0    0  0.45361264236E+03 -0.24681442241E+03  0.24066524025E+03  0.57647632974E+03  0.87882947523E+02 0.  0.
         13    1    3    3    0    0  0.17581728478E+03 -0.10117440734E+03  0.14219580082E+03  0.24772489600E+03  0.00000000000E+00 0.  1.
        -13    1    3    3    0    0  0.27779535758E+03 -0.14564001508E+03  0.98469439428E+02  0.32875143374E+03  0.00000000000E+00 0. -1.
         22    1    1    2    0    0 -0.45361264236E+03  0.24681442241E+03 -0.11413197345E+04  0.12527140634E+04  0.00000000000E+00 0. -1.
<mgrwt>
<rscale>  0 0.15920926E+04</rscale>
<asrwt>0</asrwt>
<pdfrwt beam="1">  1        2 0.71425839E-01 0.15920926E+04</pdfrwt>
<pdfrwt beam="2">  1       -2 0.20998807E+00 0.15920926E+04</pdfrwt>
<totfact> 0.73672990E+00</totfact>
</mgrwt>
</event>
<event>
 6    1  0.4630212E-004  0.9127765E+03  0.7818608E-02  0.9409750E-01
         -2   -1    0    0    0  501 -0.00000000000E+00  0.00000000000E+00  0.11054179068E+03  0.11054179068E+03  0.00000000000E+00 0. -1.
          2   -1    0    0  501    0  0.00000000000E+00 -0.00000000000E+00 -0.18842669896E+04  0.18842669896E+04  0.00000000000E+00 0.  1.
         23    2    1    2    0    0 -0.26003186961E+03  0.14520436597E+03 -0.15237104651E+03  0.34632761003E+03  0.89582345046E+02 0.  0.
         11    1    3    3    0    0 -0.80859787684E+02  0.49353090624E+02 -0.41668549248E+01  0.94822969256E+02  0.00000000000E+00 0. -1.
        -11    1    3    3    0    0 -0.17917208193E+03  0.95851275349E+02 -0.14820419159E+03  0.25150464078E+03  0.00000000000E+00 0.  1.
         22    1    1    2    0    0  0.26003186961E+03 -0.14520436597E+03 -0.16213541524E+04  0.16484811703E+04  0.00000000000E+00 0.  1.
<mgrwt>
<rscale>  0 0.91277653E+03</rscale>
<asrwt>0</asrwt>
<pdfrwt beam="1">  1        2 0.28988722E+00 0.91277653E+03</pdfrwt>
<pdfrwt beam="2">  1       -2 0.17006430E-01 0.91277653E+03</pdfrwt>
<totfact> 0.22101545E+02</totfact>
</mgrwt>
</event>
<event>
 6    1  0.4899100E-004  0.2144909E+04  0.7818608E-02  0.8541715E-01
          2   -1    0    0  501    0  0.00000000000E+00  0.00000000000E+00  0.27549777277E+04  0.27549777277E+04  0.00000000000E+00 0.  1.
         -2   -1    0    0    0  501 -0.00000000000E+00 -0.00000000000E+00 -0.41748385106E+03  0.41748385106E+03  0.00000000000E+00 0. -1.
         23    2    1    2    0    0 -0.72366668316E+03 -0.33838022374E+03  0.22246275131E+04  0.23656571042E+04  0.95767001335E+02 0.  0.
         13    1    3    3    0    0 -0.26008759800E+03 -0.83009116566E+02  0.67410111427E+03  0.72728837769E+03  0.00000000000E+00 0. -1.
        -13    1    3    3    0    0 -0.46357908516E+03 -0.25537110717E+03  0.15505263988E+04  0.16383687265E+04  0.00000000000E+00 0.  1.
         22    1    1    2    0    0  0.72366668316E+03  0.33838022374E+03  0.11286636354E+03  0.80680447455E+03  0.00000000000E+00 0. -1.
<mgrwt>
<rscale>  0 0.21449091E+04</rscale>
<asrwt>0</asrwt>
<pdfrwt beam="1">  1        2 0.42384272E+00 0.21449091E+04</pdfrwt>
<pdfrwt beam="2">  1       -2 0.64228287E-01 0.21449091E+04</pdfrwt>
<totfact> 0.50666084E+00</totfact>
</mgrwt>
</event>
<event>
 6    1  0.4630212E-004  0.1645070E+04  0.7818608E-02  0.8793328E-01
         -1   -1    0    0    0  501 -0.00000000000E+00  0.00000000000E+00  0.33563313597E+03  0.33563313597E+03  0.00000000000E+00 0. -1.
          1   -1    0    0  501    0  0.00000000000E+00 -0.00000000000E+00 -0.20157841449E+04  0.20157841449E+04  0.00000000000E+00 0.  1.
         23    2    1    2    0    0  0.22658983099E+03  0.42511323078E+02 -0.19674694859E+04  0.19830396603E+04  0.91432775360E+02 0.  0.
         13    1    3    3    0    0  0.10820795851E+03 -0.25912478919E+02 -0.89217399222E+03  0.89908556392E+03  0.00000000000E+00 0.  1.
        -13    1    3    3    0    0  0.11838187249E+03  0.68423801996E+02 -0.10752954936E+04  0.10839540964E+04  0.00000000000E+00 0. -1.
         22    1    1    2    0    0 -0.22658983099E+03 -0.42511323078E+02  0.28731847698E+03  0.36837762054E+03  0.00000000000E+00 0. -1.
<mgrwt>
<rscale>  0 0.16450702E+04</rscale>
<asrwt>0</asrwt>
<pdfrwt beam="1">  1        1 0.31012063E+00 0.16450702E+04</pdfrwt>
<pdfrwt beam="2">  1       -1 0.51635868E-01 0.16450702E+04</pdfrwt>
<totfact> 0.10493799E+01</totfact>
</mgrwt>
</event>
<event>
 6    1  0.4630212E-004  0.2721568E+04  0.7818608E-02  0.8328041E-01
          2   -1    0    0  501    0  0.00000000000E+00  0.00000000000E+00  0.18828541364E+04  0.18828541364E+04  0.00000000000E+00 0.  1.
         -2   -1    0    0    0  501 -0.00000000000E+00 -0.00000000000E+00 -0.98347168604E+03  0.98347168604E+03  0.00000000000E+00 0. -1.
         23    2    1    2    0    0  0.66533021147E+03 -0.11366322905E+04  0.80415952882E+03  0.15458468719E+04  0.91502730022E+02 0.  0.
         13    1    3    3    0    0  0.98708898038E+02 -0.13186530164E+03  0.12938456200E+03  0.20945708203E+03  0.00000000000E+00 0. -1.
        -13    1    3    3    0    0  0.56662131344E+03 -0.10047669888E+04  0.67477496682E+03  0.13363897899E+04  0.00000000000E+00 0.  1.
         22    1    1    2    0    0 -0.66533021147E+03  0.11366322905E+04  0.95222921575E+02  0.13204789506E+04  0.00000000000E+00 0. -1.
<mgrwt>
<rscale>  0 0.27215685E+04</rscale>
<asrwt>0</asrwt>
<pdfrwt beam="1">  1        2 0.28966987E+00 0.27215685E+04</pdfrwt>
<pdfrwt beam="2">  1       -2 0.15130334E+00 0.27215685E+04</pdfrwt>
<totfact> 0.19905555E+00</totfact>
</mgrwt>
</event>
<event>
 6    1  0.4630212E-004  0.3765210E+04  0.7818608E-02  0.8053662E-01
          2   -1    0    0  501    0  0.00000000000E+00  0.00000000000E+00  0.22963765811E+04  0.22963765811E+04  0.00000000000E+00 0.  1.
         -2   -1    0    0    0  501 -0.00000000000E+00 -0.00000000000E+00 -0.15433884426E+04  0.15433884426E+04  0.00000000000E+00 0. -1.
         23    2    1    2    0    0 -0.14428419076E+04  0.10373023812E+04  0.10072862348E+04  0.20446448266E+04  0.90321136884E+02 0.  0.
         11    1    3    3    0    0 -0.31486404122E+03  0.24726929055E+03  0.26618370713E+03  0.48076525711E+03  0.00000000000E+00 0.  1.
        -11    1    3    3    0    0 -0.11279778663E+04  0.79003309069E+03  0.74110252770E+03  0.15638795695E+04  0.00000000000E+00 0. -1.
         22    1    1    2    0    0  0.14428419076E+04 -0.10373023812E+04 -0.25429809633E+03  0.17951201971E+04  0.00000000000E+00 0. -1.
<mgrwt>
<rscale>  0 0.37652097E+04</rscale>
<asrwt>0</asrwt>
<pdfrwt beam="1">  1        2 0.35328870E+00 0.37652097E+04</pdfrwt>
<pdfrwt beam="2">  1       -2 0.23744438E+00 0.37652097E+04</pdfrwt>
<totfact> 0.28142263E-01</totfact>
</mgrwt>
</event>
<event>
 6    1  0.4630212E-004  0.1936737E+04  0.7818608E-02  0.8636783E-01
          2   -1    0    0  501    0  0.00000000000E+00  0.00000000000E+00  0.22570457553E+04  0.22570457553E+04  0.00000000000E+00 0.  1.
         -2   -1    0    0    0  501 -0.00000000000E+00 -0.00000000000E+00 -0.41547116247E+03  0.41547116247E+03  0.00000000000E+00 0. -1.
         23    2    1    2    0    0 -0.73468968474E+03 -0.17451421234E+03  0.17547018659E+04  0.19124044170E+04  0.89932602195E+02 0.  0.
         13    1    3    3    0    0 -0.16527820778E+03 -0.33165424207E+02  0.30500388628E+03  0.34848845315E+03  0.00000000000E+00 0.  1.
        -13    1    3    3    0    0 -0.56941147695E+03 -0.14134878814E+03  0.14496979796E+04  0.15639159639E+04  0.00000000000E+00 0. -1.
         22    1    1    2    0    0  0.73468968474E+03  0.17451421234E+03  0.86872726986E+02  0.76011250079E+03  0.00000000000E+00 0. -1.
<mgrwt>
<rscale>  0 0.19367369E+04</rscale>
<asrwt>0</asrwt>
<pdfrwt beam="1">  1        2 0.34723780E+00 0.19367369E+04</pdfrwt>
<pdfrwt beam="2">  1       -2 0.63918642E-01 0.19367369E+04</pdfrwt>
<totfact> 0.10135788E+01</totfact>
</mgrwt>
</event>
<event>
 6    1  0.4630212E-004  0.1310663E+04  0.7818608E-02  0.9021152E-01
         -2   -1    0    0    0  501 -0.00000000000E+00  0.00000000000E+00  0.54881684217E+03  0.54881684217E+03  0.00000000000E+00 0. -1.
          2   -1    0    0  501    0  0.00000000000E+00 -0.00000000000E+00 -0.78251871670E+03  0.78251871670E+03  0.00000000000E+00 0.  1.
         23    2    1    2    0    0 -0.43108318883E+03 -0.32674921515E+03 -0.48708407595E+03  0.73400792240E+03  0.94440287014E+02 0.  0.
         11    1    3    3    0    0 -0.25451495403E+03 -0.16437793684E+03 -0.32604871044E+03  0.44509069809E+03  0.00000000000E+00 0. -1.
        -11    1    3    3    0    0 -0.17656823480E+03 -0.16237127831E+03 -0.16103536551E+03  0.28891722431E+03  0.00000000000E+00 0.  1.
         22    1    1    2    0    0  0.43108318883E+03  0.32674921515E+03  0.25338220142E+03  0.59732763647E+03  0.00000000000E+00 0. -1.
<mgrwt>
<rscale>  0 0.13106631E+04</rscale>
<asrwt>0</asrwt>
<pdfrwt beam="1">  1        2 0.12038749E+00 0.13106631E+04</pdfrwt>
<pdfrwt beam="2">  1       -2 0.84433361E-01 0.13106631E+04</pdfrwt>
<totfact> 0.42521364E+01</totfact>
</mgrwt>
</event>
<event>
 6    1  0.4630212E-004  0.2966188E+04  0.7818608E-02  0.8253452E-01
          2   -1    0    0  501    0  0.00000000000E+00  0.00000000000E+00  0.22992328263E+04  0.22992328263E+04  0.00000000000E+00 0.  1.
         -2   -1    0    0    0  501 -0.00000000000E+00 -0.00000000000E+00 -0.95665308027E+03  0.95665308027E+03  0.00000000000E+00 0. -1.
         23    2    1    2    0    0 -0.23183210419E+03  0.14257974290E+04  0.31200140442E+03  0.14814180564E+04  0.10300557501E+03 0.  0.
         13    1    3    3    0    0 -0.20338100564E+03  0.98990648460E+03  0.24021021606E+03  0.10387394426E+04  0.00000000000E+00 0. -1.
        -13    1    3    3    0    0 -0.28451098541E+02  0.43589094438E+03  0.71791188353E+02  0.44267861381E+03  0.00000000000E+00 0.  1.
         22    1    1    2    0    0  0.23183210419E+03 -0.14257974290E+04  0.10305783416E+04  0.17744678502E+04  0.00000000000E+00 0.  1.
<mgrwt>
<rscale>  0 0.29661882E+04</rscale>
<asrwt>0</asrwt>
<pdfrwt beam="1">  1        2 0.35372813E+00 0.29661882E+04</pdfrwt>
<pdfrwt beam="2">  1       -2 0.14717740E+00 0.29661882E+04</pdfrwt>
<totfact> 0.12272429E+00</totfact>
</mgrwt>
</event>
<event>
 6    1  0.4630212E-004  0.2125558E+04  0.7818608E-02  0.8550068E-01
         -2   -1    0    0    0  501 -0.00000000000E+00  0.00000000000E+00  0.10178274524E+04  0.10178274524E+04  0.00000000000E+00 0. -1.
          2   -1    0    0  501    0  0.00000000000E+00 -0.00000000000E+00 -0.11097154475E+04  0.11097154475E+04  0.00000000000E+00 0.  1.
         23    2    1    2    0    0 -0.77953134463E+03 -0.24109717235E+03  0.63245062260E+03  0.10364593116E+04  0.91962768190E+02 0.  0.
         13    1    3    3    0    0 -0.13724367333E+03 -0.78793345461E+01  0.94932773884E+02  0.16706328543E+03  0.00000000000E+00 0. -1.
        -13    1    3    3    0    0 -0.64228767130E+03 -0.23321783780E+03  0.53751784872E+03  0.86939602614E+03  0.00000000000E+00 0.  1.
         22    1    1    2    0    0  0.77953134463E+03  0.24109717235E+03 -0.72433861770E+03  0.10910835884E+04  0.00000000000E+00 0.  1.
<mgrwt>
<rscale>  0 0.21255577E+04</rscale>
<asrwt>0</asrwt>
<pdfrwt beam="1">  1        2 0.17072545E+00 0.21255577E+04</pdfrwt>
<pdfrwt beam="2">  1       -2 0.15658884E+00 0.21255577E+04</pdfrwt>
<totfact> 0.52774086E+00</totfact>
</mgrwt>
</event>
<event>
 6    1  0.4630212E-004  0.1529154E+04  0.7818608E-02  0.8865294E-01
         -2   -1    0    0    0  501 -0.00000000000E+00  0.00000000000E+00  0.40663867976E+03  0.40663867976E+03  0.00000000000E+00 0. -1.
          2   -1    0    0  501    0  0.00000000000E+00 -0.00000000000E+00 -0.14375857203E+04  0.14375857203E+04  0.00000000000E+00 0.  1.
         23    2    1    2    0    0  0.35858439385E+03  0.40474193563E+03  0.12966445498E+03  0.56382686589E+03  0.93215137439E+02 0.  0.
         11    1    3    3    0    0  0.64088327835E+02  0.11433063142E+03  0.60985305179E+02  0.14456145577E+03  0.00000000000E+00 0.  1.
        -11    1    3    3    0    0  0.29449606601E+03  0.29041130421E+03  0.68679149800E+02  0.41926541012E+03  0.00000000000E+00 0. -1.
         22    1    1    2    0    0 -0.35858439385E+03 -0.40474193563E+03 -0.11606114955E+04  0.12803975341E+04  0.00000000000E+00 0.  1.
<mgrwt>
<rscale>  0 0.15291540E+04</rscale>
<asrwt>0</asrwt>
<pdfrwt beam="1">  1        2 0.22116703E+00 0.15291540E+04</pdfrwt>
<pdfrwt beam="2">  1       -2 0.62559797E-01 0.15291540E+04</pdfrwt>
<totfact> 0.31462464E+01</totfact>
</mgrwt>
</event>
<event>
 6    1  0.4630212E-004  0.4490140E+04  0.7818608E-02  0.7912365E-01
          2   -1    0    0  501    0  0.00000000000E+00  0.00000000000E+00  0.21755547781E+04  0.21755547781E+04  0.00000000000E+00 0.  1.
         -2   -1    0    0    0  501 -0.00000000000E+00 -0.00000000000E+00 -0.23168067877E+04  0.23168067877E+04  0.00000000000E+00 0. -1.
         23    2    1    2    0    0  0.19745221011E+04 -0.10459630212E+04 -0.27902781380E+03  0.22536658871E+04  0.91527265416E+02 0.  0.
         13    1    3    3    0    0  0.73279376212E+03 -0.34042451803E+03 -0.11324976771E+03  0.81590505585E+03  0.00000000000E+00 0. -1.
        -13    1    3    3    0    0  0.12417283390E+04 -0.70553850319E+03 -0.16577804610E+03  0.14377608313E+04  0.00000000000E+00 0.  1.
         22    1    1    2    0    0 -0.19745221011E+04  0.10459630212E+04  0.13777580412E+03  0.22386956787E+04  0.00000000000E+00 0. -1.
<mgrwt>
<rscale>  0 0.44901403E+04</rscale>
<asrwt>0</asrwt>
<pdfrwt beam="1">  1        2 0.33470074E+00 0.44901403E+04</pdfrwt>
<pdfrwt beam="2">  1       -2 0.35643181E+00 0.44901403E+04</pdfrwt>
<totfact> 0.57260013E-02</totfact>
</mgrwt>
</event>
<event>
 6    1  0.6186230E-004  0.3586860E+04  0.7818608E-02  0.8093508E-01
          1   -1    0    0  501    0  0.00000000000E+00  0.00000000000E+00  0.28481617635E+04  0.28481617635E+04  0.00000000000E+00 0.  1.
         -1   -1    0    0    0  501 -0.00000000000E+00 -0.00000000000E+00 -0.11292867644E+04  0.11292867644E+04  0.00000000000E+00 0. -1.
         23    2    1    2    0    0 -0.51541560122E+03  0.80781256042E+03 -0.81954888195E+03  0.12641829356E+04  0.91015109100E+02 0.  0.
         11    1    3    3    0    0 -0.25326204983E+03  0.34081924223E+03 -0.40685970225E+03  0.58807672890E+03  0.00000000000E+00 0. -1.
        -11    1    3    3    0    0 -0.26215355138E+03  0.46699331819E+03 -0.41268917970E+03  0.67610620673E+03  0.00000000000E+00 0.  1.
         22    1    1    2    0    0  0.51541560122E+03 -0.80781256042E+03  0.25384238810E+04  0.27132655923E+04  0.00000000000E+00 0.  1.
<mgrwt>
<rscale>  0 0.35868601E+04</rscale>
<asrwt>0</asrwt>
<pdfrwt beam="1">  1        1 0.43817873E+00 0.35868601E+04</pdfrwt>
<pdfrwt beam="2">  1       -1 0.17373643E+00 0.35868601E+04</pdfrwt>
<totfact> 0.14398330E-01</totfact>
</mgrwt>
</event>
<event>
 6    1  0.4630212E-004  0.2791520E+04  0.7818608E-02  0.8305906E-01
         -2   -1    0    0    0  501 -0.00000000000E+00  0.00000000000E+00  0.86537101507E+03  0.86537101507E+03  0.00000000000E+00 0. -1.
          2   -1    0    0  501    0  0.00000000000E+00 -0.00000000000E+00 -0.22512260520E+04  0.22512260520E+04  0.00000000000E+00 0.  1.
         23    2    1    2    0    0 -0.78347622471E+03  0.94156155235E+03  0.50197261120E+02  0.12291068408E+04  0.88378218795E+02 0.  0.
         11    1    3    3    0    0 -0.52441429263E+03  0.60055205145E+03  0.70284731525E+02  0.80038307098E+03  0.00000000000E+00 0.  1.
        -11    1    3    3    0    0 -0.25906193207E+03  0.34100950090E+03 -0.20087470405E+02  0.42872376983E+03  0.00000000000E+00 0. -1.
         22    1    1    2    0    0  0.78347622471E+03 -0.94156155235E+03 -0.14360522981E+04  0.18874902263E+04  0.00000000000E+00 0.  1.
<mgrwt>
<rscale>  0 0.27915199E+04</rscale>
<asrwt>0</asrwt>
<pdfrwt beam="1">  1        2 0.34634247E+00 0.27915199E+04</pdfrwt>
<pdfrwt beam="2">  1       -2 0.13313400E+00 0.27915199E+04</pdfrwt>
<totfact> 0.17196217E+00</totfact>
</mgrwt>
</event>
<event>
 6    1  0.4630212E-004  0.3187504E+04  0.7818608E-02  0.8192125E-01
         -2   -1    0    0    0  501 -0.00000000000E+00  0.00000000000E+00  0.63456841129E+03  0.63456841129E+03  0.00000000000E+00 0. -1.
          2   -1    0    0  501    0  0.00000000000E+00 -0.00000000000E+00 -0.40027923569E+04  0.40027923569E+04  0.00000000000E+00 0.  1.
         23    2    1    2    0    0  0.84669376242E+03 -0.13376818323E+04 -0.19384900972E+04  0.25041889773E+04  0.83280043514E+02 0.  0.
         11    1    3    3    0    0  0.61079945701E+03 -0.94878593398E+03 -0.14384522158E+04  0.18282274209E+04  0.00000000000E+00 0.  1.
        -11    1    3    3    0    0  0.23589430541E+03 -0.38889589835E+03 -0.50003788135E+03  0.67596155650E+03  0.00000000000E+00 0. -1.
         22    1    1    2    0    0 -0.84669376242E+03  0.13376818323E+04 -0.14297338485E+04  0.21331717909E+04  0.00000000000E+00 0. -1.
<mgrwt>
<rscale>  0 0.31875041E+04</rscale>
<asrwt>0</asrwt>
<pdfrwt beam="1">  1        2 0.61581421E+00 0.31875041E+04</pdfrwt>
<pdfrwt beam="2">  1       -2 0.97625910E-01 0.31875041E+04</pdfrwt>
<totfact> 0.25040072E-01</totfact>
</mgrwt>
</event>
<event>
 6    1  0.4630212E-004  0.3702352E+04  0.7818608E-02  0.8067441E-01
          2   -1    0    0  501    0  0.00000000000E+00  0.00000000000E+00  0.37896598670E+04  0.37896598670E+04  0.00000000000E+00 0.  1.
         -2   -1    0    0    0  501 -0.00000000000E+00 -0.00000000000E+00 -0.90426399075E+03  0.90426399075E+03  0.00000000000E+00 0. -1.
         23    2    1    2    0    0 -0.27960688276E+03 -0.14324197082E+04  0.28850571375E+04  0.32344697324E+04  0.90738825270E+02 0.  0.
         13    1    3    3    0    0 -0.45993941709E+02 -0.45427093797E+03  0.90867011154E+03  0.10169360350E+04  0.00000000000E+00 0. -1.
        -13    1    3    3    0    0 -0.23361294105E+03 -0.97814877020E+03  0.19763870259E+04  0.22175336974E+04  0.00000000000E+00 0.  1.
         22    1    1    2    0    0  0.27960688276E+03  0.14324197082E+04  0.33873882754E+00  0.14594541253E+04  0.00000000000E+00 0. -1.
<mgrwt>
<rscale>  0 0.37023522E+04</rscale>
<asrwt>0</asrwt>
<pdfrwt beam="1">  1        2 0.58302459E+00 0.37023522E+04</pdfrwt>
<pdfrwt beam="2">  1       -2 0.13911754E+00 0.37023522E+04</pdfrwt>
<totfact> 0.14720682E-01</totfact>
</mgrwt>
</event>
<event>
 6    1  0.4630212E-004  0.2104189E+04  0.7818608E-02  0.8559400E-01
          2   -1    0    0  501    0  0.00000000000E+00  0.00000000000E+00  0.41925606200E+04  0.41925606200E+04  0.00000000000E+00 0.  1.
         -2   -1    0    0    0  501 -0.00000000000E+00 -0.00000000000E+00 -0.26401601170E+03  0.26401601170E+03  0.00000000000E+00 0. -1.
         23    2    1    2    0    0 -0.87179650038E+02  0.10314187505E+04  0.15921445948E+04  0.19011529969E+04  0.89629105117E+02 0.  0.
         13    1    3    3    0    0 -0.86228711131E+01  0.27966506567E+03  0.50002524060E+03  0.57298529134E+03  0.00000000000E+00 0. -1.
        -13    1    3    3    0    0 -0.78556778925E+02  0.75175368486E+03  0.10921193542E+04  0.13281677056E+04  0.00000000000E+00 0.  1.
         22    1    1    2    0    0  0.87179650038E+02 -0.10314187505E+04  0.23364000134E+04  0.25554236348E+04  0.00000000000E+00 0.  1.
<mgrwt>
<rscale>  0 0.21041893E+04</rscale>
<asrwt>0</asrwt>
<pdfrwt beam="1">  1        2 0.64500928E+00 0.21041893E+04</pdfrwt>
<pdfrwt beam="2">  1       -2 0.40617851E-01 0.21041893E+04</pdfrwt>
<totfact> 0.12611034E+00</totfact>
</mgrwt>
</event>
<event>
 6    1  0.4630212E-004  0.4431207E+04  0.7818608E-02  0.7922792E-01
          2   -1    0    0  501    0  0.00000000000E+00  0.00000000000E+00  0.42114679973E+04  0.42114679973E+04  0.00000000000E+00 0.  1.
         -2   -1    0    0    0  501 -0.00000000000E+00 -0.00000000000E+00 -0.11656025610E+04  0.11656025610E+04  0.00000000000E+00 0. -1.
         23    2    1    2    0    0  0.12222730560E+03  0.11639717114E+04  0.38050973565E+04  0.39820068438E+04  0.88560442416E+02 0.  0.
         11    1    3    3    0    0  0.48160325079E+02  0.16637565544E+03  0.58600940349E+03  0.61107061508E+03  0.00000000000E+00 0. -1.
        -11    1    3    3    0    0  0.74066980525E+02  0.99759605598E+03  0.32190879530E+04  0.33709362287E+04  0.00000000000E+00 0.  1.
         22    1    1    2    0    0 -0.12222730560E+03 -0.11639717114E+04 -0.75923192022E+03  0.13950637146E+04  0.00000000000E+00 0. -1.
<mgrwt>
<rscale>  0 0.44312066E+04</rscale>
<asrwt>0</asrwt>
<pdfrwt beam="1">  1        2 0.64791815E+00 0.44312066E+04</pdfrwt>
<pdfrwt beam="2">  1       -2 0.17932347E+00 0.44312066E+04</pdfrwt>
<totfact> 0.31557521E-02</totfact>
</mgrwt>
</event>
<event>
 6    1  0.4630212E-004  0.6393572E+04  0.7818608E-02  0.7643431E-01
         -2   -1    0    0    0  501 -0.00000000000E+00  0.00000000000E+00  0.32200706918E+04  0.32200706918E+04  0.00000000000E+00 0. -1.
          2   -1    0    0  501    0  0.00000000000E+00 -0.00000000000E+00 -0.31736696135E+04  0.31736696135E+04  0.00000000000E+00 0.  1.
         23    2    1    2    0    0 -0.72091986822E+03 -0.29591128220E+04 -0.94595708679E+03  0.31904843247E+04  0.91001463194E+02 0.  0.
         13    1    3    3    0    0 -0.38636117762E+03 -0.17207273325E+04 -0.58070151243E+03  0.18567153144E+04  0.00000000000E+00 0. -1.
        -13    1    3    3    0    0 -0.33455869060E+03 -0.12383854895E+04 -0.36525557437E+03  0.13337690103E+04  0.00000000000E+00 0.  1.
         22    1    1    2    0    0  0.72091986822E+03  0.29591128220E+04  0.99235816506E+03  0.32032559806E+04  0.00000000000E+00 0. -1.
<mgrwt>
<rscale>  0 0.63935719E+04</rscale>
<asrwt>0</asrwt>
<pdfrwt beam="1">  1        2 0.48825687E+00 0.63935719E+04</pdfrwt>
<pdfrwt beam="2">  1       -2 0.49539549E+00 0.63935719E+04</pdfrwt>
<totfact> 0.15700967E-03</totfact>
</mgrwt>
</event>
<event>
 6    1  0.4630212E-004  0.2620142E+04  0.7818608E-02  0.8361392E-01
         -2   -1    0    0    0  501 -0.00000000000E+00  0.00000000000E+00  0.14890255361E+04  0.14890255361E+04  0.00000000000E+00 0. -1.
          2   -1    0    0  501    0  0.00000000000E+00 -0.00000000000E+00 -0.11526231988E+04  0.11526231988E+04  0.00000000000E+00 0.  1.
         23    2    1    2    0    0  0.30224271926E+03 -0.10752748971E+04 -0.51869390440E+03  0.12349659888E+04  0.92362662576E+02 0.  0.
         11    1    3    3    0    0  0.25568727068E+03 -0.89204234658E+03 -0.46765996747E+03  0.10391445393E+04  0.00000000000E+00 0. -1.
        -11    1    3    3    0    0  0.46555448571E+02 -0.18323255048E+03 -0.51033936937E+02  0.19582144946E+03  0.00000000000E+00 0.  1.
         22    1    1    2    0    0 -0.30224271926E+03  0.10752748971E+04  0.85509624170E+03  0.14066827461E+04  0.00000000000E+00 0. -1.
<mgrwt>
<rscale>  0 0.26201415E+04</rscale>
<asrwt>0</asrwt>
<pdfrwt beam="1">  1        2 0.17732665E+00 0.26201415E+04</pdfrwt>
<pdfrwt beam="2">  1       -2 0.22908085E+00 0.26201415E+04</pdfrwt>
<totfact> 0.15475896E+00</totfact>
</mgrwt>
</event>
<event>
 6    1  0.4630212E-004  0.1672992E+04  0.7818608E-02  0.8776920E-01
          2   -1    0    0  501    0  0.00000000000E+00  0.00000000000E+00  0.88406603632E+03  0.88406603632E+03  0.00000000000E+00 0.  1.
         -2   -1    0    0    0  501 -0.00000000000E+00 -0.00000000000E+00 -0.79148535593E+03  0.79148535593E+03  0.00000000000E+00 0. -1.
         23    2    1    2    0    0  0.30552313929E+03 -0.50616140745E+03  0.63552780846E+03  0.87284637612E+03  0.91768414716E+02 0.  0.
         13    1    3    3    0    0  0.46656888283E+02 -0.50876046719E+02  0.11700610521E+03  0.13585163235E+03  0.00000000000E+00 0.  1.
        -13    1    3    3    0    0  0.25886625101E+03 -0.45528536073E+03  0.51852170325E+03  0.73699474377E+03  0.00000000000E+00 0. -1.
         22    1    1    2    0    0 -0.30552313929E+03  0.50616140745E+03 -0.54294712808E+03  0.80270501613E+03  0.00000000000E+00 0. -1.
<mgrwt>
<rscale>  0 0.16729917E+04</rscale>
<asrwt>0</asrwt>
<pdfrwt beam="1">  1        2 0.13601016E+00 0.16729917E+04</pdfrwt>
<pdfrwt beam="2">  1       -2 0.12176698E+00 0.16729917E+04</pdfrwt>
<totfact> 0.14677281E+01</totfact>
</mgrwt>
</event>
<event>
 6    1  0.4630212E-004  0.2949583E+04  0.7818608E-02  0.8258276E-01
         -2   -1    0    0    0  501 -0.00000000000E+00  0.00000000000E+00  0.15644157456E+04  0.15644157456E+04  0.00000000000E+00 0.  1.
          2   -1    0    0  501    0  0.00000000000E+00 -0.00000000000E+00 -0.13903020402E+04  0.13903020402E+04  0.00000000000E+00 0. -1.
         23    2    1    2    0    0 -0.56556133861E+03  0.55360186344E+03 -0.11578050476E+04  0.14054140016E+04  0.91330918179E+02 0.  0.
         13    1    3    3    0    0 -0.34076660160E+03  0.34677728086E+03 -0.63272913306E+03  0.79794894267E+03  0.00000000000E+00 0. -1.
        -13    1    3    3    0    0 -0.22479473701E+03  0.20682458258E+03 -0.52507591459E+03  0.60746505894E+03  0.00000000000E+00 0.  1.
         22    1    1    2    0    0  0.56556133861E+03 -0.55360186344E+03  0.13319187530E+04  0.15493037842E+04  0.00000000000E+00 0.  1.
<mgrwt>
<rscale>  0 0.29495833E+04</rscale>
<asrwt>0</asrwt>
<pdfrwt beam="1">  1        2 0.21389262E+00 0.29495833E+04</pdfrwt>
<pdfrwt beam="2">  1       -2 0.24067935E+00 0.29495833E+04</pdfrwt>
<totfact> 0.92428468E-01</totfact>
</mgrwt>
</event>
<event>
 6    1  0.4630212E-004  0.4073881E+04  0.7818608E-02  0.7989806E-01
         -2   -1    0    0    0  501 -0.00000000000E+00  0.00000000000E+00  0.20312985259E+04  0.20312985259E+04  0.00000000000E+00 0. -1.
          2   -1    0    0  501    0  0.00000000000E+00 -0.00000000000E+00 -0.20425985587E+04  0.20425985587E+04  0.00000000000E+00 0.  1.
         23    2    1    2    0    0 -0.90356429823E+03  0.11790555817E+04  0.13864648718E+04  0.20342041582E+04  0.95400265086E+02 0.  0.
         13    1    3    3    0    0 -0.71998016221E+03  0.99847222813E+03  0.11419807667E+04  0.16791183091E+04  0.00000000000E+00 0. -1.
        -13    1    3    3    0    0 -0.18358413602E+03  0.18058335359E+03  0.24448410506E+03  0.35508584908E+03  0.00000000000E+00 0.  1.
         22    1    1    2    0    0  0.90356429823E+03 -0.11790555817E+04 -0.13977649046E+04  0.20396929265E+04  0.00000000000E+00 0.  1.
<mgrwt>
<rscale>  0 0.40738814E+04</rscale>
<asrwt>0</asrwt>
<pdfrwt beam="1">  1        2 0.31424593E+00 0.40738814E+04</pdfrwt>
<pdfrwt beam="2">  1       -2 0.31250747E+00 0.40738814E+04</pdfrwt>
<totfact> 0.13211452E-01</totfact>
</mgrwt>
</event>
<event>
 6    1  0.4630212E-004  0.6805923E+03  0.7818608E-02  0.9751010E-01
          2   -1    0    0  501    0  0.00000000000E+00  0.00000000000E+00  0.40678649131E+03  0.40678649131E+03  0.00000000000E+00 0.  1.
         -2   -1    0    0    0  501 -0.00000000000E+00 -0.00000000000E+00 -0.28467380237E+03  0.28467380237E+03  0.00000000000E+00 0. -1.
         23    2    1    2    0    0  0.14295586146E+02  0.28444631186E+03  0.23935090755E+03  0.38346862494E+03  0.92979897039E+02 0.  0.
         13    1    3    3    0    0  0.35272922182E+02  0.56836587884E+02  0.29265781011E+02  0.73014126713E+02  0.00000000000E+00 0.  1.
        -13    1    3    3    0    0 -0.20977336036E+02  0.22760972398E+03  0.21008512653E+03  0.31045449823E+03  0.00000000000E+00 0. -1.
         22    1    1    2    0    0 -0.14295586146E+02 -0.28444631186E+03 -0.11723821860E+03  0.30799166875E+03  0.00000000000E+00 0. -1.
<mgrwt>
<rscale>  0 0.68059226E+03</rscale>
<asrwt>0</asrwt>
<pdfrwt beam="1">  1        2 0.62582537E-01 0.68059226E+03</pdfrwt>
<pdfrwt beam="2">  1       -2 0.43795970E-01 0.68059226E+03</pdfrwt>
<totfact> 0.38907091E+02</totfact>
</mgrwt>
</event>
<event>
 6    1  0.4630212E-004  0.3300138E+04  0.7818608E-02  0.8162860E-01
         -2   -1    0    0    0  501 -0.00000000000E+00  0.00000000000E+00  0.57965283063E+03  0.57965283063E+03  0.00000000000E+00 0. -1.
          2   -1    0    0  501    0  0.00000000000E+00 -0.00000000000E+00 -0.46971702468E+04  0.46971702468E+04  0.00000000000E+00 0.  1.
         23    2    1    2    0    0 -0.12165847420E+04 -0.11119099465E+04 -0.21383869710E+04  0.27012882820E+04  0.88528985054E+02 0.  0.
         13    1    3    3    0    0 -0.70647546573E+03 -0.68348262115E+03 -0.13287562033E+04  0.16528306401E+04  0.00000000000E+00 0.  1.
        -13    1    3    3    0    0 -0.51010927624E+03 -0.42842732532E+03 -0.80963076762E+03  0.10484576418E+04  0.00000000000E+00 0. -1.
         22    1    1    2    0    0  0.12165847420E+04  0.11119099465E+04 -0.19791304452E+04  0.25755347954E+04  0.00000000000E+00 0.  1.
<mgrwt>
<rscale>  0 0.33001382E+04</rscale>
<asrwt>0</asrwt>
<pdfrwt beam="1">  1        2 0.72264155E+00 0.33001382E+04</pdfrwt>
<pdfrwt beam="2">  1       -2 0.89177362E-01 0.33001382E+04</pdfrwt>
<totfact> 0.69382934E-02</totfact>
</mgrwt>
</event>
<event>
 6    1  0.5181062E-004  0.1797190E+04  0.7818608E-02  0.8707795E-01
          1   -1    0    0  501    0  0.00000000000E+00  0.00000000000E+00  0.16787679075E+04  0.16787679075E+04  0.00000000000E+00 0.  1.
         -1   -1    0    0    0  501 -0.00000000000E+00 -0.00000000000E+00 -0.48099150443E+03  0.48099150443E+03  0.00000000000E+00 0. -1.
         23    2    1    2    0    0 -0.71427062573E+03  0.53980425745E+03  0.64468645199E+03  0.11073908182E+04  0.95512510468E+02 0.  0.
         11    1    3    3    0    0 -0.47543862120E+03  0.32273113202E+03  0.36873825474E+03  0.68276289194E+03  0.00000000000E+00 0. -1.
        -11    1    3    3    0    0 -0.23883200453E+03  0.21707312543E+03  0.27594819725E+03  0.42462792624E+03  0.00000000000E+00 0.  1.
         22    1    1    2    0    0  0.71427062573E+03 -0.53980425745E+03  0.55308995110E+03  0.10523685938E+04  0.00000000000E+00 0.  1.
<mgrwt>
<rscale>  0 0.17971901E+04</rscale>
<asrwt>0</asrwt>
<pdfrwt beam="1">  1        1 0.25827198E+00 0.17971901E+04</pdfrwt>
<pdfrwt beam="2">  1       -1 0.73998694E-01 0.17971901E+04</pdfrwt>
<totfact> 0.85521808E+00</totfact>
</mgrwt>
</event>
<event>
 6    1  0.4630212E-004  0.4041453E+04  0.7818608E-02  0.7996236E-01
          2   -1    0    0  501    0  0.00000000000E+00  0.00000000000E+00  0.20128359093E+04  0.20128359093E+04  0.00000000000E+00 0.  1.
         -2   -1    0    0    0  501 -0.00000000000E+00 -0.00000000000E+00 -0.20286476916E+04  0.20286476916E+04  0.00000000000E+00 0. -1.
         23    2    1    2    0    0  0.77976206934E+03  0.14037260768E+04 -0.12330518302E+04  0.20265024303E+04  0.88427941073E+02 0.  0.
         13    1    3    3    0    0  0.63061636313E+03  0.11528825513E+04 -0.10494946768E+04  0.16817414341E+04  0.00000000000E+00 0.  1.
        -13    1    3    3    0    0  0.14914570621E+03  0.25084352546E+03 -0.18355715338E+03  0.34476099620E+03  0.00000000000E+00 0. -1.
         22    1    1    2    0    0 -0.77976206934E+03 -0.14037260768E+04  0.12172400479E+04  0.20149811705E+04  0.00000000000E+00 0.  1.
<mgrwt>
<rscale>  0 0.40414527E+04</rscale>
<asrwt>0</asrwt>
<pdfrwt beam="1">  1        2 0.30966706E+00 0.40414527E+04</pdfrwt>
<pdfrwt beam="2">  1       -2 0.31209965E+00 0.40414527E+04</pdfrwt>
<totfact> 0.13841377E-01</totfact>
</mgrwt>
</event>
<event>
 6    1  0.4630212E-004  0.1137932E+04  0.7818608E-02  0.9168990E-01
          2   -1    0    0  501    0  0.00000000000E+00  0.00000000000E+00  0.12153097457E+04  0.12153097457E+04  0.00000000000E+00 0. -1.
         -2   -1    0    0    0  501 -0.00000000000E+00 -0.00000000000E+00 -0.26637009712E+03  0.26637009712E+03  0.00000000000E+00 0.  1.
         23    2    1    2    0    0 -0.16654050959E+03 -0.48960329694E+03  0.77723059396E+03  0.93676596969E+03  0.77433559111E+02 0.  0.
         13    1    3    3    0    0 -0.72839917868E+02 -0.27737521424E+03  0.48754500579E+03  0.56563486082E+03  0.00000000000E+00 0. -1.
        -13    1    3    3    0    0 -0.93700591721E+02 -0.21222808270E+03  0.28968558817E+03  0.37113110887E+03  0.00000000000E+00 0.  1.
         22    1    1    2    0    0  0.16654050959E+03  0.48960329694E+03  0.17170905466E+03  0.54491387316E+03  0.00000000000E+00 0.  1.
<mgrwt>
<rscale>  0 0.11379318E+04</rscale>
<asrwt>0</asrwt>
<pdfrwt beam="1">  1        2 0.18697073E+00 0.11379318E+04</pdfrwt>
<pdfrwt beam="2">  1       -2 0.40980016E-01 0.11379318E+04</pdfrwt>
<totfact> 0.10353805E+02</totfact>
</mgrwt>
</event>
<event>
 6    1  0.4630212E-004  0.6505830E+03  0.7818608E-02  0.9805686E-01
         -2   -1    0    0    0  501 -0.00000000000E+00  0.00000000000E+00  0.63245803824E+03  0.63245803824E+03  0.00000000000E+00 0. -1.
          2   -1    0    0  501    0  0.00000000000E+00 -0.00000000000E+00 -0.16730686951E+03  0.16730686951E+03  0.00000000000E+00 0.  1.
         23    2    1    2    0    0  0.25673895211E+03  0.11881391731E+03  0.55345579461E+02  0.30179677878E+03  0.89367365658E+02 0.  0.
         13    1    3    3    0    0  0.53880680638E+02  0.58940557822E+02 -0.98624915984E+01  0.80463568420E+02  0.00000000000E+00 0.  1.
        -13    1    3    3    0    0  0.20285827147E+03  0.59873359484E+02  0.65208071059E+02  0.22133321036E+03  0.00000000000E+00 0. -1.
         22    1    1    2    0    0 -0.25673895211E+03 -0.11881391731E+03  0.40980558927E+03  0.49796812897E+03  0.00000000000E+00 0. -1.
<mgrwt>
<rscale>  0 0.65058304E+03</rscale>
<asrwt>0</asrwt>
<pdfrwt beam="1">  1        2 0.25739519E-01 0.65058304E+03</pdfrwt>
<pdfrwt beam="2">  1       -2 0.97301235E-01 0.65058304E+03</pdfrwt>
<totfact> 0.18884462E+02</totfact>
</mgrwt>
</event>
<event>
 6    1  0.4630212E-004  0.1430000E+04  0.7818608E-02  0.8932385E-01
         -2   -1    0    0    0  501 -0.00000000000E+00  0.00000000000E+00  0.67893050593E+03  0.67893050593E+03  0.00000000000E+00 0. -1.
          2   -1    0    0  501    0  0.00000000000E+00 -0.00000000000E+00 -0.75298574351E+03  0.75298574351E+03  0.00000000000E+00 0.  1.
         23    2    1    2    0    0 -0.74089497540E+02  0.53224557719E+03  0.43060009727E+03  0.69472454094E+03  0.91930060056E+02 0.  0.
         11    1    3    3    0    0  0.13751571877E+02  0.35632366722E+02  0.49923210611E+02  0.62857762011E+02  0.00000000000E+00 0. -1.
        -11    1    3    3    0    0 -0.87841069417E+02  0.49661321046E+03  0.38067688666E+03  0.63186677893E+03  0.00000000000E+00 0.  1.
         22    1    1    2    0    0  0.74089497540E+02 -0.53224557719E+03 -0.50465533485E+03  0.73719170849E+03  0.00000000000E+00 0.  1.
<mgrwt>
<rscale>  0 0.14300000E+04</rscale>
<asrwt>0</asrwt>
<pdfrwt beam="1">  1        2 0.11584396E+00 0.14300000E+04</pdfrwt>
<pdfrwt beam="2">  1       -2 0.10445085E+00 0.14300000E+04</pdfrwt>
<totfact> 0.26975577E+01</totfact>
</mgrwt>
</event>
<event>
 6    1  0.4630212E-004  0.9278332E+03  0.7818608E-02  0.9391442E-01
          2   -1    0    0  501    0  0.00000000000E+00  0.00000000000E+00  0.10011675751E+04  0.10011675751E+04  0.00000000000E+00 0.  1.
         -2   -1    0    0    0  501 -0.00000000000E+00 -0.00000000000E+00 -0.21496763287E+03  0.21496763287E+03  0.00000000000E+00 0. -1.
         23    2    1    2    0    0  0.42099526190E+03 -0.18428447505E+03  0.39243417275E+03  0.61094989792E+03  0.89763130171E+02 0.  0.
         11    1    3    3    0    0  0.17279598133E+03 -0.12293593472E+03  0.19219631839E+03  0.28620118800E+03  0.00000000000E+00 0. -1.
        -11    1    3    3    0    0  0.24819928057E+03 -0.61348540333E+02  0.20023785436E+03  0.32474870992E+03  0.00000000000E+00 0.  1.
         22    1    1    2    0    0 -0.42099526190E+03  0.18428447505E+03  0.39376576949E+03  0.60518531006E+03  0.00000000000E+00 0.  1.
<mgrwt>
<rscale>  0 0.92783323E+03</rscale>
<asrwt>0</asrwt>
<pdfrwt beam="1">  1        2 0.15402578E+00 0.92783323E+03</pdfrwt>
<pdfrwt beam="2">  1       -2 0.33071944E-01 0.92783323E+03</pdfrwt>
<totfact> 0.21466321E+02</totfact>
</mgrwt>
</event>
<event>
 6    1  0.4630212E-004  0.1031753E+04  0.7818608E-02  0.9274388E-01
          2   -1    0    0  501    0  0.00000000000E+00  0.00000000000E+00  0.27387988001E+03  0.27387988001E+03  0.00000000000E+00 0.  1.
         -2   -1    0    0    0  501 -0.00000000000E+00 -0.00000000000E+00 -0.97169869652E+03  0.97169869652E+03  0.00000000000E+00 0. -1.
         23    2    1    2    0    0  0.16318826919E+03 -0.23233364676E+03  0.16242246117E+03  0.33969536637E+03  0.91665432023E+02 0.  0.
         11    1    3    3    0    0  0.95133715464E+01 -0.78618633039E+02  0.60335473325E+02  0.99557837665E+02  0.00000000000E+00 0. -1.
        -11    1    3    3    0    0  0.15367489764E+03 -0.15371501372E+03  0.10208698784E+03  0.24013752871E+03  0.00000000000E+00 0.  1.
         22    1    1    2    0    0 -0.16318826919E+03  0.23233364676E+03 -0.86024127768E+03  0.90588321016E+03  0.00000000000E+00 0. -1.
<mgrwt>
<rscale>  0 0.10317533E+04</rscale>
<asrwt>0</asrwt>
<pdfrwt beam="1">  1        2 0.42135366E-01 0.10317533E+04</pdfrwt>
<pdfrwt beam="2">  1       -2 0.14949211E+00 0.10317533E+04</pdfrwt>
<totfact> 0.36587521E+01</totfact>
</mgrwt>
</event>
<event>
 6    1  0.4630212E-004  0.1561863E+04  0.7818608E-02  0.8844326E-01
          2   -1    0    0  501    0  0.00000000000E+00  0.00000000000E+00  0.86216579411E+03  0.86216579411E+03  0.00000000000E+00 0.  1.
         -2   -1    0    0    0  501 -0.00000000000E+00 -0.00000000000E+00 -0.70735140622E+03  0.70735140622E+03  0.00000000000E+00 0. -1.
         23    2    1    2    0    0  0.46775433210E+03  0.60139548388E+03 -0.82204395630E+02  0.77161460792E+03  0.90337684663E+02 0.  0.
         13    1    3    3    0    0  0.21119401284E+03  0.22524695571E+03 -0.67504903044E+02  0.31606330703E+03  0.00000000000E+00 0. -1.
        -13    1    3    3    0    0  0.25656031926E+03  0.37614852817E+03 -0.14699492586E+02  0.45555130089E+03  0.00000000000E+00 0.  1.
         22    1    1    2    0    0 -0.46775433210E+03 -0.60139548388E+03  0.23701878352E+03  0.79790259241E+03  0.00000000000E+00 0. -1.
<mgrwt>
<rscale>  0 0.15618632E+04</rscale>
<asrwt>0</asrwt>
<pdfrwt beam="1">  1        2 0.13264089E+00 0.15618632E+04</pdfrwt>
<pdfrwt beam="2">  1       -2 0.10882329E+00 0.15618632E+04</pdfrwt>
<totfact> 0.20188576E+01</totfact>
</mgrwt>
</event>
<event>
 6    1  0.4630212E-004  0.3554590E+04  0.7818608E-02  0.8100973E-01
         -2   -1    0    0    0  501 -0.00000000000E+00  0.00000000000E+00  0.15493902686E+04  0.15493902686E+04  0.00000000000E+00 0. -1.
          2   -1    0    0  501    0  0.00000000000E+00 -0.00000000000E+00 -0.20387227971E+04  0.20387227971E+04  0.00000000000E+00 0.  1.
         23    2    1    2    0    0 -0.64936999200E+03  0.15379344140E+04 -0.85605547795E+03  0.18788999806E+04  0.10252076720E+03 0.  0.
         11    1    3    3    0    0 -0.14145276527E+03  0.33846175813E+03 -0.23671248519E+03  0.43657536253E+03  0.00000000000E+00 0. -1.
        -11    1    3    3    0    0 -0.50791722673E+03  0.11994726559E+04 -0.61934299276E+03  0.14423246181E+04  0.00000000000E+00 0.  1.
         22    1    1    2    0    0  0.64936999200E+03 -0.15379344140E+04  0.36672294943E+03  0.17092130850E+04  0.00000000000E+00 0. -1.
<mgrwt>
<rscale>  0 0.35545899E+04</rscale>
<asrwt>0</asrwt>
<pdfrwt beam="1">  1        2 0.31364966E+00 0.35545899E+04</pdfrwt>
<pdfrwt beam="2">  1       -2 0.23836774E+00 0.35545899E+04</pdfrwt>
<totfact> 0.39436165E-01</totfact>
</mgrwt>
</event>
<event>
 6    1  0.4630212E-004  0.5001478E+04  0.7818608E-02  0.7828279E-01
          2   -1    0    0  501    0  0.00000000000E+00  0.00000000000E+00  0.32571961218E+04  0.32571961218E+04  0.00000000000E+00 0.  1.
         -2   -1    0    0    0  501 -0.00000000000E+00 -0.00000000000E+00 -0.19199625976E+04  0.19199625976E+04  0.00000000000E+00 0. -1.
         23    2    1    2    0    0 -0.85462051378E+03  0.73060415491E+03  0.29800930859E+04  0.31863934914E+04  0.89386955811E+02 0.  0.
         11    1    3    3    0    0 -0.56763438282E+03  0.42952891878E+03  0.19035874522E+04  0.20323260252E+04  0.00000000000E+00 0. -1.
        -11    1    3    3    0    0 -0.28698613096E+03  0.30107523613E+03  0.10765056337E+04  0.11540674662E+04  0.00000000000E+00 0.  1.
         22    1    1    2    0    0  0.85462051378E+03 -0.73060415491E+03 -0.16428595616E+04  0.19907652280E+04  0.00000000000E+00 0. -1.
<mgrwt>
<rscale>  0 0.50014777E+04</rscale>
<asrwt>0</asrwt>
<pdfrwt beam="1">  1        2 0.50110710E+00 0.50014777E+04</pdfrwt>
<pdfrwt beam="2">  1       -2 0.29537886E+00 0.50014777E+04</pdfrwt>
<totfact> 0.29333080E-02</totfact>
</mgrwt>
</event>
<event>
 6    1  0.4630212E-004  0.1772169E+04  0.7818608E-02  0.8721241E-01
         -2   -1    0    0    0  501 -0.00000000000E+00  0.00000000000E+00  0.49566019280E+03  0.49566019280E+03  0.00000000000E+00 0. -1.
          2   -1    0    0  501    0  0.00000000000E+00 -0.00000000000E+00 -0.15840398650E+04  0.15840398650E+04  0.00000000000E+00 0.  1.
         23    2    1    2    0    0 -0.23685896677E+02 -0.43517010753E+03 -0.14478126772E+04  0.15147875608E+04  0.92118194110E+02 0.  0.
         13    1    3    3    0    0 -0.11844158074E+02 -0.35940489827E+03 -0.10562103799E+04  0.11157475214E+04  0.00000000000E+00 0. -1.
        -13    1    3    3    0    0 -0.11841738603E+02 -0.75765209259E+02 -0.39160229732E+03  0.39904003931E+03  0.00000000000E+00 0.  1.
         22    1    1    2    0    0  0.23685896677E+02  0.43517010753E+03  0.35943300504E+03  0.56491249704E+03  0.00000000000E+00 0. -1.
<mgrwt>
<rscale>  0 0.17721687E+04</rscale>
<asrwt>0</asrwt>
<pdfrwt beam="1">  1        2 0.24369844E+00 0.17721687E+04</pdfrwt>
<pdfrwt beam="2">  1       -2 0.76255415E-01 0.17721687E+04</pdfrwt>
<totfact> 0.16574975E+01</totfact>
</mgrwt>
</event>
<event>
 6    1  0.4630212E-004  0.5387824E+04  0.7818608E-02  0.7771316E-01
         -2   -1    0    0    0  501 -0.00000000000E+00  0.00000000000E+00  0.18913255653E+04  0.18913255653E+04  0.00000000000E+00 0. -1.
          2   -1    0    0  501    0  0.00000000000E+00 -0.00000000000E+00 -0.38370777309E+04  0.38370777309E+04  0.00000000000E+00 0.  1.
         23    2    1    2    0    0  0.50129446962E+03  0.24900687940E+04 -0.19248808709E+04  0.31882902366E+04  0.91046809774E+02 0.  0.
         13    1    3    3    0    0  0.26414884495E+03  0.11015295419E+04 -0.83551176682E+03  0.14075588288E+04  0.00000000000E+00 0. -1.
        -13    1    3    3    0    0  0.23714562467E+03  0.13885392522E+04 -0.10893691041E+04  0.17807314079E+04  0.00000000000E+00 0.  1.
         22    1    1    2    0    0 -0.50129446962E+03 -0.24900687940E+04 -0.20871294740E+02  0.25401130595E+04  0.00000000000E+00 0. -1.
<mgrwt>
<rscale>  0 0.53878245E+04</rscale>
<asrwt>0</asrwt>
<pdfrwt beam="1">  1        2 0.59031964E+00 0.53878245E+04</pdfrwt>
<pdfrwt beam="2">  1       -2 0.29097317E+00 0.53878245E+04</pdfrwt>
<totfact> 0.11678180E-02</totfact>
</mgrwt>
</event>
<event>
 6    1  0.4630212E-004  0.1909997E+04  0.7818608E-02  0.8649896E-01
          2   -1    0    0  501    0  0.00000000000E+00  0.00000000000E+00  0.10105425398E+04  0.10105425398E+04  0.00000000000E+00 0.  1.
         -2   -1    0    0    0  501 -0.00000000000E+00 -0.00000000000E+00 -0.90250706328E+03  0.90250706328E+03  0.00000000000E+00 0. -1.
         23    2    1    2    0    0 -0.21962096464E+02  0.38575440191E+03 -0.81815085991E+03  0.90950093857E+03  0.92370641484E+02 0.  0.
         13    1    3    3    0    0 -0.46038935712E+02  0.35612212835E+03 -0.73903190617E+03  0.82165121082E+03  0.00000000000E+00 0.  1.
        -13    1    3    3    0    0  0.24076839248E+02  0.29632273558E+02 -0.79118953739E+02  0.87849727747E+02  0.00000000000E+00 0. -1.
         22    1    1    2    0    0  0.21962096464E+02 -0.38575440191E+03  0.92618633640E+03  0.10035486645E+04  0.00000000000E+00 0.  1.
<mgrwt>
<rscale>  0 0.19099966E+04</rscale>
<asrwt>0</asrwt>
<pdfrwt beam="1">  1        2 0.15546808E+00 0.19099966E+04</pdfrwt>
<pdfrwt beam="2">  1       -2 0.13884724E+00 0.19099966E+04</pdfrwt>
<totfact> 0.85157571E+00</totfact>
</mgrwt>
</event>
<event>
 6    1  0.4630212E-004  0.2009148E+04  0.7818608E-02  0.8602356E-01
         -2   -1    0    0    0  501 -0.00000000000E+00  0.00000000000E+00  0.56562222625E+03  0.56562222625E+03  0.00000000000E+00 0. -1.
          2   -1    0    0  501    0  0.00000000000E+00 -0.00000000000E+00 -0.17841751382E+04  0.17841751382E+04  0.00000000000E+00 0.  1.
         23    2    1    2    0    0 -0.72601315087E+03  0.69122693128E+03 -0.59708593311E+03  0.11703436894E+04  0.91120656578E+02 0.  0.
         11    1    3    3    0    0 -0.69953958398E+03  0.67531654485E+03 -0.55990733899E+03  0.11220090434E+04  0.00000000000E+00 0. -1.
        -11    1    3    3    0    0 -0.26473566894E+02  0.15910386424E+02 -0.37178594114E+02  0.48334645965E+02  0.00000000000E+00 0.  1.
         22    1    1    2    0    0  0.72601315087E+03 -0.69122693128E+03 -0.62146697880E+03  0.11794536750E+04  0.00000000000E+00 0.  1.
<mgrwt>
<rscale>  0 0.20091482E+04</rscale>
<asrwt>0</asrwt>
<pdfrwt beam="1">  1        2 0.27448848E+00 0.20091482E+04</pdfrwt>
<pdfrwt beam="2">  1       -2 0.87018806E-01 0.20091482E+04</pdfrwt>
<totfact> 0.93345851E+00</totfact>
</mgrwt>
</event>
<event>
 6    1  0.4630212E-004  0.3474074E+04  0.7818608E-02  0.8119962E-01
          2   -1    0    0  501    0  0.00000000000E+00  0.00000000000E+00  0.22810341375E+04  0.22810341375E+04  0.00000000000E+00 0.  1.
         -2   -1    0    0    0  501 -0.00000000000E+00 -0.00000000000E+00 -0.13227763161E+04  0.13227763161E+04  0.00000000000E+00 0. -1.
         23    2    1    2    0    0  0.15104844125E+04  0.37912474061E+03  0.12745984573E+04  0.20146691360E+04  0.94824948135E+02 0.  0.
         11    1    3    3    0    0  0.35491544165E+03  0.12709630367E+03  0.33016487045E+03  0.50112601490E+03  0.00000000000E+00 0.  1.
        -11    1    3    3    0    0  0.11555689708E+04  0.25202843694E+03  0.94443358684E+03  0.15135431211E+04  0.00000000000E+00 0. -1.
         22    1    1    2    0    0 -0.15104844125E+04 -0.37912474061E+03 -0.31634063597E+03  0.15891413176E+04  0.00000000000E+00 0. -1.
<mgrwt>
<rscale>  0 0.34740742E+04</rscale>
<asrwt>0</asrwt>
<pdfrwt beam="1">  1        2 0.35092833E+00 0.34740742E+04</pdfrwt>
<pdfrwt beam="2">  1       -2 0.20350405E+00 0.34740742E+04</pdfrwt>
<totfact> 0.48278429E-01</totfact>
</mgrwt>
</event>
<event>
 6    1  0.4630212E-004  0.4075564E+04  0.7818608E-02  0.7989474E-01
         -2   -1    0    0    0  501 -0.00000000000E+00  0.00000000000E+00  0.14322813081E+04  0.14322813081E+04  0.00000000000E+00 0. -1.
          2   -1    0    0  501    0  0.00000000000E+00 -0.00000000000E+00 -0.28992602492E+04  0.28992602492E+04  0.00000000000E+00 0.  1.
         23    2    1    2    0    0 -0.88832911349E+03  0.12087124141E+04 -0.21981795701E+04  0.26627789398E+04  0.91016186717E+02 0.  0.
         11    1    3    3    0    0 -0.39827738586E+03  0.57636175171E+03 -0.10983631067E+04  0.13027736791E+04  0.00000000000E+00 0.  1.
        -11    1    3    3    0    0 -0.49005172763E+03  0.63235066236E+03 -0.10998164634E+04  0.13600052607E+04  0.00000000000E+00 0. -1.
         22    1    1    2    0    0  0.88832911349E+03 -0.12087124141E+04  0.73120062889E+03  0.16687626175E+04  0.00000000000E+00 0. -1.
<mgrwt>
<rscale>  0 0.40755644E+04</rscale>
<asrwt>0</asrwt>
<pdfrwt beam="1">  1        2 0.44604003E+00 0.40755644E+04</pdfrwt>
<pdfrwt beam="2">  1       -2 0.22035097E+00 0.40755644E+04</pdfrwt>
<totfact> 0.15499729E-01</totfact>
</mgrwt>
</event>
<event>
 6    1  0.4630212E-004  0.2127132E+04  0.7818608E-02  0.8549385E-01
         -2   -1    0    0    0  501 -0.00000000000E+00  0.00000000000E+00  0.88403365366E+03  0.88403365366E+03  0.00000000000E+00 0.  1.
          2   -1    0    0  501    0  0.00000000000E+00 -0.00000000000E+00 -0.12795577910E+04  0.12795577910E+04  0.00000000000E+00 0. -1.
         23    2    1    2    0    0  0.56696889322E+03  0.71686520586E+03  0.35232866178E+03  0.98264552786E+03  0.78149205117E+02 0.  0.
         11    1    3    3    0    0  0.30342178472E+03  0.42824019818E+03  0.17293377656E+03  0.55259437009E+03  0.00000000000E+00 0.  1.
        -11    1    3    3    0    0  0.26354710850E+03  0.28862500768E+03  0.17939488522E+03  0.43005115777E+03  0.00000000000E+00 0. -1.
         22    1    1    2    0    0 -0.56696889322E+03 -0.71686520586E+03 -0.74785279914E+03  0.11809459168E+04  0.00000000000E+00 0. -1.
<mgrwt>
<rscale>  0 0.21271315E+04</rscale>
<asrwt>0</asrwt>
<pdfrwt beam="1">  1        2 0.19685504E+00 0.21271315E+04</pdfrwt>
<pdfrwt beam="2">  1       -2 0.13600518E+00 0.21271315E+04</pdfrwt>
<totfact> 0.60493977E+00</totfact>
</mgrwt>
</event>
<event>
 6    1  0.4630212E-004  0.9560343E+03  0.7818608E-02  0.9358125E-01
          2   -1    0    0  501    0  0.00000000000E+00  0.00000000000E+00  0.16696598239E+04  0.16696598239E+04  0.00000000000E+00 0.  1.
         -2   -1    0    0    0  501 -0.00000000000E+00 -0.00000000000E+00 -0.13685446944E+03  0.13685446944E+03  0.00000000000E+00 0. -1.
         23    2    1    2    0    0 -0.10392935669E+03  0.31770817915E+03  0.13890897041E+03  0.37309637530E+03  0.90362630094E+02 0.  0.
         11    1    3    3    0    0 -0.27420651664E+02  0.43967837844E+02  0.57570331594E+02  0.77455832461E+02  0.00000000000E+00 0. -1.
        -11    1    3    3    0    0 -0.76508705031E+02  0.27374034131E+03  0.81338638817E+02  0.29564054284E+03  0.00000000000E+00 0.  1.
         22    1    1    2    0    0  0.10392935669E+03 -0.31770817915E+03  0.13938963840E+04  0.14334179180E+04  0.00000000000E+00 0.  1.
<mgrwt>
<rscale>  0 0.95603433E+03</rscale>
<asrwt>0</asrwt>
<pdfrwt beam="1">  1        2 0.25687073E+00 0.95603433E+03</pdfrwt>
<pdfrwt beam="2">  1       -2 0.21054535E-01 0.95603433E+03</pdfrwt>
<totfact> 0.19926930E+02</totfact>
</mgrwt>
</event>
<event>
 6    1  0.4630212E-004  0.3782759E+04  0.7818608E-02  0.8049865E-01
         -2   -1    0    0    0  501 -0.00000000000E+00  0.00000000000E+00  0.10439872400E+04  0.10439872400E+04  0.00000000000E+00 0. -1.
          2   -1    0    0  501    0  0.00000000000E+00 -0.00000000000E+00 -0.34265900600E+04  0.34265900600E+04  0.00000000000E+00 0.  1.
         23    2    1    2    0    0 -0.82228164884E+02 -0.78034114277E+03  0.84036954040E+03  0.11534634029E+04  0.92536949911E+02 0.  0.
         13    1    3    3    0    0 -0.10082541226E+02 -0.51443013049E+03  0.55321550977E+03  0.75550474323E+03  0.00000000000E+00 0.  1.
        -13    1    3    3    0    0 -0.72145623658E+02 -0.26591101227E+03  0.28715403063E+03  0.39795865962E+03  0.00000000000E+00 0. -1.
         22    1    1    2    0    0  0.82228164884E+02  0.78034114277E+03 -0.32229723605E+04  0.33171138971E+04  0.00000000000E+00 0.  1.
<mgrwt>
<rscale>  0 0.37827589E+04</rscale>
<asrwt>0</asrwt>
<pdfrwt beam="1">  1        2 0.52716769E+00 0.37827589E+04</pdfrwt>
<pdfrwt beam="2">  1       -2 0.16061342E+00 0.37827589E+04</pdfrwt>
<totfact> 0.18269427E-01</totfact>
</mgrwt>
</event>
<event>
 6    1  0.4630212E-004  0.1087981E+04  0.7818608E-02  0.9216986E-01
         -2   -1    0    0    0  501 -0.00000000000E+00  0.00000000000E+00  0.18926810510E+03  0.18926810510E+03  0.00000000000E+00 0. -1.
          2   -1    0    0  501    0  0.00000000000E+00 -0.00000000000E+00 -0.15635268293E+04  0.15635268293E+04  0.00000000000E+00 0.  1.
         23    2    1    2    0    0 -0.35831273529E+03 -0.20764752806E+03 -0.12500440715E+04  0.13204353709E+04  0.97128141217E+02 0.  0.
         13    1    3    3    0    0 -0.71304434530E+02 -0.18765101198E+02 -0.33485364853E+03  0.34287522124E+03  0.00000000000E+00 0. -1.
        -13    1    3    3    0    0 -0.28700830076E+03 -0.18888242686E+03 -0.91519042301E+03  0.97756014968E+03  0.00000000000E+00 0.  1.
         22    1    1    2    0    0  0.35831273529E+03  0.20764752806E+03 -0.12421465263E+03  0.43235956345E+03  0.00000000000E+00 0. -1.
<mgrwt>
<rscale>  0 0.10879812E+04</rscale>
<asrwt>0</asrwt>
<pdfrwt beam="1">  1        2 0.24054259E+00 0.10879812E+04</pdfrwt>
<pdfrwt beam="2">  1       -2 0.29118169E-01 0.10879812E+04</pdfrwt>
<totfact> 0.12583466E+02</totfact>
</mgrwt>
</event>
<event>
 6    1  0.4630212E-004  0.4922221E+04  0.7818608E-02  0.7840619E-01
          2   -1    0    0  501    0  0.00000000000E+00  0.00000000000E+00  0.41609511002E+04  0.41609511002E+04  0.00000000000E+00 0.  1.
         -2   -1    0    0    0  501 -0.00000000000E+00 -0.00000000000E+00 -0.14556924107E+04  0.14556924107E+04  0.00000000000E+00 0. -1.
         23    2    1    2    0    0  0.12088706414E+04 -0.15843343752E+04  0.29992675842E+04  0.36022143435E+04  0.94119575081E+02 0.  0.
         13    1    3    3    0    0  0.91601914119E+03 -0.12630667745E+04  0.23606298976E+04  0.28296646899E+04  0.00000000000E+00 0. -1.
        -13    1    3    3    0    0  0.29285150023E+03 -0.32126760075E+03  0.63863768659E+03  0.77254965356E+03  0.00000000000E+00 0.  1.
         22    1    1    2    0    0 -0.12088706414E+04  0.15843343752E+04 -0.29400889468E+03  0.20144291674E+04  0.00000000000E+00 0. -1.
<mgrwt>
<rscale>  0 0.49222210E+04</rscale>
<asrwt>0</asrwt>
<pdfrwt beam="1">  1        2 0.64014632E+00 0.49222210E+04</pdfrwt>
<pdfrwt beam="2">  1       -2 0.22395268E+00 0.49222210E+04</pdfrwt>
<totfact> 0.17074552E-02</totfact>
</mgrwt>
</event>
<event>
 6    1  0.4630212E-004  0.3411149E+04  0.7818608E-02  0.8135175E-01
         -2   -1    0    0    0  501 -0.00000000000E+00  0.00000000000E+00  0.78745456409E+03  0.78745456409E+03  0.00000000000E+00 0. -1.
          2   -1    0    0  501    0  0.00000000000E+00 -0.00000000000E+00 -0.36941612123E+04  0.36941612123E+04  0.00000000000E+00 0.  1.
         23    2    1    2    0    0 -0.13943969832E+04  0.76051471075E+03 -0.22666327665E+04  0.27691847132E+04  0.89634289536E+02 0.  0.
         11    1    3    3    0    0 -0.12306801075E+04  0.69148427347E+03 -0.19733326494E+04  0.24262658083E+04  0.00000000000E+00 0.  1.
        -11    1    3    3    0    0 -0.16371687567E+03  0.69030437275E+02 -0.29330011706E+03  0.34291890487E+03  0.00000000000E+00 0. -1.
         22    1    1    2    0    0  0.13943969832E+04 -0.76051471075E+03 -0.64007388177E+03  0.17124310632E+04  0.00000000000E+00 0. -1.
<mgrwt>
<rscale>  0 0.34111488E+04</rscale>
<asrwt>0</asrwt>
<pdfrwt beam="1">  1        2 0.56833249E+00 0.34111488E+04</pdfrwt>
<pdfrwt beam="2">  1       -2 0.12114686E+00 0.34111488E+04</pdfrwt>
<totfact> 0.25255939E-01</totfact>
</mgrwt>
</event>
<event>
 6    1  0.4630212E-004  0.2264979E+04  0.7818608E-02  0.8491859E-01
         -2   -1    0    0    0  501 -0.00000000000E+00  0.00000000000E+00  0.52936070167E+03  0.52936070167E+03  0.00000000000E+00 0. -1.
          2   -1    0    0  501    0  0.00000000000E+00 -0.00000000000E+00 -0.24227941490E+04  0.24227941490E+04  0.00000000000E+00 0.  1.
         23    2    1    2    0    0 -0.57969601465E+03  0.48232905116E+03  0.14950610235E+03  0.77447471193E+03  0.93649462296E+02 0.  0.
         13    1    3    3    0    0 -0.41587410907E+03  0.29141105065E+03  0.11351570202E+03  0.52034362650E+03  0.00000000000E+00 0.  1.
        -13    1    3    3    0    0 -0.16382190559E+03  0.19091800051E+03  0.35990400330E+02  0.25413108543E+03  0.00000000000E+00 0. -1.
         22    1    1    2    0    0  0.57969601465E+03 -0.48232905116E+03 -0.20429395497E+04  0.21776801388E+04  0.00000000000E+00 0.  1.
<mgrwt>
<rscale>  0 0.22649786E+04</rscale>
<asrwt>0</asrwt>
<pdfrwt beam="1">  1        2 0.37273757E+00 0.22649786E+04</pdfrwt>
<pdfrwt beam="2">  1       -2 0.81440107E-01 0.22649786E+04</pdfrwt>
<totfact> 0.46565714E+00</totfact>
</mgrwt>
</event>
<event>
 6    1  0.4630212E-004  0.3040809E+04  0.7818608E-02  0.8232173E-01
         -2   -1    0    0    0  501 -0.00000000000E+00  0.00000000000E+00  0.16110637903E+04  0.16110637903E+04  0.00000000000E+00 0. -1.
          2   -1    0    0  501    0  0.00000000000E+00 -0.00000000000E+00 -0.14348469691E+04  0.14348469691E+04  0.00000000000E+00 0.  1.
         23    2    1    2    0    0  0.64488611015E+03  0.39112710646E+03  0.14090291370E+04  0.16006825026E+04  0.89234840391E+02 0.  0.
         11    1    3    3    0    0  0.56382683072E+03  0.30582691259E+03  0.11716199313E+04  0.13357110687E+04  0.00000000000E+00 0.  1.
        -11    1    3    3    0    0  0.81059279423E+02  0.85300193871E+02  0.23740920565E+03  0.26497143390E+03  0.00000000000E+00 0. -1.
         22    1    1    2    0    0 -0.64488611015E+03 -0.39112710646E+03 -0.12328123158E+04  0.14452282569E+04  0.00000000000E+00 0.  1.
<mgrwt>
<rscale>  0 0.30408091E+04</rscale>
<asrwt>0</asrwt>
<pdfrwt beam="1">  1        2 0.22074569E+00 0.30408091E+04</pdfrwt>
<pdfrwt beam="2">  1       -2 0.24785597E+00 0.30408091E+04</pdfrwt>
<totfact> 0.78121266E-01</totfact>
</mgrwt>
</event>
<event>
 6    1  0.4630212E-004  0.6812206E+03  0.7818608E-02  0.9749898E-01
          2   -1    0    0  501    0  0.00000000000E+00  0.00000000000E+00  0.60261474668E+03  0.60261474668E+03  0.00000000000E+00 0.  1.
         -2   -1    0    0    0  501 -0.00000000000E+00 -0.00000000000E+00 -0.19251997460E+03  0.19251997460E+03  0.00000000000E+00 0. -1.
         23    2    1    2    0    0  0.23138554676E+03 -0.24460082859E+02 -0.71892415639E+02  0.25992521461E+03  0.90857200362E+02 0.  0.
         13    1    3    3    0    0  0.89006249480E+02  0.31569191097E+02 -0.10347244178E+02  0.95004166935E+02  0.00000000000E+00 0.  1.
        -13    1    3    3    0    0  0.14237929729E+03 -0.56029273956E+02 -0.61545171461E+02  0.16492104767E+03  0.00000000000E+00 0. -1.
         22    1    1    2    0    0 -0.23138554676E+03  0.24460082859E+02  0.48198718772E+03  0.53520950667E+03  0.00000000000E+00 0.  1.
<mgrwt>
<rscale>  0 0.68122060E+03</rscale>
<asrwt>0</asrwt>
<pdfrwt beam="1">  1        2 0.92709960E-01 0.68122060E+03</pdfrwt>
<pdfrwt beam="2">  1       -2 0.29618458E-01 0.68122060E+03</pdfrwt>
<totfact> 0.52123553E+02</totfact>
</mgrwt>
</event>
<event>
 6    1  0.4630212E-004  0.2329848E+04  0.7818608E-02  0.8466245E-01
          2   -1    0    0  501    0  0.00000000000E+00  0.00000000000E+00  0.15445081776E+04  0.15445081776E+04  0.00000000000E+00 0.  1.
         -2   -1    0    0    0  501 -0.00000000000E+00 -0.00000000000E+00 -0.87862787565E+03  0.87862787565E+03  0.00000000000E+00 0. -1.
         23    2    1    2    0    0 -0.23207058936E+01  0.11631053066E+04  0.32768085930E+03  0.12118564807E+04  0.91662665678E+02 0.  0.
         11    1    3    3    0    0 -0.27154323981E+02  0.62169048497E+03  0.21422044412E+03  0.65812370804E+03  0.00000000000E+00 0.  1.
        -11    1    3    3    0    0  0.24833618087E+02  0.54141482162E+03  0.11346041518E+03  0.55373277261E+03  0.00000000000E+00 0. -1.
         22    1    1    2    0    0  0.23207058936E+01 -0.11631053066E+04  0.33819944260E+03  0.12112795725E+04  0.00000000000E+00 0.  1.
<mgrwt>
<rscale>  0 0.23298480E+04</rscale>
<asrwt>0</asrwt>
<pdfrwt beam="1">  1        2 0.23761664E+00 0.23298480E+04</pdfrwt>
<pdfrwt beam="2">  1       -2 0.13517352E+00 0.23298480E+04</pdfrwt>
<totfact> 0.42615566E+00</totfact>
</mgrwt>
</event>
<event>
 6    1  0.4630212E-004  0.1714814E+04  0.7818608E-02  0.8752960E-01
         -3   -1    0    0    0  501 -0.00000000000E+00  0.00000000000E+00  0.40914017188E+04  0.40914017188E+04  0.00000000000E+00 0. -1.
          3   -1    0    0  501    0  0.00000000000E+00 -0.00000000000E+00 -0.17968098949E+03  0.17968098949E+03  0.00000000000E+00 0.  1.
         23    2    1    2    0    0 -0.18301776448E+03 -0.13255854259E+03  0.40151358261E+04  0.40225631888E+04  0.92906600054E+02 0.  0.
         13    1    3    3    0    0 -0.96599202544E+02 -0.17065255005E+02  0.13797258931E+04  0.13832086499E+04  0.00000000000E+00 0. -1.
        -13    1    3    3    0    0 -0.86418561937E+02 -0.11549328759E+03  0.26354099330E+04  0.26393545389E+04  0.00000000000E+00 0.  1.
         22    1    1    2    0    0  0.18301776448E+03  0.13255854259E+03 -0.10341509680E+03  0.24851951951E+03  0.00000000000E+00 0.  1.
<mgrwt>
<rscale>  0 0.17148144E+04</rscale>
<asrwt>0</asrwt>
<pdfrwt beam="1">  1        3 0.27643232E-01 0.17148144E+04</pdfrwt>
<pdfrwt beam="2">  1       -3 0.62944635E+00 0.17148144E+04</pdfrwt>
<totfact> 0.20087493E-02</totfact>
</mgrwt>
</event>
<event>
 6    1  0.4630212E-004  0.4190378E+03  0.7818608E-02  0.1037380E+00
          2   -1    0    0  501    0  0.00000000000E+00  0.00000000000E+00  0.19606383985E+04  0.19606383985E+04  0.00000000000E+00 0.  1.
         -2   -1    0    0    0  501 -0.00000000000E+00 -0.00000000000E+00 -0.22389737427E+02  0.22389737427E+02  0.00000000000E+00 0. -1.
         23    2    1    2    0    0  0.57043927831E+02  0.17632750415E+03  0.13600522629E+04  0.13758572594E+04  0.94316711428E+02 0.  0.
         11    1    3    3    0    0 -0.99076201569E+01  0.30076855192E+02  0.49271758001E+03  0.49373413069E+03  0.00000000000E+00 0.  1.
        -11    1    3    3    0    0  0.66951547988E+02  0.14625064895E+03  0.86733468291E+03  0.88212312875E+03  0.00000000000E+00 0. -1.
         22    1    1    2    0    0 -0.57043927831E+02 -0.17632750415E+03  0.57819639817E+03  0.60717087650E+03  0.00000000000E+00 0. -1.
<mgrwt>
<rscale>  0 0.41903785E+03</rscale>
<asrwt>0</asrwt>
<pdfrwt beam="1">  1        2 0.30163654E+00 0.41903785E+03</pdfrwt>
<pdfrwt beam="2">  1       -2 0.34445765E-02 0.41903785E+03</pdfrwt>
<totfact> 0.26666568E+03</totfact>
</mgrwt>
</event>
<event>
 6    1  0.4630212E-004  0.8358338E+03  0.7818608E-02  0.9509550E-01
          2   -1    0    0  501    0  0.00000000000E+00  0.00000000000E+00  0.26180683845E+03  0.26180683845E+03  0.00000000000E+00 0.  1.
         -2   -1    0    0    0  501 -0.00000000000E+00 -0.00000000000E+00 -0.66711225016E+03  0.66711225016E+03  0.00000000000E+00 0. -1.
         23    2    1    2    0    0 -0.20619573456E+03  0.34458808294E+03 -0.31198160000E+03  0.51664859284E+03  0.91299626996E+02 0.  0.
         13    1    3    3    0    0 -0.63176287999E+02  0.19120698914E+03 -0.13748166795E+03  0.24382896687E+03  0.00000000000E+00 0. -1.
        -13    1    3    3    0    0 -0.14301944656E+03  0.15338109379E+03 -0.17449993204E+03  0.27281962596E+03  0.00000000000E+00 0.  1.
         22    1    1    2    0    0  0.20619573456E+03 -0.34458808294E+03 -0.93323811708E+02  0.41227049577E+03  0.00000000000E+00 0. -1.
<mgrwt>
<rscale>  0 0.83583383E+03</rscale>
<asrwt>0</asrwt>
<pdfrwt beam="1">  1        2 0.40277976E-01 0.83583383E+03</pdfrwt>
<pdfrwt beam="2">  1       -2 0.10263265E+00 0.83583383E+03</pdfrwt>
<totfact> 0.99813334E+01</totfact>
</mgrwt>
</event>
<event>
 6    1  0.4630212E-004  0.1333264E+04  0.7818608E-02  0.9003595E-01
          2   -1    0    0  501    0  0.00000000000E+00  0.00000000000E+00  0.91061954370E+03  0.91061954370E+03  0.00000000000E+00 0.  1.
         -2   -1    0    0    0  501 -0.00000000000E+00 -0.00000000000E+00 -0.48801727556E+03  0.48801727556E+03  0.00000000000E+00 0. -1.
         23    2    1    2    0    0 -0.23881130100E+03  0.61501795593E+03  0.28932646546E+03  0.72555408795E+03  0.86261273646E+02 0.  0.
         13    1    3    3    0    0 -0.95223091501E+02  0.14574686414E+03  0.63170471790E+02  0.18520284573E+03  0.00000000000E+00 0. -1.
        -13    1    3    3    0    0 -0.14358820950E+03  0.46927109179E+03  0.22615599367E+03  0.54035124222E+03  0.00000000000E+00 0.  1.
         22    1    1    2    0    0  0.23881130100E+03 -0.61501795593E+03  0.13327580269E+03  0.67308273131E+03  0.00000000000E+00 0. -1.
<mgrwt>
<rscale>  0 0.13332638E+04</rscale>
<asrwt>0</asrwt>
<pdfrwt beam="1">  1        2 0.14009531E+00 0.13332638E+04</pdfrwt>
<pdfrwt beam="2">  1       -2 0.75079581E-01 0.13332638E+04</pdfrwt>
<totfact> 0.44945996E+01</totfact>
</mgrwt>
</event>
<event>
 6    1  0.4630212E-004  0.5227255E+03  0.7818608E-02  0.1008012E+00
          2   -1    0    0  501    0  0.00000000000E+00  0.00000000000E+00  0.66536977319E+03  0.66536977319E+03  0.00000000000E+00 0.  1.
         -2   -1    0    0    0  501 -0.00000000000E+00 -0.00000000000E+00 -0.10266543959E+03  0.10266543959E+03  0.00000000000E+00 0. -1.
         23    2    1    2    0    0  0.19086572367E+03 -0.87982295853E+01  0.44401175785E+02  0.21563563211E+03  0.89555167959E+02 0.  0.
         13    1    3    3    0    0  0.64484644177E+02 -0.45883931391E+02  0.20763765442E+02  0.81821381374E+02  0.00000000000E+00 0.  1.
        -13    1    3    3    0    0  0.12638107950E+03  0.37085701806E+02  0.23637410343E+02  0.13381425074E+03  0.00000000000E+00 0. -1.
         22    1    1    2    0    0 -0.19086572367E+03  0.87982295853E+01  0.51830315782E+03  0.55239958067E+03  0.00000000000E+00 0.  1.
<mgrwt>
<rscale>  0 0.52272547E+03</rscale>
<asrwt>0</asrwt>
<pdfrwt beam="1">  1        2 0.10236458E+00 0.52272547E+03</pdfrwt>
<pdfrwt beam="2">  1       -2 0.15794683E-01 0.52272547E+03</pdfrwt>
<totfact> 0.14041000E+03</totfact>
</mgrwt>
</event>
<event>
 6    1  0.4630212E-004  0.1676373E+04  0.7818608E-02  0.8774956E-01
         -2   -1    0    0    0  501 -0.00000000000E+00  0.00000000000E+00  0.48327397686E+03  0.48327397686E+03  0.00000000000E+00 0. -1.
          2   -1    0    0  501    0  0.00000000000E+00 -0.00000000000E+00 -0.14537440452E+04  0.14537440452E+04  0.00000000000E+00 0.  1.
         23    2    1    2    0    0  0.75221841313E+03 -0.42226155907E+02 -0.90457980919E+03  0.11807395577E+04  0.90915799997E+02 0.  0.
         11    1    3    3    0    0  0.32511447181E+03 -0.43376138195E+02 -0.45176547395E+03  0.55827677060E+03  0.00000000000E+00 0.  1.
        -11    1    3    3    0    0  0.42710394132E+03  0.11499822876E+01 -0.45281433525E+03  0.62246278713E+03  0.00000000000E+00 0. -1.
         22    1    1    2    0    0 -0.75221841313E+03  0.42226155907E+02 -0.65890259110E+02  0.75627846429E+03  0.00000000000E+00 0.  1.
<mgrwt>
<rscale>  0 0.16763731E+04</rscale>
<asrwt>0</asrwt>
<pdfrwt beam="1">  1        2 0.22365293E+00 0.16763731E+04</pdfrwt>
<pdfrwt beam="2">  1       -2 0.74349843E-01 0.16763731E+04</pdfrwt>
<totfact> 0.20925294E+01</totfact>
</mgrwt>
</event>
<event>
 6    1  0.4630212E-004  0.7570901E+03  0.7818608E-02  0.9624292E-01
          2   -1    0    0  501    0  0.00000000000E+00  0.00000000000E+00  0.64753704834E+03  0.64753704834E+03  0.00000000000E+00 0.  1.
         -2   -1    0    0    0  501 -0.00000000000E+00 -0.00000000000E+00 -0.22129444952E+03  0.22129444952E+03  0.00000000000E+00 0. -1.
         23    2    1    2    0    0 -0.18595286680E+03 -0.21825416566E+03  0.48960794876E+03  0.57518457199E+03  0.94382195723E+02 0.  0.
         11    1    3    3    0    0 -0.38353380715E+02 -0.14391993625E+02  0.12961841687E+03  0.13593765220E+03  0.00000000000E+00 0. -1.
        -11    1    3    3    0    0 -0.14759948608E+03 -0.20386217204E+03  0.35998953189E+03  0.43924691979E+03  0.00000000000E+00 0.  1.
         22    1    1    2    0    0  0.18595286680E+03  0.21825416566E+03 -0.63365349944E+02  0.29364692587E+03  0.00000000000E+00 0. -1.
<mgrwt>
<rscale>  0 0.75709010E+03</rscale>
<asrwt>0</asrwt>
<pdfrwt beam="1">  1        2 0.99621083E-01 0.75709010E+03</pdfrwt>
<pdfrwt beam="2">  1       -2 0.34045300E-01 0.75709010E+03</pdfrwt>
<totfact> 0.36705070E+02</totfact>
</mgrwt>
</event>
<event>
 6    1  0.4630212E-004  0.1652845E+04  0.7818608E-02  0.8788725E-01
         -2   -1    0    0    0  501 -0.00000000000E+00  0.00000000000E+00  0.54954265597E+03  0.54954265597E+03  0.00000000000E+00 0. -1.
          2   -1    0    0  501    0  0.00000000000E+00 -0.00000000000E+00 -0.12428044215E+04  0.12428044215E+04  0.00000000000E+00 0.  1.
         23    2    1    2    0    0 -0.80463110686E+03 -0.17325652086E+03 -0.32005489590E+03  0.88861459066E+03  0.98750768059E+02 0.  0.
         11    1    3    3    0    0 -0.65562403368E+03 -0.12057458274E+03 -0.22195783945E+03  0.70259973387E+03  0.00000000000E+00 0. -1.
        -11    1    3    3    0    0 -0.14900707319E+03 -0.52681938114E+02 -0.98097056450E+02  0.18601485679E+03  0.00000000000E+00 0.  1.
         22    1    1    2    0    0  0.80463110686E+03  0.17325652086E+03 -0.37320686963E+03  0.90373248680E+03  0.00000000000E+00 0. -1.
<mgrwt>
<rscale>  0 0.16528449E+04</rscale>
<asrwt>0</asrwt>
<pdfrwt beam="1">  1        2 0.19120068E+00 0.16528449E+04</pdfrwt>
<pdfrwt beam="2">  1       -2 0.84545026E-01 0.16528449E+04</pdfrwt>
<totfact> 0.20809830E+01</totfact>
</mgrwt>
</event>
<event>
 6    1  0.4630212E-004  0.1190543E+04  0.7818608E-02  0.9121175E-01
         -2   -1    0    0    0  501 -0.00000000000E+00  0.00000000000E+00  0.25159234707E+04  0.25159234707E+04  0.00000000000E+00 0. -1.
          2   -1    0    0  501    0  0.00000000000E+00 -0.00000000000E+00 -0.14084216920E+03  0.14084216920E+03  0.00000000000E+00 0.  1.
         23    2    1    2    0    0 -0.49908636506E+03 -0.23366173237E+03  0.71183030350E+03  0.90459872795E+03  0.88946459493E+02 0.  0.
         11    1    3    3    0    0 -0.18618744250E+03 -0.62508792333E+02  0.31344709571E+03  0.36989484273E+03  0.00000000000E+00 0.  1.
        -11    1    3    3    0    0 -0.31289892256E+03 -0.17115294004E+03  0.39838320779E+03  0.53470388522E+03  0.00000000000E+00 0. -1.
         22    1    1    2    0    0  0.49908636506E+03  0.23366173237E+03  0.16632509980E+04  0.17521669119E+04  0.00000000000E+00 0. -1.
<mgrwt>
<rscale>  0 0.11905429E+04</rscale>
<asrwt>0</asrwt>
<pdfrwt beam="1">  1        2 0.21668028E-01 0.11905429E+04</pdfrwt>
<pdfrwt beam="2">  1       -2 0.38706511E+00 0.11905429E+04</pdfrwt>
<totfact> 0.23480238E+00</totfact>
</mgrwt>
</event>
<event>
 6    1  0.4630212E-004  0.2025235E+04  0.7818608E-02  0.8594912E-01
         -2   -1    0    0    0  501 -0.00000000000E+00  0.00000000000E+00  0.44873069116E+03  0.44873069116E+03  0.00000000000E+00 0. -1.
          2   -1    0    0  501    0  0.00000000000E+00 -0.00000000000E+00 -0.22851003548E+04  0.22851003548E+04  0.00000000000E+00 0.  1.
         23    2    1    2    0    0 -0.38195558273E+03 -0.23318025769E+03 -0.21431237565E+04  0.21912804279E+04  0.92018357807E+02 0.  0.
         11    1    3    3    0    0 -0.34589865855E+03 -0.18219551181E+03 -0.17424479330E+04  0.17857675901E+04  0.00000000000E+00 0. -1.
        -11    1    3    3    0    0 -0.36056924173E+02 -0.50984745874E+02 -0.40067582350E+03  0.40551283781E+03  0.00000000000E+00 0.  1.
         22    1    1    2    0    0  0.38195558273E+03  0.23318025769E+03  0.30675409283E+03  0.54255061812E+03  0.00000000000E+00 0. -1.
<mgrwt>
<rscale>  0 0.20252355E+04</rscale>
<asrwt>0</asrwt>
<pdfrwt beam="1">  1        2 0.35155390E+00 0.20252355E+04</pdfrwt>
<pdfrwt beam="2">  1       -2 0.69035490E-01 0.20252355E+04</pdfrwt>
<totfact> 0.82132181E+00</totfact>
</mgrwt>
</event>
<event>
 6    1  0.4630212E-004  0.1764853E+04  0.7818608E-02  0.8725217E-01
         -2   -1    0    0    0  501 -0.00000000000E+00  0.00000000000E+00  0.72507616933E+03  0.72507616933E+03  0.00000000000E+00 0. -1.
          2   -1    0    0  501    0  0.00000000000E+00 -0.00000000000E+00 -0.10739237442E+04  0.10739237442E+04  0.00000000000E+00 0.  1.
         23    2    1    2    0    0 -0.36309489416E+03  0.70296279747E+03  0.21804576731E+03  0.82567434715E+03  0.90551499768E+02 0.  0.
         13    1    3    3    0    0 -0.25252314675E+03  0.39329204013E+03  0.11980968875E+03  0.48249448701E+03  0.00000000000E+00 0.  1.
        -13    1    3    3    0    0 -0.11057174740E+03  0.30967075734E+03  0.98236078563E+02  0.34317986014E+03  0.00000000000E+00 0. -1.
         22    1    1    2    0    0  0.36309489416E+03 -0.70296279747E+03 -0.56689334221E+03  0.97332556641E+03  0.00000000000E+00 0.  1.
<mgrwt>
<rscale>  0 0.17648530E+04</rscale>
<asrwt>0</asrwt>
<pdfrwt beam="1">  1        2 0.16521904E+00 0.17648530E+04</pdfrwt>
<pdfrwt beam="2">  1       -2 0.11155018E+00 0.17648530E+04</pdfrwt>
<totfact> 0.13598153E+01</totfact>
</mgrwt>
</event>
<event>
 6    1  0.4630212E-004  0.1439558E+04  0.7818608E-02  0.8925672E-01
         -2   -1    0    0    0  501 -0.00000000000E+00  0.00000000000E+00  0.46942039360E+03  0.46942039360E+03  0.00000000000E+00 0. -1.
          2   -1    0    0  501    0  0.00000000000E+00 -0.00000000000E+00 -0.11036635059E+04  0.11036635059E+04  0.00000000000E+00 0.  1.
         23    2    1    2    0    0 -0.10122851569E+02 -0.60529329556E+03  0.10117611869E+03  0.62054839302E+03  0.91439899995E+02 0.  0.
         11    1    3    3    0    0  0.36022128011E+02 -0.16792720866E+03  0.15093423243E+02  0.17240925886E+03  0.00000000000E+00 0.  1.
        -11    1    3    3    0    0 -0.46144979580E+02 -0.43736608690E+03  0.86082695451E+02  0.44813913417E+03  0.00000000000E+00 0. -1.
         22    1    1    2    0    0  0.10122851569E+02  0.60529329556E+03 -0.73541923101E+03  0.95253550649E+03  0.00000000000E+00 0.  1.
<mgrwt>
<rscale>  0 0.14395585E+04</rscale>
<asrwt>0</asrwt>
<pdfrwt beam="1">  1        2 0.16979439E+00 0.14395585E+04</pdfrwt>
<pdfrwt beam="2">  1       -2 0.72218522E-01 0.14395585E+04</pdfrwt>
<totfact> 0.36519598E+01</totfact>
</mgrwt>
</event>
<event>
 6    1  0.4630212E-004  0.2971208E+04  0.7818608E-02  0.8252001E-01
          2   -1    0    0  501    0  0.00000000000E+00  0.00000000000E+00  0.61959922613E+03  0.61959922613E+03  0.00000000000E+00 0.  1.
         -2   -1    0    0    0  501 -0.00000000000E+00 -0.00000000000E+00 -0.35620100994E+04  0.35620100994E+04  0.00000000000E+00 0. -1.
         23    2    1    2    0    0  0.81478300929E+03  0.11413634468E+04 -0.78803676872E+03  0.16110238568E+04  0.88397106061E+02 0.  0.
         11    1    3    3    0    0  0.70034427092E+03  0.93339514623E+03 -0.63371257383E+03  0.13278931520E+04  0.00000000000E+00 0.  1.
        -11    1    3    3    0    0  0.11443873837E+03  0.20796830055E+03 -0.15432419489E+03  0.28313070480E+03  0.00000000000E+00 0. -1.
         22    1    1    2    0    0 -0.81478300929E+03 -0.11413634468E+04 -0.21543741045E+04  0.25705854687E+04  0.00000000000E+00 0. -1.
<mgrwt>
<rscale>  0 0.29712076E+04</rscale>
<asrwt>0</asrwt>
<pdfrwt beam="1">  1        2 0.95322956E-01 0.29712076E+04</pdfrwt>
<pdfrwt beam="2">  1       -2 0.54800156E+00 0.29712076E+04</pdfrwt>
<totfact> 0.35502200E-02</totfact>
</mgrwt>
</event>
<event>
 6    1  0.4630212E-004  0.2266267E+04  0.7818608E-02  0.8491342E-01
         -2   -1    0    0    0  501 -0.00000000000E+00  0.00000000000E+00  0.12778799047E+04  0.12778799047E+04  0.00000000000E+00 0. -1.
          2   -1    0    0  501    0  0.00000000000E+00 -0.00000000000E+00 -0.10047823985E+04  0.10047823985E+04  0.00000000000E+00 0.  1.
         23    2    1    2    0    0  0.87725692637E+03 -0.46449897099E+03  0.68355229158E+03  0.12085058249E+04  0.88902106926E+02 0.  0.
         11    1    3    3    0    0  0.49775335527E+03 -0.26877580532E+03  0.33606465927E+03  0.65798046431E+03  0.00000000000E+00 0.  1.
        -11    1    3    3    0    0  0.37950357110E+03 -0.19572316567E+03  0.34748763231E+03  0.55052536060E+03  0.00000000000E+00 0. -1.
         22    1    1    2    0    0 -0.87725692637E+03  0.46449897099E+03 -0.41045478548E+03  0.10741564783E+04  0.00000000000E+00 0.  1.
<mgrwt>
<rscale>  0 0.22662667E+04</rscale>
<asrwt>0</asrwt>
<pdfrwt beam="1">  1        2 0.15458191E+00 0.22662667E+04</pdfrwt>
<pdfrwt beam="2">  1       -2 0.19659691E+00 0.22662667E+04</pdfrwt>
<totfact> 0.31838583E+00</totfact>
</mgrwt>
</event>
<event>
 6    1  0.4630212E-004  0.2465917E+04  0.7818608E-02  0.8415229E-01
         -2   -1    0    0    0  501 -0.00000000000E+00  0.00000000000E+00  0.48433162065E+03  0.48433162065E+03  0.00000000000E+00 0. -1.
          2   -1    0    0  501    0  0.00000000000E+00 -0.00000000000E+00 -0.31387301434E+04  0.31387301434E+04  0.00000000000E+00 0.  1.
         23    2    1    2    0    0 -0.46327463019E+03 -0.43135282346E+03  0.22251184638E+03  0.67733572226E+03  0.92647275064E+02 0.  0.
         11    1    3    3    0    0 -0.39767686401E+03 -0.40057286670E+03  0.17609100742E+03  0.59128128044E+03  0.00000000000E+00 0. -1.
        -11    1    3    3    0    0 -0.65597766185E+02 -0.30779956759E+02  0.46420838959E+02  0.86054441816E+02  0.00000000000E+00 0.  1.
         22    1    1    2    0    0  0.46327463019E+03  0.43135282346E+03 -0.28769103692E+04  0.29457260418E+04  0.00000000000E+00 0.  1.
<mgrwt>
<rscale>  0 0.24659167E+04</rscale>
<asrwt>0</asrwt>
<pdfrwt beam="1">  1        2 0.48288157E+00 0.24659167E+04</pdfrwt>
<pdfrwt beam="2">  1       -2 0.74512556E-01 0.24659167E+04</pdfrwt>
<totfact> 0.20601603E+00</totfact>
</mgrwt>
</event>
<event>
 6    1  0.4630212E-004  0.1195316E+04  0.7818608E-02  0.9116967E-01
          2   -1    0    0  501    0  0.00000000000E+00  0.00000000000E+00  0.13494301545E+04  0.13494301545E+04  0.00000000000E+00 0.  1.
         -2   -1    0    0    0  501 -0.00000000000E+00 -0.00000000000E+00 -0.26470058503E+03  0.26470058503E+03  0.00000000000E+00 0. -1.
         23    2    1    2    0    0 -0.42472693332E+02  0.36740373737E+03  0.11734604442E+04  0.12337853648E+04  0.91801287241E+02 0.  0.
         11    1    3    3    0    0 -0.13490663734E+02  0.31921267907E+03  0.91197636488E+03  0.96632273211E+03  0.00000000000E+00 0. -1.
        -11    1    3    3    0    0 -0.28982029598E+02  0.48191058300E+02  0.26148407936E+03  0.26746263272E+03  0.00000000000E+00 0.  1.
         22    1    1    2    0    0  0.42472693332E+02 -0.36740373737E+03 -0.88730874774E+02  0.38034537469E+03  0.00000000000E+00 0. -1.
<mgrwt>
<rscale>  0 0.11953158E+04</rscale>
<asrwt>0</asrwt>
<pdfrwt beam="1">  1        2 0.20760464E+00 0.11953158E+04</pdfrwt>
<pdfrwt beam="2">  1       -2 0.40723168E-01 0.11953158E+04</pdfrwt>
<totfact> 0.87153155E+01</totfact>
</mgrwt>
</event>
<event>
 6    1  0.4630212E-004  0.1398995E+04  0.7818608E-02  0.8954546E-01
         -2   -1    0    0    0  501 -0.00000000000E+00  0.00000000000E+00  0.24530186079E+04  0.24530186079E+04  0.00000000000E+00 0. -1.
          2   -1    0    0  501    0  0.00000000000E+00 -0.00000000000E+00 -0.19946715595E+03  0.19946715595E+03  0.00000000000E+00 0.  1.
         23    2    1    2    0    0  0.20024251244E+03 -0.35005830761E+03  0.22083809255E+04  0.22466800727E+04  0.89370882545E+02 0.  0.
         11    1    3    3    0    0  0.17827250986E+03 -0.24989116518E+03  0.15181098590E+04  0.15488331822E+04  0.00000000000E+00 0. -1.
        -11    1    3    3    0    0  0.21970002582E+02 -0.10016714243E+03  0.69027106646E+03  0.69784689054E+03  0.00000000000E+00 0.  1.
         22    1    1    2    0    0 -0.20024251244E+03  0.35005830761E+03  0.45170526513E+02  0.40580569117E+03  0.00000000000E+00 0.  1.
<mgrwt>
<rscale>  0 0.13989948E+04</rscale>
<asrwt>0</asrwt>
<pdfrwt beam="1">  1        2 0.30687257E-01 0.13989948E+04</pdfrwt>
<pdfrwt beam="2">  1       -2 0.37738746E+00 0.13989948E+04</pdfrwt>
<totfact> 0.17777816E+00</totfact>
</mgrwt>
</event>
<event>
 6    1  0.4630212E-004  0.3260172E+04  0.7818608E-02  0.8173104E-01
         -2   -1    0    0    0  501 -0.00000000000E+00  0.00000000000E+00  0.19210637623E+04  0.19210637623E+04  0.00000000000E+00 0. -1.
          2   -1    0    0  501    0  0.00000000000E+00 -0.00000000000E+00 -0.13831817963E+04  0.13831817963E+04  0.00000000000E+00 0.  1.
         23    2    1    2    0    0 -0.50402746330E+03  0.14096079519E+04 -0.38124672592E+03  0.15475908361E+04  0.93005742586E+02 0.  0.
         13    1    3    3    0    0 -0.35534642595E+03  0.92573508596E+03 -0.29097992557E+03  0.10334049782E+04  0.00000000000E+00 0. -1.
        -13    1    3    3    0    0 -0.14868103735E+03  0.48387286595E+03 -0.90266800356E+02  0.51418585795E+03  0.00000000000E+00 0.  1.
         22    1    1    2    0    0  0.50402746330E+03 -0.14096079519E+04  0.91912869188E+03  0.17566547225E+04  0.00000000000E+00 0. -1.
<mgrwt>
<rscale>  0 0.32601720E+04</rscale>
<asrwt>0</asrwt>
<pdfrwt beam="1">  1        2 0.21279720E+00 0.32601720E+04</pdfrwt>
<pdfrwt beam="2">  1       -2 0.29554827E+00 0.32601720E+04</pdfrwt>
<totfact> 0.41951035E-01</totfact>
</mgrwt>
</event>
<event>
 6    1  0.4630212E-004  0.2938805E+04  0.7818608E-02  0.8261424E-01
         -2   -1    0    0    0  501 -0.00000000000E+00  0.00000000000E+00  0.14059829634E+04  0.14059829634E+04  0.00000000000E+00 0. -1.
          2   -1    0    0  501    0  0.00000000000E+00 -0.00000000000E+00 -0.15356831484E+04  0.15356831484E+04  0.00000000000E+00 0.  1.
         23    2    1    2    0    0 -0.63943375548E+03  0.95917988165E+03 -0.97481038629E+03  0.15122911347E+04  0.88699570702E+02 0.  0.
         13    1    3    3    0    0 -0.20780294997E+03  0.31171449817E+03 -0.37215985612E+03  0.52806339856E+03  0.00000000000E+00 0. -1.
        -13    1    3    3    0    0 -0.43163080551E+03  0.64746538347E+03 -0.60265053017E+03  0.98422773614E+03  0.00000000000E+00 0.  1.
         22    1    1    2    0    0  0.63943375548E+03 -0.95917988165E+03  0.84511020129E+03  0.14293749772E+04  0.00000000000E+00 0. -1.
<mgrwt>
<rscale>  0 0.29388054E+04</rscale>
<asrwt>0</asrwt>
<pdfrwt beam="1">  1        2 0.23625895E+00 0.29388054E+04</pdfrwt>
<pdfrwt beam="2">  1       -2 0.21630507E+00 0.29388054E+04</pdfrwt>
<totfact> 0.10878418E+00</totfact>
</mgrwt>
</event>
<event>
 6    1  0.4630212E-004  0.2010688E+04  0.7818608E-02  0.8601640E-01
         -1   -1    0    0    0  501 -0.00000000000E+00  0.00000000000E+00  0.66592002557E+03  0.66592002557E+03  0.00000000000E+00 0.  1.
          1   -1    0    0  501    0  0.00000000000E+00 -0.00000000000E+00 -0.15177742586E+04  0.15177742586E+04  0.00000000000E+00 0. -1.
         23    2    1    2    0    0 -0.47299324583E+03 -0.41519285663E+03  0.42183461071E+03  0.76299340451E+03  0.90037646214E+02 0.  0.
         11    1    3    3    0    0 -0.62373331162E+02 -0.92066899904E+02  0.51508150421E+02  0.12255544075E+03  0.00000000000E+00 0.  1.
        -11    1    3    3    0    0 -0.41061991467E+03 -0.32312595672E+03  0.37032646029E+03  0.64043796376E+03  0.00000000000E+00 0. -1.
         22    1    1    2    0    0  0.47299324583E+03  0.41519285663E+03 -0.12736888437E+04  0.14207008796E+04  0.00000000000E+00 0. -1.
<mgrwt>
<rscale>  0 0.20106877E+04</rscale>
<asrwt>0</asrwt>
<pdfrwt beam="1">  1        1 0.23350373E+00 0.20106877E+04</pdfrwt>
<pdfrwt beam="2">  1       -1 0.10244924E+00 0.20106877E+04</pdfrwt>
<totfact> 0.53120674E+00</totfact>
</mgrwt>
</event>
<event>
 6    1  0.4630212E-004  0.1431143E+04  0.7818608E-02  0.8931579E-01
         -2   -1    0    0    0  501 -0.00000000000E+00  0.00000000000E+00  0.67894271839E+03  0.67894271839E+03  0.00000000000E+00 0. -1.
          2   -1    0    0  501    0  0.00000000000E+00 -0.00000000000E+00 -0.75417599357E+03  0.75417599357E+03  0.00000000000E+00 0.  1.
         23    2    1    2    0    0  0.18687359156E+03  0.56661100546E+03 -0.42839581112E+03  0.73979804480E+03  0.88365181891E+02 0.  0.
         13    1    3    3    0    0  0.12890642531E+03  0.32245401113E+03 -0.29472125583E+03  0.45547126629E+03  0.00000000000E+00 0.  1.
        -13    1    3    3    0    0  0.57967166254E+02  0.24415699433E+03 -0.13367455529E+03  0.28432677851E+03  0.00000000000E+00 0. -1.
         22    1    1    2    0    0 -0.18687359156E+03 -0.56661100546E+03  0.35316253594E+03  0.69332066716E+03  0.00000000000E+00 0. -1.
<mgrwt>
<rscale>  0 0.14311426E+04</rscale>
<asrwt>0</asrwt>
<pdfrwt beam="1">  1        2 0.11602708E+00 0.14311426E+04</pdfrwt>
<pdfrwt beam="2">  1       -2 0.10445273E+00 0.14311426E+04</pdfrwt>
<totfact> 0.26916759E+01</totfact>
</mgrwt>
</event>
<event>
 6    1  0.4630212E-004  0.2053898E+04  0.7818608E-02  0.8581828E-01
         -2   -1    0    0    0  501 -0.00000000000E+00  0.00000000000E+00  0.38865335387E+03  0.38865335387E+03  0.00000000000E+00 0. -1.
          2   -1    0    0  501    0  0.00000000000E+00 -0.00000000000E+00 -0.27135353017E+04  0.27135353017E+04  0.00000000000E+00 0.  1.
         23    2    1    2    0    0  0.99887334544E+03 -0.16417802762E+03 -0.14071568534E+04  0.17358352116E+04  0.91274786617E+02 0.  0.
         11    1    3    3    0    0  0.14272472046E+03 -0.17569755294E+02 -0.25752186738E+03  0.29495178303E+03  0.00000000000E+00 0.  1.
        -11    1    3    3    0    0  0.85614862499E+03 -0.14660827233E+03 -0.11496349860E+04  0.14408834286E+04  0.00000000000E+00 0. -1.
         22    1    1    2    0    0 -0.99887334544E+03  0.16417802762E+03 -0.91772509447E+03  0.13663534440E+04  0.00000000000E+00 0. -1.
<mgrwt>
<rscale>  0 0.20538983E+04</rscale>
<asrwt>0</asrwt>
<pdfrwt beam="1">  1        2 0.41746698E+00 0.20538983E+04</pdfrwt>
<pdfrwt beam="2">  1       -2 0.59792822E-01 0.20538983E+04</pdfrwt>
<totfact> 0.62966399E+00</totfact>
</mgrwt>
</event>
<event>
 6    1  0.4630212E-004  0.3111943E+04  0.7818608E-02  0.8212468E-01
         -2   -1    0    0    0  501 -0.00000000000E+00  0.00000000000E+00  0.76877420468E+03  0.76877420468E+03  0.00000000000E+00 0. -1.
          2   -1    0    0  501    0  0.00000000000E+00 -0.00000000000E+00 -0.31492315965E+04  0.31492315965E+04  0.00000000000E+00 0.  1.
         23    2    1    2    0    0 -0.14771563918E+04  0.22729754816E+03 -0.65311010218E+03  0.16338464722E+04  0.96157724979E+02 0.  0.
         11    1    3    3    0    0 -0.64207940543E+03  0.88406691226E+02 -0.33414418726E+03  0.72920096257E+03  0.00000000000E+00 0. -1.
        -11    1    3    3    0    0 -0.83507698632E+03  0.13889085693E+03 -0.31896591492E+03  0.90464550964E+03  0.00000000000E+00 0.  1.
         22    1    1    2    0    0  0.14771563918E+04 -0.22729754816E+03 -0.17273472896E+04  0.22841593290E+04  0.00000000000E+00 0.  1.
<mgrwt>
<rscale>  0 0.31119435E+04</rscale>
<asrwt>0</asrwt>
<pdfrwt beam="1">  1        2 0.48449717E+00 0.31119435E+04</pdfrwt>
<pdfrwt beam="2">  1       -2 0.11827295E+00 0.31119435E+04</pdfrwt>
<totfact> 0.65269037E-01</totfact>
</mgrwt>
</event>
<event>
 6    1  0.4630212E-004  0.2759060E+04  0.7818608E-02  0.8316092E-01
          2   -1    0    0  501    0  0.00000000000E+00  0.00000000000E+00  0.52331082789E+04  0.52331082789E+04  0.00000000000E+00 0.  1.
         -2   -1    0    0    0  501 -0.00000000000E+00 -0.00000000000E+00 -0.36366595484E+03  0.36366595484E+03  0.00000000000E+00 0. -1.
         23    2    1    2    0    0  0.98136671539E+03 -0.18951754812E+03  0.51294613770E+03  0.11270923040E+04  0.90696143636E+02 0.  0.
         13    1    3    3    0    0  0.62640653260E+03 -0.10264834163E+03  0.28036153097E+03  0.69391960209E+03  0.00000000000E+00 0. -1.
        -13    1    3    3    0    0  0.35496018280E+03 -0.86869206487E+02  0.23258460673E+03  0.43317270193E+03  0.00000000000E+00 0.  1.
         22    1    1    2    0    0 -0.98136671539E+03  0.18951754812E+03  0.43564961864E+04  0.44696819298E+04  0.00000000000E+00 0.  1.
<mgrwt>
<rscale>  0 0.27590602E+04</rscale>
<asrwt>0</asrwt>
<pdfrwt beam="1">  1        2 0.80509353E+00 0.27590602E+04</pdfrwt>
<pdfrwt beam="2">  1       -2 0.55948612E-01 0.27590602E+04</pdfrwt>
<totfact> 0.43409310E-02</totfact>
</mgrwt>
</event>
<event>
 6    1  0.4630212E-004  0.1920171E+04  0.7818608E-02  0.8644881E-01
          2   -1    0    0  501    0  0.00000000000E+00  0.00000000000E+00  0.17031867746E+04  0.17031867746E+04  0.00000000000E+00 0.  1.
         -2   -1    0    0    0  501 -0.00000000000E+00 -0.00000000000E+00 -0.54119977427E+03  0.54119977427E+03  0.00000000000E+00 0. -1.
         23    2    1    2    0    0 -0.81234939689E+03  0.28462269702E+03  0.90939257237E+02  0.87031781322E+03  0.90892932668E+02 0.  0.
         13    1    3    3    0    0 -0.63526507508E+03  0.25335977742E+03  0.94737204083E+02  0.69045494442E+03  0.00000000000E+00 0. -1.
        -13    1    3    3    0    0 -0.17708432181E+03  0.31262919595E+02 -0.37979468454E+01  0.17986286880E+03  0.00000000000E+00 0.  1.
         22    1    1    2    0    0  0.81234939689E+03 -0.28462269702E+03  0.10710477430E+04  0.13740687356E+04  0.00000000000E+00 0.  1.
<mgrwt>
<rscale>  0 0.19201711E+04</rscale>
<asrwt>0</asrwt>
<pdfrwt beam="1">  1        2 0.26202873E+00 0.19201711E+04</pdfrwt>
<pdfrwt beam="2">  1       -2 0.83261505E-01 0.19201711E+04</pdfrwt>
<totfact> 0.11532887E+01</totfact>
</mgrwt>
</event>
<event>
 6    1  0.4630212E-004  0.2144144E+04  0.7818608E-02  0.8542043E-01
         -2   -1    0    0    0  501 -0.00000000000E+00  0.00000000000E+00  0.47048432036E+03  0.47048432036E+03  0.00000000000E+00 0. -1.
          2   -1    0    0  501    0  0.00000000000E+00 -0.00000000000E+00 -0.24428825279E+04  0.24428825279E+04  0.00000000000E+00 0.  1.
         23    2    1    2    0    0 -0.91493590277E+03 -0.17659318143E+02 -0.17417951610E+04  0.19696522077E+04  0.90883875094E+02 0.  0.
         13    1    3    3    0    0 -0.34617766857E+03  0.30933204732E+02 -0.70894831021E+03  0.78955908450E+03  0.00000000000E+00 0. -1.
        -13    1    3    3    0    0 -0.56875823421E+03 -0.48592522876E+02 -0.10328468508E+04  0.11800931232E+04  0.00000000000E+00 0.  1.
         22    1    1    2    0    0  0.91493590277E+03  0.17659318143E+02 -0.23060304652E+03  0.94371464054E+03  0.00000000000E+00 0.  1.
<mgrwt>
<rscale>  0 0.21441436E+04</rscale>
<asrwt>0</asrwt>
<pdfrwt beam="1">  1        2 0.37582808E+00 0.21441436E+04</pdfrwt>
<pdfrwt beam="2">  1       -2 0.72382203E-01 0.21441436E+04</pdfrwt>
<totfact> 0.59581950E+00</totfact>
</mgrwt>
</event>
<event>
 6    1  0.4630212E-004  0.2834901E+04  0.7818608E-02  0.8292514E-01
          2   -1    0    0  501    0  0.00000000000E+00  0.00000000000E+00  0.14258808844E+04  0.14258808844E+04  0.00000000000E+00 0.  1.
         -2   -1    0    0    0  501 -0.00000000000E+00 -0.00000000000E+00 -0.14090704141E+04  0.14090704141E+04  0.00000000000E+00 0. -1.
         23    2    1    2    0    0  0.81616708974E+03 -0.42834977999E+03 -0.10673577922E+04  0.14119147305E+04  0.68105045196E+02 0.  0.
         13    1    3    3    0    0  0.23201574288E+03 -0.14273431879E+03 -0.27783204053E+03  0.38909514704E+03  0.00000000000E+00 0.  1.
        -13    1    3    3    0    0  0.58415134685E+03 -0.28561546120E+03 -0.78952575171E+03  0.10228195835E+04  0.00000000000E+00 0. -1.
         22    1    1    2    0    0 -0.81616708974E+03  0.42834977999E+03  0.10841682625E+04  0.14230365680E+04  0.00000000000E+00 0.  1.
<mgrwt>
<rscale>  0 0.28349015E+04</rscale>
<asrwt>0</asrwt>
<pdfrwt beam="1">  1        2 0.21936629E+00 0.28349015E+04</pdfrwt>
<pdfrwt beam="2">  1       -2 0.21678006E+00 0.28349015E+04</pdfrwt>
<totfact> 0.12573314E+00</totfact>
</mgrwt>
</event>
<event>
 6    1  0.4630212E-004  0.3494940E+04  0.7818608E-02  0.8114990E-01
          2   -1    0    0  501    0  0.00000000000E+00  0.00000000000E+00  0.31715713864E+04  0.31715713864E+04  0.00000000000E+00 0.  1.
         -2   -1    0    0    0  501 -0.00000000000E+00 -0.00000000000E+00 -0.96281991180E+03  0.96281991180E+03  0.00000000000E+00 0. -1.
         23    2    1    2    0    0 -0.44673648263E+03  0.16866191970E+04  0.10200096986E+04  0.20231440813E+04  0.91838924674E+02 0.  0.
         13    1    3    3    0    0 -0.73408367689E+02  0.41921086534E+03  0.26618120090E+03  0.50197506888E+03  0.00000000000E+00 0.  1.
        -13    1    3    3    0    0 -0.37332811494E+03  0.12674083317E+04  0.75382849766E+03  0.15211690125E+04  0.00000000000E+00 0. -1.
         22    1    1    2    0    0  0.44673648263E+03 -0.16866191970E+04  0.11887417761E+04  0.21112472169E+04  0.00000000000E+00 0.  1.
<mgrwt>
<rscale>  0 0.34949404E+04</rscale>
<asrwt>0</asrwt>
<pdfrwt beam="1">  1        2 0.48793406E+00 0.34949404E+04</pdfrwt>
<pdfrwt beam="2">  1       -2 0.14812614E+00 0.34949404E+04</pdfrwt>
<totfact> 0.34424597E-01</totfact>
</mgrwt>
</event>
<event>
 6    1  0.4630212E-004  0.2089101E+04  0.7818608E-02  0.8566060E-01
          2   -1    0    0  501    0  0.00000000000E+00  0.00000000000E+00  0.25593515744E+04  0.25593515744E+04  0.00000000000E+00 0.  1.
         -2   -1    0    0    0  501 -0.00000000000E+00 -0.00000000000E+00 -0.42631336347E+03  0.42631336347E+03  0.00000000000E+00 0. -1.
         23    2    1    2    0    0  0.63764169779E+03  0.84946655541E+02  0.22411048070E+04  0.23333756936E+04  0.91041213114E+02 0.  0.
         11    1    3    3    0    0  0.53802784064E+03  0.81681791155E+02  0.19940618604E+04  0.20669853834E+04  0.00000000000E+00 0. -1.
        -11    1    3    3    0    0  0.99613857155E+02  0.32648643864E+01  0.24704294660E+03  0.26639031015E+03  0.00000000000E+00 0.  1.
         22    1    1    2    0    0 -0.63764169779E+03 -0.84946655541E+02 -0.10806659603E+03  0.65228924430E+03  0.00000000000E+00 0. -1.
<mgrwt>
<rscale>  0 0.20891010E+04</rscale>
<asrwt>0</asrwt>
<pdfrwt beam="1">  1        2 0.39374639E+00 0.20891010E+04</pdfrwt>
<pdfrwt beam="2">  1       -2 0.65586673E-01 0.20891010E+04</pdfrwt>
<totfact> 0.63523534E+00</totfact>
</mgrwt>
</event>
<event>
 6    1  0.4630212E-004  0.2584613E+04  0.7818608E-02  0.8373447E-01
         -2   -1    0    0    0  501 -0.00000000000E+00  0.00000000000E+00  0.11482677909E+04  0.11482677909E+04  0.00000000000E+00 0. -1.
          2   -1    0    0  501    0  0.00000000000E+00 -0.00000000000E+00 -0.14544134046E+04  0.14544134046E+04  0.00000000000E+00 0.  1.
         23    2    1    2    0    0  0.12327383176E+04  0.37931512830E+03 -0.10891047179E+03  0.12979109370E+04  0.95851881973E+02 0.  0.
         13    1    3    3    0    0  0.10810184534E+04  0.30098892814E+03 -0.82909490325E+02  0.11251974115E+04  0.00000000000E+00 0. -1.
        -13    1    3    3    0    0  0.15171986423E+03  0.78326200158E+02 -0.26000981462E+02  0.17271352544E+03  0.00000000000E+00 0.  1.
         22    1    1    2    0    0 -0.12327383176E+04 -0.37931512830E+03 -0.19723514192E+03  0.13047702585E+04  0.00000000000E+00 0. -1.
<mgrwt>
<rscale>  0 0.25846130E+04</rscale>
<asrwt>0</asrwt>
<pdfrwt beam="1">  1        2 0.22375591E+00 0.25846130E+04</pdfrwt>
<pdfrwt beam="2">  1       -2 0.17665658E+00 0.25846130E+04</pdfrwt>
<totfact> 0.22828508E+00</totfact>
</mgrwt>
</event>
<event>
 6    1  0.4630212E-004  0.3828373E+04  0.7818608E-02  0.8040093E-01
          2   -1    0    0  501    0  0.00000000000E+00  0.00000000000E+00  0.34183384032E+04  0.34183384032E+04  0.00000000000E+00 0.  1.
         -2   -1    0    0    0  501 -0.00000000000E+00 -0.00000000000E+00 -0.10718977917E+04  0.10718977917E+04  0.00000000000E+00 0. -1.
         23    2    1    2    0    0  0.98945611868E+03 -0.15757833911E+04  0.65324346441E+03  0.19744791944E+04  0.98612163728E+02 0.  0.
         13    1    3    3    0    0  0.20530503719E+03 -0.25779450287E+03  0.12379602377E+03  0.35204207065E+03  0.00000000000E+00 0.  1.
        -13    1    3    3    0    0  0.78415108148E+03 -0.13179888882E+04  0.52944744064E+03  0.16224371238E+04  0.00000000000E+00 0. -1.
         22    1    1    2    0    0 -0.98945611868E+03  0.15757833911E+04  0.16931971471E+04  0.25157570005E+04  0.00000000000E+00 0.  1.
<mgrwt>
<rscale>  0 0.38283727E+04</rscale>
<asrwt>0</asrwt>
<pdfrwt beam="1">  1        2 0.52589821E+00 0.38283727E+04</pdfrwt>
<pdfrwt beam="2">  1       -2 0.16490735E+00 0.38283727E+04</pdfrwt>
<totfact> 0.17153564E-01</totfact>
</mgrwt>
</event>
<event>
 6    1  0.4630212E-004  0.1230963E+04  0.7818608E-02  0.9086178E-01
          2   -1    0    0  501    0  0.00000000000E+00  0.00000000000E+00  0.60009298969E+03  0.60009298969E+03  0.00000000000E+00 0.  1.
         -2   -1    0    0    0  501 -0.00000000000E+00 -0.00000000000E+00 -0.63126505298E+03  0.63126505298E+03  0.00000000000E+00 0. -1.
         23    2    1    2    0    0  0.22402700023E+03  0.55714415381E+03  0.10338762130E+03  0.61596872388E+03  0.90170746994E+02 0.  0.
         11    1    3    3    0    0  0.12479491156E+03  0.20826531741E+03  0.64227542567E+02  0.25114416101E+03  0.00000000000E+00 0.  1.
        -11    1    3    3    0    0  0.99232088668E+02  0.34887883640E+03  0.39160078732E+02  0.36482456287E+03  0.00000000000E+00 0. -1.
         22    1    1    2    0    0 -0.22402700023E+03 -0.55714415381E+03 -0.13455968459E+03  0.61538931878E+03  0.00000000000E+00 0. -1.
<mgrwt>
<rscale>  0 0.12309634E+04</rscale>
<asrwt>0</asrwt>
<pdfrwt beam="1">  1        2 0.92321999E-01 0.12309634E+04</pdfrwt>
<pdfrwt beam="2">  1       -2 0.97117700E-01 0.12309634E+04</pdfrwt>
<totfact> 0.43230201E+01</totfact>
</mgrwt>
</event>
<event>
 6    1  0.4630212E-004  0.2271724E+04  0.7818608E-02  0.8489154E-01
         -2   -1    0    0    0  501 -0.00000000000E+00  0.00000000000E+00  0.47671212682E+03  0.47671212682E+03  0.00000000000E+00 0. -1.
          2   -1    0    0  501    0  0.00000000000E+00 -0.00000000000E+00 -0.27064191939E+04  0.27064191939E+04  0.00000000000E+00 0.  1.
         23    2    1    2    0    0  0.10219517917E+04  0.17530474902E+03 -0.47183297127E+03  0.11422397125E+04  0.83474478034E+02 0.  0.
         13    1    3    3    0    0  0.35785303220E+03  0.10196524719E+03 -0.16944979241E+03  0.40886298003E+03  0.00000000000E+00 0.  1.
        -13    1    3    3    0    0  0.66409875952E+03  0.73339501834E+02 -0.30238317886E+03  0.73337673250E+03  0.00000000000E+00 0. -1.
         22    1    1    2    0    0 -0.10219517917E+04 -0.17530474902E+03 -0.17578740958E+04  0.20408916081E+04  0.00000000000E+00 0.  1.
<mgrwt>
<rscale>  0 0.22717243E+04</rscale>
<asrwt>0</asrwt>
<pdfrwt beam="1">  1        2 0.41637218E+00 0.22717243E+04</pdfrwt>
<pdfrwt beam="2">  1       -2 0.73340328E-01 0.22717243E+04</pdfrwt>
<totfact> 0.40144712E+00</totfact>
</mgrwt>
</event>
<event>
 6    1  0.4630212E-004  0.1946025E+04  0.7818608E-02  0.8632280E-01
          2   -1    0    0  501    0  0.00000000000E+00  0.00000000000E+00  0.15540631578E+04  0.15540631578E+04  0.00000000000E+00 0.  1.
         -2   -1    0    0    0  501 -0.00000000000E+00 -0.00000000000E+00 -0.60921169470E+03  0.60921169470E+03  0.00000000000E+00 0. -1.
         23    2    1    2    0    0 -0.67164694330E+03  0.36184127578E+03  0.11412305671E+04  0.13754909495E+04  0.86772228983E+02 0.  0.
         11    1    3    3    0    0 -0.44640971166E+03  0.21004629060E+03  0.79160345987E+03  0.93275779951E+03  0.00000000000E+00 0.  1.
        -11    1    3    3    0    0 -0.22523723164E+03  0.15179498518E+03  0.34962710721E+03  0.44273315003E+03  0.00000000000E+00 0. -1.
         22    1    1    2    0    0  0.67164694330E+03 -0.36184127578E+03 -0.19637910396E+03  0.78778390297E+03  0.00000000000E+00 0. -1.
<mgrwt>
<rscale>  0 0.19460251E+04</rscale>
<asrwt>0</asrwt>
<pdfrwt beam="1">  1        2 0.23908664E+00 0.19460251E+04</pdfrwt>
<pdfrwt beam="2">  1       -2 0.93724876E-01 0.19460251E+04</pdfrwt>
<totfact> 0.10621972E+01</totfact>
</mgrwt>
</event>
<event>
 6    1  0.4630212E-004  0.2958480E+04  0.7818608E-02  0.8255687E-01
          2   -1    0    0  501    0  0.00000000000E+00  0.00000000000E+00  0.10332316310E+04  0.10332316310E+04  0.00000000000E+00 0.  1.
         -2   -1    0    0    0  501 -0.00000000000E+00 -0.00000000000E+00 -0.21177742930E+04  0.21177742930E+04  0.00000000000E+00 0. -1.
         23    2    1    2    0    0 -0.11496512728E+04  0.68921215511E+03  0.11997064530E+03  0.13489061068E+04  0.91887352522E+02 0.  0.
         11    1    3    3    0    0 -0.66087281442E+03  0.34476805434E+03  0.78449306907E+02  0.74951463087E+03  0.00000000000E+00 0. -1.
        -11    1    3    3    0    0 -0.48877845837E+03  0.34444410078E+03  0.41521338393E+02  0.59939147598E+03  0.00000000000E+00 0.  1.
         22    1    1    2    0    0  0.11496512728E+04 -0.68921215511E+03 -0.12045133073E+04  0.18020998172E+04  0.00000000000E+00 0. -1.
<mgrwt>
<rscale>  0 0.29584803E+04</rscale>
<asrwt>0</asrwt>
<pdfrwt beam="1">  1        2 0.15895871E+00 0.29584803E+04</pdfrwt>
<pdfrwt beam="2">  1       -2 0.32581143E+00 0.29584803E+04</pdfrwt>
<totfact> 0.45403738E-01</totfact>
</mgrwt>
</event>
<event>
 6    1  0.4630212E-004  0.1994528E+04  0.7818608E-02  0.8609183E-01
         -2   -1    0    0    0  501 -0.00000000000E+00  0.00000000000E+00  0.29751526902E+03  0.29751526902E+03  0.00000000000E+00 0. -1.
          2   -1    0    0  501    0  0.00000000000E+00 -0.00000000000E+00 -0.33428037296E+04  0.33428037296E+04  0.00000000000E+00 0.  1.
         23    2    1    2    0    0 -0.47100093616E+03  0.15368086940E+03 -0.31010596058E+04  0.31417509369E+04  0.92566620931E+02 0.  0.
         11    1    3    3    0    0 -0.29167851297E+03  0.13775762556E+03 -0.18751630325E+04  0.19027059460E+04  0.00000000000E+00 0.  1.
        -11    1    3    3    0    0 -0.17932242319E+03  0.15923243840E+02 -0.12258965733E+04  0.12390449909E+04  0.00000000000E+00 0. -1.
         22    1    1    2    0    0  0.47100093616E+03 -0.15368086940E+03  0.55771145269E+02  0.49856806168E+03  0.00000000000E+00 0. -1.
<mgrwt>
<rscale>  0 0.19945277E+04</rscale>
<asrwt>0</asrwt>
<pdfrwt beam="1">  1        2 0.51427750E+00 0.19945277E+04</pdfrwt>
<pdfrwt beam="2">  1       -2 0.45771579E-01 0.19945277E+04</pdfrwt>
<totfact> 0.44058619E+00</totfact>
</mgrwt>
</event>
<event>
 6    1  0.4630212E-004  0.5864960E+04  0.7818608E-02  0.7707374E-01
         -2   -1    0    0    0  501 -0.00000000000E+00  0.00000000000E+00  0.26931806318E+04  0.26931806318E+04  0.00000000000E+00 0. -1.
          2   -1    0    0  501    0  0.00000000000E+00 -0.00000000000E+00 -0.31930419719E+04  0.31930419719E+04  0.00000000000E+00 0.  1.
         23    2    1    2    0    0  0.51608461677E+03  0.20582259875E+04 -0.22804440858E+04  0.31161842534E+04  0.86841958392E+02 0.  0.
         13    1    3    3    0    0  0.24766573064E+03  0.94501817759E+03 -0.11116546418E+04  0.14799235497E+04  0.00000000000E+00 0. -1.
        -13    1    3    3    0    0  0.26841888612E+03  0.11132078099E+04 -0.11687894439E+04  0.16362607038E+04  0.00000000000E+00 0.  1.
         22    1    1    2    0    0 -0.51608461677E+03 -0.20582259875E+04  0.17805827457E+04  0.27700383502E+04  0.00000000000E+00 0. -1.
<mgrwt>
<rscale>  0 0.58649599E+04</rscale>
<asrwt>0</asrwt>
<pdfrwt beam="1">  1        2 0.49123722E+00 0.58649599E+04</pdfrwt>
<pdfrwt beam="2">  1       -2 0.41433548E+00 0.58649599E+04</pdfrwt>
<totfact> 0.53312003E-03</totfact>
</mgrwt>
</event>
<event>
 6    1  0.4630212E-004  0.2359542E+04  0.7818608E-02  0.8454808E-01
          2   -1    0    0  501    0  0.00000000000E+00  0.00000000000E+00  0.14343300745E+04  0.14343300745E+04  0.00000000000E+00 0.  1.
         -2   -1    0    0    0  501 -0.00000000000E+00 -0.00000000000E+00 -0.97038974472E+03  0.97038974472E+03  0.00000000000E+00 0. -1.
         23    2    1    2    0    0 -0.90390113982E+03  0.15458541901E+03 -0.52085753605E+03  0.10590747104E+04  0.97019312650E+02 0.  0.
         11    1    3    3    0    0 -0.24520732902E+03 -0.75994846966E+00 -0.12959308347E+03  0.27734739770E+03  0.00000000000E+00 0. -1.
        -11    1    3    3    0    0 -0.65869381080E+03  0.15534536748E+03 -0.39126445258E+03  0.78172731271E+03  0.00000000000E+00 0.  1.
         22    1    1    2    0    0  0.90390113982E+03 -0.15458541901E+03  0.98479786584E+03  0.13456451088E+04  0.00000000000E+00 0.  1.
<mgrwt>
<rscale>  0 0.23595416E+04</rscale>
<asrwt>0</asrwt>
<pdfrwt beam="1">  1        2 0.22066617E+00 0.23595416E+04</pdfrwt>
<pdfrwt beam="2">  1       -2 0.14929073E+00 0.23595416E+04</pdfrwt>
<totfact> 0.37868173E+00</totfact>
</mgrwt>
</event>
<event>
 6    1  0.4630212E-004  0.1074941E+04  0.7818608E-02  0.9229966E-01
          2   -1    0    0  501    0  0.00000000000E+00  0.00000000000E+00  0.17406154028E+04  0.17406154028E+04  0.00000000000E+00 0.  1.
         -2   -1    0    0    0  501 -0.00000000000E+00 -0.00000000000E+00 -0.16596130266E+03  0.16596130266E+03  0.00000000000E+00 0. -1.
         23    2    1    2    0    0  0.21080675393E+03 -0.21313837277E+03  0.15760995288E+04  0.16067942131E+04  0.88489915262E+02 0.  0.
         11    1    3    3    0    0  0.14304177450E+03 -0.12455085271E+03  0.11857345760E+04  0.12008082065E+04  0.00000000000E+00 0. -1.
        -11    1    3    3    0    0  0.67764979424E+02 -0.88587520067E+02  0.39036495283E+03  0.40598600659E+03  0.00000000000E+00 0.  1.
         22    1    1    2    0    0 -0.21080675393E+03  0.21313837277E+03 -0.14454286830E+01  0.29978249234E+03  0.00000000000E+00 0. -1.
<mgrwt>
<rscale>  0 0.10749415E+04</rscale>
<asrwt>0</asrwt>
<pdfrwt beam="1">  1        2 0.26778697E+00 0.10749415E+04</pdfrwt>
<pdfrwt beam="2">  1       -2 0.25532509E-01 0.10749415E+04</pdfrwt>
<totfact> 0.12784148E+02</totfact>
</mgrwt>
</event>
<event>
 6    1  0.4630212E-004  0.2083985E+04  0.7818608E-02  0.8568331E-01
          2   -1    0    0  501    0  0.00000000000E+00  0.00000000000E+00  0.29685588810E+04  0.29685588810E+04  0.00000000000E+00 0.  1.
         -2   -1    0    0    0  501 -0.00000000000E+00 -0.00000000000E+00 -0.36574947026E+03  0.36574947026E+03  0.00000000000E+00 0. -1.
         23    2    1    2    0    0 -0.35686891067E+03 -0.14792074519E+03  0.28488243468E+04  0.28763134659E+04  0.90238731691E+02 0.  0.
         13    1    3    3    0    0 -0.20279594389E+03 -0.11088894768E+03  0.19472537564E+04  0.19609231871E+04  0.00000000000E+00 0.  1.
        -13    1    3    3    0    0 -0.15407296678E+03 -0.37031797514E+02  0.90157059040E+03  0.91539027884E+03  0.00000000000E+00 0. -1.
         22    1    1    2    0    0  0.35686891067E+03  0.14792074519E+03 -0.24601493608E+03  0.45799488538E+03  0.00000000000E+00 0. -1.
<mgrwt>
<rscale>  0 0.20839854E+04</rscale>
<asrwt>0</asrwt>
<pdfrwt beam="1">  1        2 0.45670135E+00 0.20839854E+04</pdfrwt>
<pdfrwt beam="2">  1       -2 0.56269151E-01 0.20839854E+04</pdfrwt>
<totfact> 0.49922187E+00</totfact>
</mgrwt>
</event>
<event>
 6    1  0.4630212E-004  0.2349087E+04  0.7818608E-02  0.8458815E-01
          2   -1    0    0  501    0  0.00000000000E+00  0.00000000000E+00  0.25747514032E+04  0.25747514032E+04  0.00000000000E+00 0.  1.
         -2   -1    0    0    0  501 -0.00000000000E+00 -0.00000000000E+00 -0.53580005871E+03  0.53580005871E+03  0.00000000000E+00 0. -1.
         23    2    1    2    0    0  0.55130539816E+03  0.24022184879E+03  0.23542390392E+04  0.24315444597E+04  0.91229528500E+02 0.  0.
         13    1    3    3    0    0  0.33534224246E+03  0.16469441697E+03  0.16181535976E+04  0.16607226547E+04  0.00000000000E+00 0.  1.
        -13    1    3    3    0    0  0.21596315570E+03  0.75527431820E+02  0.73608544165E+03  0.77082180495E+03  0.00000000000E+00 0. -1.
         22    1    1    2    0    0 -0.55130539816E+03 -0.24022184879E+03 -0.31528769472E+03  0.67900700226E+03  0.00000000000E+00 0. -1.
<mgrwt>
<rscale>  0 0.23490866E+04</rscale>
<asrwt>0</asrwt>
<pdfrwt beam="1">  1        2 0.39611559E+00 0.23490866E+04</pdfrwt>
<pdfrwt beam="2">  1       -2 0.82430780E-01 0.23490866E+04</pdfrwt>
<totfact> 0.36733588E+00</totfact>
</mgrwt>
</event>
<event>
 6    1  0.4630212E-004  0.5705732E+04  0.7818608E-02  0.7727998E-01
         -2   -1    0    0    0  501 -0.00000000000E+00  0.00000000000E+00  0.29627640603E+04  0.29627640603E+04  0.00000000000E+00 0. -1.
          2   -1    0    0  501    0  0.00000000000E+00 -0.00000000000E+00 -0.27470448115E+04  0.27470448115E+04  0.00000000000E+00 0.  1.
         23    2    1    2    0    0 -0.59663249024E+02 -0.28441490884E+04  0.31296576435E+03  0.28633723935E+04  0.90609901474E+02 0.  0.
         11    1    3    3    0    0 -0.72280423295E+02 -0.13228337304E+04  0.13784249173E+03  0.13319587420E+04  0.00000000000E+00 0. -1.
        -11    1    3    3    0    0  0.12617174271E+02 -0.15213153580E+04  0.17512327262E+03  0.15314136516E+04  0.00000000000E+00 0.  1.
         22    1    1    2    0    0  0.59663249024E+02  0.28441490884E+04 -0.97246515525E+02  0.28464364783E+04  0.00000000000E+00 0.  1.
<mgrwt>
<rscale>  0 0.57057324E+04</rscale>
<asrwt>0</asrwt>
<pdfrwt beam="1">  1        2 0.42262228E+00 0.57057324E+04</pdfrwt>
<pdfrwt beam="2">  1       -2 0.45580986E+00 0.57057324E+04</pdfrwt>
<totfact> 0.54710648E-03</totfact>
</mgrwt>
</event>
<event>
 6    1  0.4630212E-004  0.2621344E+04  0.7818608E-02  0.8360987E-01
          4   -1    0    0  501    0  0.00000000000E+00  0.00000000000E+00  0.13555919263E+04  0.13555919263E+04  0.00000000000E+00 0.  1.
         -4   -1    0    0    0  501 -0.00000000000E+00 -0.00000000000E+00 -0.12672405233E+04  0.12672405233E+04  0.00000000000E+00 0. -1.
         23    2    1    2    0    0  0.28049214078E+03  0.83698746500E+03 -0.92302067923E+03  0.12804102559E+04  0.90881194592E+02 0.  0.
         13    1    3    3    0    0  0.15733281632E+03  0.51123714012E+03 -0.49694216805E+03  0.73011543397E+03  0.00000000000E+00 0.  1.
        -13    1    3    3    0    0  0.12315932446E+03  0.32575032487E+03 -0.42607851118E+03  0.55029482194E+03  0.00000000000E+00 0. -1.
         22    1    1    2    0    0 -0.28049214078E+03 -0.83698746500E+03  0.10113720822E+04  0.13424221938E+04  0.00000000000E+00 0.  1.
<mgrwt>
<rscale>  0 0.26213439E+04</rscale>
<asrwt>0</asrwt>
<pdfrwt beam="1">  1        4 0.20855260E+00 0.26213439E+04</pdfrwt>
<pdfrwt beam="2">  1       -4 0.19496008E+00 0.26213439E+04</pdfrwt>
<totfact> 0.28917337E-02</totfact>
</mgrwt>
</event>
<event>
 6    1  0.4630212E-004  0.3838177E+04  0.7818608E-02  0.8038012E-01
          2   -1    0    0  501    0  0.00000000000E+00  0.00000000000E+00  0.37363939263E+04  0.37363939263E+04  0.00000000000E+00 0.  1.
         -2   -1    0    0    0  501 -0.00000000000E+00 -0.00000000000E+00 -0.98568296492E+03  0.98568296492E+03  0.00000000000E+00 0. -1.
         23    2    1    2    0    0  0.16161050674E+04  0.80778485709E+03  0.58436981446E+03  0.19012000897E+04  0.93604149860E+02 0.  0.
         11    1    3    3    0    0  0.14063650266E+04  0.68836452086E+03  0.47528513516E+03  0.16363386756E+04  0.00000000000E+00 0. -1.
        -11    1    3    3    0    0  0.20974004081E+03  0.11942033623E+03  0.10908467931E+03  0.26486141411E+03  0.00000000000E+00 0.  1.
         22    1    1    2    0    0 -0.16161050674E+04 -0.80778485709E+03  0.21663411469E+04  0.28208768015E+04  0.00000000000E+00 0.  1.
<mgrwt>
<rscale>  0 0.38381766E+04</rscale>
<asrwt>0</asrwt>
<pdfrwt beam="1">  1        2 0.57482983E+00 0.38381766E+04</pdfrwt>
<pdfrwt beam="2">  1       -2 0.15164354E+00 0.38381766E+04</pdfrwt>
<totfact> 0.12728121E-01</totfact>
</mgrwt>
</event>
<event>
 6    1  0.4630212E-004  0.1485621E+04  0.7818608E-02  0.8894071E-01
          2   -1    0    0  501    0  0.00000000000E+00  0.00000000000E+00  0.12338313598E+04  0.12338313598E+04  0.00000000000E+00 0.  1.
         -2   -1    0    0    0  501 -0.00000000000E+00 -0.00000000000E+00 -0.44719850281E+03  0.44719850281E+03  0.00000000000E+00 0. -1.
         23    2    1    2    0    0 -0.11837080993E+03 -0.33468082593E+03 -0.33961687214E+03  0.50015672961E+03  0.93777558303E+02 0.  0.
         13    1    3    3    0    0 -0.12129424672E+03 -0.22301281216E+03 -0.21373608571E+03  0.33185858888E+03  0.00000000000E+00 0.  1.
        -13    1    3    3    0    0  0.29234367924E+01 -0.11166801377E+03 -0.12588078642E+03  0.16829814073E+03  0.00000000000E+00 0. -1.
         22    1    1    2    0    0  0.11837080993E+03  0.33468082593E+03  0.11262497291E+04  0.11808731330E+04  0.00000000000E+00 0.  1.
<mgrwt>
<rscale>  0 0.14856211E+04</rscale>
<asrwt>0</asrwt>
<pdfrwt beam="1">  1        2 0.18982021E+00 0.14856211E+04</pdfrwt>
<pdfrwt beam="2">  1       -2 0.68799770E-01 0.14856211E+04</pdfrwt>
<totfact> 0.33763677E+01</totfact>
</mgrwt>
</event>
<event>
 6    1  0.4630212E-004  0.2506585E+04  0.7818608E-02  0.8400644E-01
         -2   -1    0    0    0  501 -0.00000000000E+00  0.00000000000E+00  0.43661734807E+03  0.43661734807E+03  0.00000000000E+00 0.  1.
          2   -1    0    0  501    0  0.00000000000E+00 -0.00000000000E+00 -0.35975243296E+04  0.35975243296E+04  0.00000000000E+00 0. -1.
         23    2    1    2    0    0 -0.28012969929E+03  0.71464922071E+03 -0.31736760581E+04  0.32664443373E+04  0.90789481311E+02 0.  0.
         11    1    3    3    0    0 -0.10993314216E+03  0.39786405897E+03 -0.16339572675E+04  0.16852885383E+04  0.00000000000E+00 0. -1.
        -11    1    3    3    0    0 -0.17019655714E+03  0.31678516173E+03 -0.15397187906E+04  0.15811557990E+04  0.00000000000E+00 0.  1.
         22    1    1    2    0    0  0.28012969929E+03 -0.71464922071E+03  0.12769076568E+02  0.76769734036E+03  0.00000000000E+00 0.  1.
<mgrwt>
<rscale>  0 0.25065846E+04</rscale>
<asrwt>0</asrwt>
<pdfrwt beam="1">  1        2 0.55346527E+00 0.25065846E+04</pdfrwt>
<pdfrwt beam="2">  1       -2 0.67171901E-01 0.25065846E+04</pdfrwt>
<totfact> 0.12586161E+00</totfact>
</mgrwt>
</event>
<event>
 6    1  0.4630212E-004  0.1730097E+04  0.7818608E-02  0.8744383E-01
         -2   -1    0    0    0  501 -0.00000000000E+00  0.00000000000E+00  0.75425300700E+03  0.75425300700E+03  0.00000000000E+00 0. -1.
          2   -1    0    0  501    0  0.00000000000E+00 -0.00000000000E+00 -0.99211945213E+03  0.99211945213E+03  0.00000000000E+00 0.  1.
         23    2    1    2    0    0 -0.75459651113E+03 -0.12528781604E+03  0.28423255393E+03  0.82025135675E+03  0.83133699992E+02 0.  0.
         11    1    3    3    0    0 -0.33437987487E+03 -0.95155062942E+02  0.11410729401E+03  0.36590280303E+03  0.00000000000E+00 0.  1.
        -11    1    3    3    0    0 -0.42021663627E+03 -0.30132753100E+02  0.17012525992E+03  0.45434855372E+03  0.00000000000E+00 0. -1.
         22    1    1    2    0    0  0.75459651113E+03  0.12528781604E+03 -0.52209899906E+03  0.92612110239E+03  0.00000000000E+00 0.  1.
<mgrwt>
<rscale>  0 0.17300972E+04</rscale>
<asrwt>0</asrwt>
<pdfrwt beam="1">  1        2 0.15263376E+00 0.17300972E+04</pdfrwt>
<pdfrwt beam="2">  1       -2 0.11603893E+00 0.17300972E+04</pdfrwt>
<totfact> 0.13956202E+01</totfact>
</mgrwt>
</event>
<event>
 6    1  0.4630212E-004  0.9796149E+03  0.7818608E-02  0.9331190E-01
         -2   -1    0    0    0  501 -0.00000000000E+00  0.00000000000E+00  0.69606385288E+03  0.69606385288E+03  0.00000000000E+00 0. -1.
          2   -1    0    0  501    0  0.00000000000E+00 -0.00000000000E+00 -0.34466854774E+03  0.34466854774E+03  0.00000000000E+00 0.  1.
         23    2    1    2    0    0  0.14731769653E+03 -0.43736911663E+03  0.33615997191E+03  0.57896799828E+03  0.95948780237E+02 0.  0.
         11    1    3    3    0    0  0.91375849173E+02 -0.31423863538E+03  0.28634184573E+03  0.43484148651E+03  0.00000000000E+00 0. -1.
        -11    1    3    3    0    0  0.55941847353E+02 -0.12313048125E+03  0.49818126176E+02  0.14412651177E+03  0.00000000000E+00 0.  1.
         22    1    1    2    0    0 -0.14731769653E+03  0.43736911663E+03  0.15235333230E+02  0.46176440234E+03  0.00000000000E+00 0.  1.
<mgrwt>
<rscale>  0 0.97961486E+03</rscale>
<asrwt>0</asrwt>
<pdfrwt beam="1">  1        2 0.53025931E-01 0.97961486E+03</pdfrwt>
<pdfrwt beam="2">  1       -2 0.10708675E+00 0.97961486E+03</pdfrwt>
<totfact> 0.65874267E+01</totfact>
</mgrwt>
</event>
<event>
 6    1  0.4630212E-004  0.4190771E+04  0.7818608E-02  0.7967130E-01
          2   -1    0    0  501    0  0.00000000000E+00  0.00000000000E+00  0.28181818179E+04  0.28181818179E+04  0.00000000000E+00 0. -1.
         -2   -1    0    0    0  501 -0.00000000000E+00 -0.00000000000E+00 -0.15579692107E+04  0.15579692107E+04  0.00000000000E+00 0.  1.
         23    2    1    2    0    0  0.19916776439E+04 -0.31512307161E+02 -0.45428377282E+02  0.19944559929E+04  0.89543885257E+02 0.  0.
         11    1    3    3    0    0  0.14035820237E+04 -0.16314987567E+02  0.84470217927E+01  0.14037022577E+04  0.00000000000E+00 0. -1.
        -11    1    3    3    0    0  0.58809562024E+03 -0.15197319594E+02 -0.53875399075E+02  0.59075373523E+03  0.00000000000E+00 0.  1.
         22    1    1    2    0    0 -0.19916776439E+04  0.31512307161E+02  0.13056409845E+04  0.23816950357E+04  0.00000000000E+00 0. -1.
<mgrwt>
<rscale>  0 0.41907711E+04</rscale>
<asrwt>0</asrwt>
<pdfrwt beam="1">  1        2 0.43356643E+00 0.41907711E+04</pdfrwt>
<pdfrwt beam="2">  1       -2 0.23968757E+00 0.41907711E+04</pdfrwt>
<totfact> 0.13027514E-01</totfact>
</mgrwt>
</event>
<event>
 6    1  0.4630212E-004  0.2985244E+04  0.7818608E-02  0.8247957E-01
          1   -1    0    0  501    0  0.00000000000E+00  0.00000000000E+00  0.20627347446E+04  0.20627347446E+04  0.00000000000E+00 0.  1.
         -1   -1    0    0    0  501 -0.00000000000E+00 -0.00000000000E+00 -0.10800808432E+04  0.10800808432E+04  0.00000000000E+00 0. -1.
         23    2    1    2    0    0  0.98877256080E+03 -0.10782760163E+04  0.18897289861E+03  0.14783998108E+04  0.98004590316E+02 0.  0.
         11    1    3    3    0    0  0.74148235203E+03 -0.76306911054E+03  0.16845224363E+03  0.10772403187E+04  0.00000000000E+00 0. -1.
        -11    1    3    3    0    0  0.24729020877E+03 -0.31520690580E+03  0.20520654975E+02  0.40115949210E+03  0.00000000000E+00 0.  1.
         22    1    1    2    0    0 -0.98877256080E+03  0.10782760163E+04  0.79368100282E+03  0.16644157770E+04  0.00000000000E+00 0.  1.
<mgrwt>
<rscale>  0 0.29852439E+04</rscale>
<asrwt>0</asrwt>
<pdfrwt beam="1">  1        1 0.31734381E+00 0.29852439E+04</pdfrwt>
<pdfrwt beam="2">  1       -1 0.16616628E+00 0.29852439E+04</pdfrwt>
<totfact> 0.60465297E-01</totfact>
</mgrwt>
</event>
<event>
 6    1  0.4630212E-004  0.6356226E+04  0.7818608E-02  0.7647737E-01
          2   -1    0    0  501    0  0.00000000000E+00  0.00000000000E+00  0.34884469124E+04  0.34884469124E+04  0.00000000000E+00 0.  1.
         -2   -1    0    0    0  501 -0.00000000000E+00 -0.00000000000E+00 -0.28953868221E+04  0.28953868221E+04  0.00000000000E+00 0. -1.
         23    2    1    2    0    0  0.24846679244E+04 -0.15121171732E+04  0.15812336565E+04  0.33119352926E+04  0.92425461841E+02 0.  0.
         11    1    3    3    0    0  0.14752592489E+04 -0.90974204972E+03  0.89176916852E+03  0.19491723111E+04  0.00000000000E+00 0. -1.
        -11    1    3    3    0    0  0.10094086755E+04 -0.60237512348E+03  0.68946448799E+03  0.13627629815E+04  0.00000000000E+00 0.  1.
         22    1    1    2    0    0 -0.24846679244E+04  0.15121171732E+04 -0.98817356620E+03  0.30718984419E+04  0.00000000000E+00 0. -1.
<mgrwt>
<rscale>  0 0.63562263E+04</rscale>
<asrwt>0</asrwt>
<pdfrwt beam="1">  1        2 0.53668414E+00 0.63562263E+04</pdfrwt>
<pdfrwt beam="2">  1       -2 0.44544413E+00 0.63562263E+04</pdfrwt>
<totfact> 0.20235762E-03</totfact>
</mgrwt>
</event>
<event>
 6    1  0.4630212E-004  0.1322829E+04  0.7818608E-02  0.9011655E-01
          2   -1    0    0  501    0  0.00000000000E+00  0.00000000000E+00  0.12797110107E+04  0.12797110107E+04  0.00000000000E+00 0.  1.
         -2   -1    0    0    0  501 -0.00000000000E+00 -0.00000000000E+00 -0.34184999397E+03  0.34184999397E+03  0.00000000000E+00 0. -1.
         23    2    1    2    0    0  0.38299779130E+01  0.66343229343E+02  0.12739590484E+04  0.12789563057E+04  0.91331713574E+02 0.  0.
         11    1    3    3    0    0 -0.29482084283E+02 -0.87881393980E+01  0.34795872961E+03  0.34931604916E+03  0.00000000000E+00 0. -1.
        -11    1    3    3    0    0  0.33312062196E+02  0.75131368741E+02  0.92600031883E+03  0.92964025652E+03  0.00000000000E+00 0.  1.
         22    1    1    2    0    0 -0.38299779130E+01 -0.66343229343E+02 -0.33609803175E+03  0.34260469897E+03  0.00000000000E+00 0. -1.
<mgrwt>
<rscale>  0 0.13228291E+04</rscale>
<asrwt>0</asrwt>
<pdfrwt beam="1">  1        2 0.19687861E+00 0.13228291E+04</pdfrwt>
<pdfrwt beam="2">  1       -2 0.52592307E-01 0.13228291E+04</pdfrwt>
<totfact> 0.56705561E+01</totfact>
</mgrwt>
</event>
<event>
 6    1  0.4630212E-004  0.1747498E+04  0.7818608E-02  0.8734729E-01
          2   -1    0    0  501    0  0.00000000000E+00  0.00000000000E+00  0.12677678925E+04  0.12677678925E+04  0.00000000000E+00 0.  1.
         -2   -1    0    0    0  501 -0.00000000000E+00 -0.00000000000E+00 -0.60219010629E+03  0.60219010629E+03  0.00000000000E+00 0. -1.
         23    2    1    2    0    0 -0.67787731433E+01  0.85680309474E+03  0.16460039757E+03  0.87741790443E+03  0.92797592770E+02 0.  0.
         11    1    3    3    0    0 -0.37669298930E+02  0.47976601195E+03  0.60321546860E+02  0.48500834149E+03  0.00000000000E+00 0.  1.
        -11    1    3    3    0    0  0.30890525787E+02  0.37703708279E+03  0.10427885071E+03  0.39240956294E+03  0.00000000000E+00 0. -1.
         22    1    1    2    0    0  0.67787731433E+01 -0.85680309474E+03  0.50097738859E+03  0.99254009430E+03  0.00000000000E+00 0.  1.
<mgrwt>
<rscale>  0 0.17474980E+04</rscale>
<asrwt>0</asrwt>
<pdfrwt beam="1">  1        2 0.19504121E+00 0.17474980E+04</pdfrwt>
<pdfrwt beam="2">  1       -2 0.92644632E-01 0.17474980E+04</pdfrwt>
<totfact> 0.16177861E+01</totfact>
</mgrwt>
</event>
<event>
 6    1  0.4630212E-004  0.2788688E+04  0.7818608E-02  0.8306789E-01
          2   -1    0    0  501    0  0.00000000000E+00  0.00000000000E+00  0.25722816290E+04  0.25722816290E+04  0.00000000000E+00 0.  1.
         -2   -1    0    0    0  501 -0.00000000000E+00 -0.00000000000E+00 -0.75582501960E+03  0.75582501960E+03  0.00000000000E+00 0. -1.
         23    2    1    2    0    0  0.97933724334E+03  0.98371720955E+03  0.10444473710E+04  0.17397744262E+04  0.95623002851E+02 0.  0.
         11    1    3    3    0    0  0.44806583106E+03  0.40144178310E+03  0.49311323910E+03  0.77786834410E+03  0.00000000000E+00 0. -1.
        -11    1    3    3    0    0  0.53127141228E+03  0.58227542645E+03  0.55133413186E+03  0.96190608206E+03  0.00000000000E+00 0.  1.
         22    1    1    2    0    0 -0.97933724334E+03 -0.98371720955E+03  0.77200923841E+03  0.15883322224E+04  0.00000000000E+00 0. -1.
<mgrwt>
<rscale>  0 0.27886877E+04</rscale>
<asrwt>0</asrwt>
<pdfrwt beam="1">  1        2 0.39573563E+00 0.27886877E+04</pdfrwt>
<pdfrwt beam="2">  1       -2 0.11628077E+00 0.27886877E+04</pdfrwt>
<totfact> 0.15787090E+00</totfact>
</mgrwt>
</event>
<event>
 6    1  0.4630212E-004  0.1345133E+04  0.7818608E-02  0.8994520E-01
         -2   -1    0    0    0  501 -0.00000000000E+00  0.00000000000E+00  0.88418126050E+03  0.88418126050E+03  0.00000000000E+00 0. -1.
          2   -1    0    0  501    0  0.00000000000E+00 -0.00000000000E+00 -0.51159863870E+03  0.51159863870E+03  0.00000000000E+00 0.  1.
         23    2    1    2    0    0  0.21266239417E+03 -0.58690395308E+03 -0.61588956359E+02  0.63539413965E+03  0.10124706971E+03 0.  0.
         13    1    3    3    0    0  0.26076335050E+02 -0.21227266943E+03 -0.19215355059E+02  0.21472981000E+03  0.00000000000E+00 0. -1.
        -13    1    3    3    0    0  0.18658605912E+03 -0.37463128366E+03 -0.42373601300E+02  0.42066432965E+03  0.00000000000E+00 0.  1.
         22    1    1    2    0    0 -0.21266239417E+03  0.58690395308E+03  0.43417157817E+03  0.76038575955E+03  0.00000000000E+00 0. -1.
<mgrwt>
<rscale>  0 0.13451333E+04</rscale>
<asrwt>0</asrwt>
<pdfrwt beam="1">  1        2 0.78707483E-01 0.13451333E+04</pdfrwt>
<pdfrwt beam="2">  1       -2 0.13602789E+00 0.13451333E+04</pdfrwt>
<totfact> 0.22651711E+01</totfact>
</mgrwt>
</event>
<event>
 6    1  0.4630212E-004  0.1018138E+04  0.7818608E-02  0.9288872E-01
         -2   -1    0    0    0  501 -0.00000000000E+00  0.00000000000E+00  0.10854530949E+04  0.10854530949E+04  0.00000000000E+00 0. -1.
          2   -1    0    0  501    0  0.00000000000E+00 -0.00000000000E+00 -0.23874957541E+03  0.23874957541E+03  0.00000000000E+00 0.  1.
         23    2    1    2    0    0  0.71999870924E+02 -0.43552930160E+03  0.74731154954E+03  0.87171121439E+03  0.80846368223E+02 0.  0.
         13    1    3    3    0    0  0.73949684394E+02 -0.23166659034E+03  0.44432072643E+03  0.50651640925E+03  0.00000000000E+00 0.  1.
        -13    1    3    3    0    0 -0.19498134694E+01 -0.20386271127E+03  0.30299082311E+03  0.36519480515E+03  0.00000000000E+00 0. -1.
         22    1    1    2    0    0 -0.71999870924E+02  0.43552930160E+03  0.99391969931E+02  0.45249145589E+03  0.00000000000E+00 0.  1.
<mgrwt>
<rscale>  0 0.10181384E+04</rscale>
<asrwt>0</asrwt>
<pdfrwt beam="1">  1        2 0.36730704E-01 0.10181384E+04</pdfrwt>
<pdfrwt beam="2">  1       -2 0.16699278E+00 0.10181384E+04</pdfrwt>
<totfact> 0.31634398E+01</totfact>
</mgrwt>
</event>
<event>
 6    1  0.4630212E-004  0.3364496E+04  0.7818608E-02  0.8146676E-01
          2   -1    0    0  501    0  0.00000000000E+00  0.00000000000E+00  0.14402607411E+04  0.14402607411E+04  0.00000000000E+00 0.  1.
         -2   -1    0    0    0  501 -0.00000000000E+00 -0.00000000000E+00 -0.19648925108E+04  0.19648925108E+04  0.00000000000E+00 0. -1.
         23    2    1    2    0    0 -0.16358579106E+04 -0.27783967906E+03 -0.53526577017E+03  0.17458343937E+04  0.90566519769E+02 0.  0.
         11    1    3    3    0    0 -0.51770104659E+03 -0.12948262242E+03 -0.16094713687E+03  0.55739044127E+03  0.00000000000E+00 0. -1.
        -11    1    3    3    0    0 -0.11181568640E+04 -0.14835705663E+03 -0.37431863330E+03  0.11884439524E+04  0.00000000000E+00 0.  1.
         22    1    1    2    0    0  0.16358579106E+04  0.27783967906E+03  0.10634000510E+02  0.16593188581E+04  0.00000000000E+00 0.  1.
<mgrwt>
<rscale>  0 0.33644955E+04</rscale>
<asrwt>0</asrwt>
<pdfrwt beam="1">  1        2 0.22157858E+00 0.33644955E+04</pdfrwt>
<pdfrwt beam="2">  1       -2 0.30229115E+00 0.33644955E+04</pdfrwt>
<totfact> 0.35084806E-01</totfact>
</mgrwt>
</event>
<event>
 6    1  0.4630212E-004  0.2560900E+04  0.7818608E-02  0.8381605E-01
         -2   -1    0    0    0  501 -0.00000000000E+00  0.00000000000E+00  0.95097604038E+03  0.95097604038E+03  0.00000000000E+00 0. -1.
          2   -1    0    0  501    0  0.00000000000E+00 -0.00000000000E+00 -0.17240729996E+04  0.17240729996E+04  0.00000000000E+00 0.  1.
         23    2    1    2    0    0  0.86466250019E+03 -0.90687093480E+03 -0.65367331071E+03  0.14163520393E+04  0.93317578746E+02 0.  0.
         11    1    3    3    0    0  0.74564674329E+03 -0.79657392805E+03 -0.53429176737E+03  0.12149019637E+04  0.00000000000E+00 0. -1.
        -11    1    3    3    0    0  0.11901575691E+03 -0.11029700674E+03 -0.11938154334E+03  0.20145007565E+03  0.00000000000E+00 0.  1.
         22    1    1    2    0    0 -0.86466250019E+03  0.90687093480E+03 -0.11942364848E+03  0.12586970006E+04  0.00000000000E+00 0. -1.
<mgrwt>
<rscale>  0 0.25608999E+04</rscale>
<asrwt>0</asrwt>
<pdfrwt beam="1">  1        2 0.26524200E+00 0.25608999E+04</pdfrwt>
<pdfrwt beam="2">  1       -2 0.14630401E+00 0.25608999E+04</pdfrwt>
<totfact> 0.27011388E+00</totfact>
</mgrwt>
</event>
<event>
 6    1  0.4630212E-004  0.4311596E+04  0.7818608E-02  0.7944477E-01
         -2   -1    0    0    0  501 -0.00000000000E+00  0.00000000000E+00  0.33449894367E+04  0.33449894367E+04  0.00000000000E+00 0. -1.
          2   -1    0    0  501    0  0.00000000000E+00 -0.00000000000E+00 -0.13893812189E+04  0.13893812189E+04  0.00000000000E+00 0.  1.
         23    2    1    2    0    0 -0.14897847764E+04  0.51221368809E+03 -0.63609726736E+03  0.17014250802E+04  0.91684392117E+02 0.  0.
         11    1    3    3    0    0 -0.70393254282E+03  0.21765262090E+03 -0.34003509185E+03  0.81149094383E+03  0.00000000000E+00 0. -1.
        -11    1    3    3    0    0 -0.78585223353E+03  0.29456106719E+03 -0.29606217550E+03  0.88993413633E+03  0.00000000000E+00 0.  1.
         22    1    1    2    0    0  0.14897847764E+04 -0.51221368809E+03  0.25917054852E+04  0.30329455755E+04  0.00000000000E+00 0. -1.
<mgrwt>
<rscale>  0 0.43115962E+04</rscale>
<asrwt>0</asrwt>
<pdfrwt beam="1">  1        2 0.21375096E+00 0.43115962E+04</pdfrwt>
<pdfrwt beam="2">  1       -2 0.51461376E+00 0.43115962E+04</pdfrwt>
<totfact> 0.15226744E-02</totfact>
</mgrwt>
</event>
<event>
 6    1  0.4630212E-004  0.1938761E+04  0.7818608E-02  0.8635800E-01
         -2   -1    0    0    0  501 -0.00000000000E+00  0.00000000000E+00  0.52364854120E+03  0.52364854120E+03  0.00000000000E+00 0. -1.
          2   -1    0    0  501    0  0.00000000000E+00 -0.00000000000E+00 -0.17945214196E+04  0.17945214196E+04  0.00000000000E+00 0.  1.
         23    2    1    2    0    0  0.32230929476E+03 -0.59565219339E+03  0.18908996190E+03  0.70876749030E+03  0.88946751704E+02 0.  0.
         13    1    3    3    0    0  0.15367112867E+03 -0.19563081023E+03  0.77027695350E+02  0.26042176474E+03  0.00000000000E+00 0. -1.
        -13    1    3    3    0    0  0.16863816608E+03 -0.40002138316E+03  0.11206226655E+03  0.44834572556E+03  0.00000000000E+00 0.  1.
         22    1    1    2    0    0 -0.32230929476E+03  0.59565219339E+03 -0.14599628403E+04  0.16094024705E+04  0.00000000000E+00 0.  1.
<mgrwt>
<rscale>  0 0.19387610E+04</rscale>
<asrwt>0</asrwt>
<pdfrwt beam="1">  1        2 0.27608021E+00 0.19387610E+04</pdfrwt>
<pdfrwt beam="2">  1       -2 0.80561315E-01 0.19387610E+04</pdfrwt>
<totfact> 0.11038437E+01</totfact>
</mgrwt>
</event>
<event>
 6    1  0.4630212E-004  0.2464092E+04  0.7818608E-02  0.8415891E-01
         -2   -1    0    0    0  501 -0.00000000000E+00  0.00000000000E+00  0.16002228717E+04  0.16002228717E+04  0.00000000000E+00 0. -1.
          2   -1    0    0  501    0  0.00000000000E+00 -0.00000000000E+00 -0.94857836282E+03  0.94857836282E+03  0.00000000000E+00 0.  1.
         23    2    1    2    0    0 -0.94191532022E+03 -0.67440914557E+03  0.75498656004E+03  0.13857398665E+04  0.90764011636E+02 0.  0.
         13    1    3    3    0    0 -0.40475559712E+03 -0.30462193258E+03  0.27860563330E+03  0.57813727965E+03  0.00000000000E+00 0.  1.
        -13    1    3    3    0    0 -0.53715972310E+03 -0.36978721298E+03  0.47638092674E+03  0.80760258690E+03  0.00000000000E+00 0. -1.
         22    1    1    2    0    0  0.94191532022E+03  0.67440914557E+03 -0.10334205117E+03  0.11630613680E+04  0.00000000000E+00 0.  1.
<mgrwt>
<rscale>  0 0.24640916E+04</rscale>
<asrwt>0</asrwt>
<pdfrwt beam="1">  1        2 0.14593513E+00 0.24640916E+04</pdfrwt>
<pdfrwt beam="2">  1       -2 0.24618813E+00 0.24640916E+04</pdfrwt>
<totfact> 0.16507129E+00</totfact>
</mgrwt>
</event>
<event>
 6    1  0.4630212E-004  0.4462231E+04  0.7818608E-02  0.7917283E-01
         -2   -1    0    0    0  501 -0.00000000000E+00  0.00000000000E+00  0.15390140538E+04  0.15390140538E+04  0.00000000000E+00 0. -1.
          2   -1    0    0  501    0  0.00000000000E+00 -0.00000000000E+00 -0.32344581089E+04  0.32344581089E+04  0.00000000000E+00 0.  1.
         23    2    1    2    0    0 -0.32426206822E+03 -0.17085286487E+04  0.64556514053E+03  0.18572177007E+04  0.91034085304E+02 0.  0.
         11    1    3    3    0    0 -0.12933997793E+03 -0.53711551144E+03  0.17026026220E+03  0.57810938360E+03  0.00000000000E+00 0. -1.
        -11    1    3    3    0    0 -0.19492209029E+03 -0.11714131373E+04  0.47530487833E+03  0.12791083171E+04  0.00000000000E+00 0.  1.
         22    1    1    2    0    0  0.32426206822E+03  0.17085286487E+04 -0.23410091957E+04  0.29162544619E+04  0.00000000000E+00 0.  1.
<mgrwt>
<rscale>  0 0.44622310E+04</rscale>
<asrwt>0</asrwt>
<pdfrwt beam="1">  1        2 0.49760894E+00 0.44622310E+04</pdfrwt>
<pdfrwt beam="2">  1       -2 0.23677139E+00 0.44622310E+04</pdfrwt>
<totfact> 0.72500666E-02</totfact>
</mgrwt>
</event>
<event>
 6    1  0.4630212E-004  0.1278559E+04  0.7818608E-02  0.9046743E-01
          2   -1    0    0  501    0  0.00000000000E+00  0.00000000000E+00  0.76419829529E+03  0.76419829529E+03  0.00000000000E+00 0.  1.
         -2   -1    0    0    0  501 -0.00000000000E+00 -0.00000000000E+00 -0.53478030322E+03  0.53478030322E+03  0.00000000000E+00 0. -1.
         23    2    1    2    0    0 -0.16785606629E+03  0.45290701511E+03 -0.30442564773E+03  0.57905536990E+03  0.96590491729E+02 0.  0.
         13    1    3    3    0    0 -0.97613636893E+02  0.36627269576E+03 -0.21274217565E+03  0.43467613584E+03  0.00000000000E+00 0. -1.
        -13    1    3    3    0    0 -0.70242429394E+02  0.86634319349E+02 -0.91683472081E+02  0.14437923406E+03  0.00000000000E+00 0.  1.
         22    1    1    2    0    0  0.16785606629E+03 -0.45290701511E+03  0.53384363981E+03  0.71992322861E+03  0.00000000000E+00 0.  1.
<mgrwt>
<rscale>  0 0.12785589E+04</rscale>
<asrwt>0</asrwt>
<pdfrwt beam="1">  1        2 0.11756897E+00 0.12785589E+04</pdfrwt>
<pdfrwt beam="2">  1       -2 0.82273892E-01 0.12785589E+04</pdfrwt>
<totfact> 0.46628539E+01</totfact>
</mgrwt>
</event>
<event>
 6    1  0.4630212E-004  0.3653406E+04  0.7818608E-02  0.8078367E-01
         -3   -1    0    0    0  501 -0.00000000000E+00  0.00000000000E+00  0.13246558806E+04  0.13246558806E+04  0.00000000000E+00 0. -1.
          3   -1    0    0  501    0  0.00000000000E+00 -0.00000000000E+00 -0.25190275746E+04  0.25190275746E+04  0.00000000000E+00 0.  1.
         23    2    1    2    0    0 -0.15694229674E+04  0.54453249872E+03  0.19904495461E+03  0.16754551347E+04  0.89033261685E+02 0.  0.
         11    1    3    3    0    0 -0.31631732019E+03  0.11767242865E+03  0.75905436437E+02  0.34592641240E+03  0.00000000000E+00 0.  1.
        -11    1    3    3    0    0 -0.12531056472E+04  0.42686007006E+03  0.12313951817E+03  0.13295287223E+04  0.00000000000E+00 0. -1.
         22    1    1    2    0    0  0.15694229674E+04 -0.54453249872E+03 -0.13934166486E+04  0.21682283204E+04  0.00000000000E+00 0.  1.
<mgrwt>
<rscale>  0 0.36534065E+04</rscale>
<asrwt>0</asrwt>
<pdfrwt beam="1">  1        3 0.38754270E+00 0.36534065E+04</pdfrwt>
<pdfrwt beam="2">  1       -3 0.20379322E+00 0.36534065E+04</pdfrwt>
<totfact> 0.37635809E-03</totfact>
</mgrwt>
</event>
<event>
 6    1  0.4630212E-004  0.2144811E+04  0.7818608E-02  0.8541756E-01
         -2   -1    0    0    0  501 -0.00000000000E+00  0.00000000000E+00  0.34950807498E+03  0.34950807498E+03  0.00000000000E+00 0. -1.
          2   -1    0    0  501    0  0.00000000000E+00 -0.00000000000E+00 -0.32904935135E+04  0.32904935135E+04  0.00000000000E+00 0.  1.
         23    2    1    2    0    0  0.92811304610E+02  0.73230190300E+03 -0.15708834989E+03  0.75990384440E+03  0.88865559426E+02 0.  0.
         11    1    3    3    0    0  0.21786796241E+02  0.31820355327E+03 -0.10878998341E+03  0.33699173030E+03  0.00000000000E+00 0.  1.
        -11    1    3    3    0    0  0.71024508368E+02  0.41409834973E+03 -0.48298366484E+02  0.42291211409E+03  0.00000000000E+00 0. -1.
         22    1    1    2    0    0 -0.92811304610E+02 -0.73230190300E+03 -0.27838970886E+04  0.28800977441E+04  0.00000000000E+00 0.  1.
<mgrwt>
<rscale>  0 0.21448115E+04</rscale>
<asrwt>0</asrwt>
<pdfrwt beam="1">  1        2 0.50622977E+00 0.21448115E+04</pdfrwt>
<pdfrwt beam="2">  1       -2 0.53770473E-01 0.21448115E+04</pdfrwt>
<totfact> 0.33911400E+00</totfact>
</mgrwt>
</event>
<event>
 6    1  0.4630212E-004  0.4599259E+04  0.7818608E-02  0.7893486E-01
          2   -1    0    0  501    0  0.00000000000E+00  0.00000000000E+00  0.24287828118E+04  0.24287828118E+04  0.00000000000E+00 0.  1.
         -2   -1    0    0    0  501 -0.00000000000E+00 -0.00000000000E+00 -0.21773444743E+04  0.21773444743E+04  0.00000000000E+00 0. -1.
         23    2    1    2    0    0 -0.13730971983E+04 -0.11696203545E+04  0.15529656213E+04  0.23818564032E+04  0.90166593468E+02 0.  0.
         13    1    3    3    0    0 -0.12828646654E+04 -0.10713227040E+04  0.14597718540E+04  0.22191007078E+04  0.00000000000E+00 0. -1.
        -13    1    3    3    0    0 -0.90232532961E+02 -0.98297650490E+02  0.93193767348E+02  0.16275569535E+03  0.00000000000E+00 0.  1.
         22    1    1    2    0    0  0.13730971983E+04  0.11696203545E+04 -0.13015272839E+04  0.22242708829E+04  0.00000000000E+00 0. -1.
<mgrwt>
<rscale>  0 0.45992594E+04</rscale>
<asrwt>0</asrwt>
<pdfrwt beam="1">  1        2 0.37365889E+00 0.45992594E+04</pdfrwt>
<pdfrwt beam="2">  1       -2 0.33497607E+00 0.45992594E+04</pdfrwt>
<totfact> 0.55602528E-02</totfact>
</mgrwt>
</event>
<event>
 6    1  0.4630212E-004  0.1448687E+04  0.7818608E-02  0.8919311E-01
         -1   -1    0    0    0  501 -0.00000000000E+00  0.00000000000E+00  0.17211154482E+03  0.17211154482E+03  0.00000000000E+00 0. -1.
          1   -1    0    0  501    0  0.00000000000E+00 -0.00000000000E+00 -0.30484490414E+04  0.30484490414E+04  0.00000000000E+00 0.  1.
         23    2    1    2    0    0 -0.49025901317E+03  0.50437249523E+02 -0.27338140171E+03  0.57135726298E+03  0.93882453212E+02 0.  0.
         13    1    3    3    0    0 -0.21094847437E+03  0.68334348555E+02 -0.11562966482E+03  0.25007811063E+03  0.00000000000E+00 0. -1.
        -13    1    3    3    0    0 -0.27931053880E+03 -0.17897099032E+02 -0.15775173690E+03  0.32127915234E+03  0.00000000000E+00 0.  1.
         22    1    1    2    0    0  0.49025901317E+03 -0.50437249523E+02 -0.26029560949E+04  0.26492033233E+04  0.00000000000E+00 0.  1.
<mgrwt>
<rscale>  0 0.14486867E+04</rscale>
<asrwt>0</asrwt>
<pdfrwt beam="1">  1        1 0.46899217E+00 0.14486867E+04</pdfrwt>
<pdfrwt beam="2">  1       -1 0.26478699E-01 0.14486867E+04</pdfrwt>
<totfact> 0.68390040E+00</totfact>
</mgrwt>
</event>
<event>
 6    1  0.4630212E-004  0.2741892E+04  0.7818608E-02  0.8321539E-01
         -2   -1    0    0    0  501 -0.00000000000E+00  0.00000000000E+00  0.81291502409E+03  0.81291502409E+03  0.00000000000E+00 0.  1.
          2   -1    0    0  501    0  0.00000000000E+00 -0.00000000000E+00 -0.23120405296E+04  0.23120405296E+04  0.00000000000E+00 0. -1.
         23    2    1    2    0    0  0.13665925959E+04  0.86455872495E+02 -0.76245087371E+03  0.15700473718E+04  0.93099269316E+02 0.  0.
         11    1    3    3    0    0  0.63404406261E+03 -0.62421288804E+01 -0.35655387956E+03  0.72744862810E+03  0.00000000000E+00 0. -1.
        -11    1    3    3    0    0  0.73254853325E+03  0.92698001375E+02 -0.40589699415E+03  0.84259874370E+03  0.00000000000E+00 0.  1.
         22    1    1    2    0    0 -0.13665925959E+04 -0.86455872495E+02 -0.73667463179E+03  0.15549081819E+04  0.00000000000E+00 0. -1.
<mgrwt>
<rscale>  0 0.27418917E+04</rscale>
<asrwt>0</asrwt>
<pdfrwt beam="1">  1        2 0.35569854E+00 0.27418917E+04</pdfrwt>
<pdfrwt beam="2">  1       -2 0.12506385E+00 0.27418917E+04</pdfrwt>
<totfact> 0.18681893E+00</totfact>
</mgrwt>
</event>
<event>
 6    1  0.4630212E-004  0.2902258E+04  0.7818608E-02  0.8272206E-01
          2   -1    0    0  501    0  0.00000000000E+00  0.00000000000E+00  0.13649423431E+04  0.13649423431E+04  0.00000000000E+00 0.  1.
         -2   -1    0    0    0  501 -0.00000000000E+00 -0.00000000000E+00 -0.15427580322E+04  0.15427580322E+04  0.00000000000E+00 0. -1.
         23    2    1    2    0    0  0.83526721483E+03 -0.10785177306E+04  0.40247859066E+03  0.14252654639E+04  0.92308241115E+02 0.  0.
         13    1    3    3    0    0  0.39836030608E+03 -0.58760935389E+03  0.22023337740E+03  0.74328892549E+03  0.00000000000E+00 0.  1.
        -13    1    3    3    0    0  0.43690690876E+03 -0.49090837669E+03  0.18224521326E+03  0.68197653844E+03  0.00000000000E+00 0. -1.
         22    1    1    2    0    0 -0.83526721483E+03  0.10785177306E+04 -0.58029427974E+03  0.14824349114E+04  0.00000000000E+00 0. -1.
<mgrwt>
<rscale>  0 0.29022583E+04</rscale>
<asrwt>0</asrwt>
<pdfrwt beam="1">  1        2 0.20999113E+00 0.29022583E+04</pdfrwt>
<pdfrwt beam="2">  1       -2 0.23734739E+00 0.29022583E+04</pdfrwt>
<totfact> 0.10063326E+00</totfact>
</mgrwt>
</event>
<event>
 6    1  0.4630212E-004  0.1299571E+04  0.7818608E-02  0.9029906E-01
         -2   -1    0    0    0  501 -0.00000000000E+00  0.00000000000E+00  0.41393822896E+03  0.41393822896E+03  0.00000000000E+00 0. -1.
          2   -1    0    0  501    0  0.00000000000E+00 -0.00000000000E+00 -0.10200096571E+04  0.10200096571E+04  0.00000000000E+00 0.  1.
         23    2    1    2    0    0  0.52445903337E+03 -0.10455482249E+03  0.96269060438E+02  0.55118452565E+03  0.92453559889E+02 0.  0.
         11    1    3    3    0    0  0.19776983240E+03 -0.34398801385E+02  0.81705086166E+02  0.21673002849E+03  0.00000000000E+00 0. -1.
        -11    1    3    3    0    0  0.32668920096E+03 -0.70156021107E+02  0.14563974272E+02  0.33445449716E+03  0.00000000000E+00 0.  1.
         22    1    1    2    0    0 -0.52445903337E+03  0.10455482249E+03 -0.70234048861E+03  0.88276336044E+03  0.00000000000E+00 0.  1.
<mgrwt>
<rscale>  0 0.12995707E+04</rscale>
<asrwt>0</asrwt>
<pdfrwt beam="1">  1        2 0.15692456E+00 0.12995707E+04</pdfrwt>
<pdfrwt beam="2">  1       -2 0.63682804E-01 0.12995707E+04</pdfrwt>
<totfact> 0.54695148E+01</totfact>
</mgrwt>
</event>
<event>
 6    1  0.4630212E-004  0.1148775E+04  0.7818608E-02  0.9158914E-01
          2   -1    0    0  501    0  0.00000000000E+00  0.00000000000E+00  0.12088164733E+04  0.12088164733E+04  0.00000000000E+00 0.  1.
         -2   -1    0    0    0  501 -0.00000000000E+00 -0.00000000000E+00 -0.27292905029E+03  0.27292905029E+03  0.00000000000E+00 0. -1.
         23    2    1    2    0    0 -0.24769672872E+03  0.19721789205E+03  0.10833794811E+04  0.11324569988E+04  0.92191039678E+02 0.  0.
         13    1    3    3    0    0 -0.16808082689E+03  0.88064969270E+02  0.53410980576E+03  0.56681556770E+03  0.00000000000E+00 0. -1.
        -13    1    3    3    0    0 -0.79615901833E+02  0.10915292278E+03  0.54926967531E+03  0.56564143111E+03  0.00000000000E+00 0.  1.
         22    1    1    2    0    0  0.24769672872E+03 -0.19721789205E+03 -0.14749205804E+03  0.34928852479E+03  0.00000000000E+00 0. -1.
<mgrwt>
<rscale>  0 0.11487752E+04</rscale>
<asrwt>0</asrwt>
<pdfrwt beam="1">  1        2 0.18597176E+00 0.11487752E+04</pdfrwt>
<pdfrwt beam="2">  1       -2 0.41989085E-01 0.11487752E+04</pdfrwt>
<totfact> 0.99508881E+01</totfact>
</mgrwt>
</event>
<event>
 6    1  0.4630212E-004  0.3761461E+04  0.7818608E-02  0.8054476E-01
         -2   -1    0    0    0  501 -0.00000000000E+00  0.00000000000E+00  0.18930220851E+04  0.18930220851E+04  0.00000000000E+00 0. -1.
          2   -1    0    0  501    0  0.00000000000E+00 -0.00000000000E+00 -0.18685184514E+04  0.18685184514E+04  0.00000000000E+00 0.  1.
         23    2    1    2    0    0  0.18047352831E+03  0.15761014904E+04 -0.99601040138E+03  0.18752437681E+04  0.88520435661E+02 0.  0.
         13    1    3    3    0    0  0.26572687422E+02  0.51960547016E+03 -0.29631619656E+03  0.59874806111E+03  0.00000000000E+00 0.  1.
        -13    1    3    3    0    0  0.15390084089E+03  0.10564960203E+04 -0.69969420481E+03  0.12764957070E+04  0.00000000000E+00 0. -1.
         22    1    1    2    0    0 -0.18047352831E+03 -0.15761014904E+04  0.10205140351E+04  0.18862967684E+04  0.00000000000E+00 0. -1.
<mgrwt>
<rscale>  0 0.37614607E+04</rscale>
<asrwt>0</asrwt>
<pdfrwt beam="1">  1        2 0.28746438E+00 0.37614607E+04</pdfrwt>
<pdfrwt beam="2">  1       -2 0.29123416E+00 0.37614607E+04</pdfrwt>
<totfact> 0.22865447E-01</totfact>
</mgrwt>
</event>
<event>
 6    1  0.4630212E-004  0.9835224E+03  0.7818608E-02  0.9326804E-01
         -2   -1    0    0    0  501 -0.00000000000E+00  0.00000000000E+00  0.16302748826E+03  0.16302748826E+03  0.00000000000E+00 0. -1.
          2   -1    0    0  501    0  0.00000000000E+00 -0.00000000000E+00 -0.14833637955E+04  0.14833637955E+04  0.00000000000E+00 0.  1.
         23    2    1    2    0    0  0.35935533427E+03 -0.62427897007E+02 -0.12365090055E+03  0.39535592807E+03  0.89349124585E+02 0.  0.
         11    1    3    3    0    0  0.65647183036E+02 -0.32648351434E+02  0.46547757226E+01  0.73465191955E+02  0.00000000000E+00 0. -1.
        -11    1    3    3    0    0  0.29370815123E+03 -0.29779545573E+02 -0.12830567628E+03  0.32189073612E+03  0.00000000000E+00 0.  1.
         22    1    1    2    0    0 -0.35935533427E+03  0.62427897007E+02 -0.11966854067E+04  0.12510353557E+04  0.00000000000E+00 0.  1.
<mgrwt>
<rscale>  0 0.98352239E+03</rscale>
<asrwt>0</asrwt>
<pdfrwt beam="1">  1        2 0.22820981E+00 0.98352239E+03</pdfrwt>
<pdfrwt beam="2">  1       -2 0.25081153E-01 0.98352239E+03</pdfrwt>
<totfact> 0.18469461E+02</totfact>
</mgrwt>
</event>
<event>
 6    1  0.4630212E-004  0.2934089E+04  0.7818608E-02  0.8262807E-01
         -2   -1    0    0    0  501 -0.00000000000E+00  0.00000000000E+00  0.32698998810E+04  0.32698998810E+04  0.00000000000E+00 0. -1.
          2   -1    0    0  501    0  0.00000000000E+00 -0.00000000000E+00 -0.65819116376E+03  0.65819116376E+03  0.00000000000E+00 0.  1.
         23    2    1    2    0    0  0.70603565598E+03  0.12494223518E+04  0.17051529600E+04  0.22306264937E+04  0.92765170849E+02 0.  0.
         11    1    3    3    0    0  0.57637635391E+03  0.10346817518E+04  0.13513608754E+04  0.17969285585E+04  0.00000000000E+00 0. -1.
        -11    1    3    3    0    0  0.12965930207E+03  0.21474060006E+03  0.35379208459E+03  0.43369793526E+03  0.00000000000E+00 0.  1.
         22    1    1    2    0    0 -0.70603565598E+03 -0.12494223518E+04  0.90655575723E+03  0.16974645510E+04  0.00000000000E+00 0. -1.
<mgrwt>
<rscale>  0 0.29340888E+04</rscale>
<asrwt>0</asrwt>
<pdfrwt beam="1">  1        2 0.10126018E+00 0.29340888E+04</pdfrwt>
<pdfrwt beam="2">  1       -2 0.50306151E+00 0.29340888E+04</pdfrwt>
<totfact> 0.59954147E-02</totfact>
</mgrwt>
</event>
<event>
 6    1  0.4630212E-004  0.8321763E+03  0.7818608E-02  0.9514577E-01
          2   -1    0    0  501    0  0.00000000000E+00  0.00000000000E+00  0.19545617257E+04  0.19545617257E+04  0.00000000000E+00 0.  1.
         -2   -1    0    0    0  501 -0.00000000000E+00 -0.00000000000E+00 -0.88577061935E+02  0.88577061935E+02  0.00000000000E+00 0. -1.
         23    2    1    2    0    0  0.25565050165E+03 -0.28725587313E+03  0.13012083708E+04  0.13598779467E+04  0.90838813661E+02 0.  0.
         11    1    3    3    0    0  0.67919474186E+02 -0.72559759525E+02  0.21513602903E+03  0.23698414432E+03  0.00000000000E+00 0.  1.
        -11    1    3    3    0    0  0.18773102747E+03 -0.21469611361E+03  0.10860723418E+04  0.11228938024E+04  0.00000000000E+00 0. -1.
         22    1    1    2    0    0 -0.25565050165E+03  0.28725587313E+03  0.56477629296E+03  0.68326084092E+03  0.00000000000E+00 0.  1.
<mgrwt>
<rscale>  0 0.83217627E+03</rscale>
<asrwt>0</asrwt>
<pdfrwt beam="1">  1        2 0.30070177E+00 0.83217627E+03</pdfrwt>
<pdfrwt beam="2">  1       -2 0.13627242E-01 0.83217627E+03</pdfrwt>
<totfact> 0.29636493E+02</totfact>
</mgrwt>
</event>
<event>
 6    1  0.4630212E-004  0.2265220E+04  0.7818608E-02  0.8491762E-01
         -2   -1    0    0    0  501 -0.00000000000E+00  0.00000000000E+00  0.73381947328E+03  0.73381947328E+03  0.00000000000E+00 0. -1.
          2   -1    0    0  501    0  0.00000000000E+00 -0.00000000000E+00 -0.17481215041E+04  0.17481215041E+04  0.00000000000E+00 0.  1.
         23    2    1    2    0    0 -0.21355247485E+03 -0.51335469257E+03  0.57072253359E+03  0.80222654639E+03  0.93303384144E+02 0.  0.
         13    1    3    3    0    0 -0.88209907223E+02 -0.31078118790E+03  0.29078981977E+03  0.43465463735E+03  0.00000000000E+00 0. -1.
        -13    1    3    3    0    0 -0.12534256762E+03 -0.20257350466E+03  0.27993271382E+03  0.36757190904E+03  0.00000000000E+00 0.  1.
         22    1    1    2    0    0  0.21355247485E+03  0.51335469257E+03 -0.15850245644E+04  0.16797144310E+04  0.00000000000E+00 0.  1.
<mgrwt>
<rscale>  0 0.22652202E+04</rscale>
<asrwt>0</asrwt>
<pdfrwt beam="1">  1        2 0.26894177E+00 0.22652202E+04</pdfrwt>
<pdfrwt beam="2">  1       -2 0.11289531E+00 0.22652202E+04</pdfrwt>
<totfact> 0.51714854E+00</totfact>
</mgrwt>
</event>
<event>
 6    1  0.4630212E-004  0.1354416E+04  0.7818608E-02  0.8987492E-01
          2   -1    0    0  501    0  0.00000000000E+00  0.00000000000E+00  0.41176669194E+03  0.41176669194E+03  0.00000000000E+00 0.  1.
         -2   -1    0    0    0  501 -0.00000000000E+00 -0.00000000000E+00 -0.11137639956E+04  0.11137639956E+04  0.00000000000E+00 0. -1.
         23    2    1    2    0    0 -0.51587047226E+03 -0.35731271520E+03 -0.62972158314E+03  0.89385157566E+03  0.92879741897E+02 0.  0.
         13    1    3    3    0    0 -0.27194343310E+03 -0.24047032936E+03 -0.33737682450E+03  0.49558282034E+03  0.00000000000E+00 0.  1.
        -13    1    3    3    0    0 -0.24392703916E+03 -0.11684238583E+03 -0.29234475864E+03  0.39826875532E+03  0.00000000000E+00 0. -1.
         22    1    1    2    0    0  0.51587047226E+03  0.35731271520E+03 -0.72275720508E+02  0.63167911186E+03  0.00000000000E+00 0.  1.
<mgrwt>
<rscale>  0 0.13544164E+04</rscale>
<asrwt>0</asrwt>
<pdfrwt beam="1">  1        2 0.63348724E-01 0.13544164E+04</pdfrwt>
<pdfrwt beam="2">  1       -2 0.17134830E+00 0.13544164E+04</pdfrwt>
<totfact> 0.15647267E+01</totfact>
</mgrwt>
</event>
<event>
 6    1  0.4630212E-004  0.2889557E+04  0.7818608E-02  0.8275991E-01
          2   -1    0    0  501    0  0.00000000000E+00  0.00000000000E+00  0.13251458648E+04  0.13251458648E+04  0.00000000000E+00 0.  1.
         -2   -1    0    0    0  501 -0.00000000000E+00 -0.00000000000E+00 -0.15752110331E+04  0.15752110331E+04  0.00000000000E+00 0. -1.
         23    2    1    2    0    0  0.39632878256E+03  0.56178401970E+03  0.11486262480E+04  0.13418269922E+04  0.92084910131E+02 0.  0.
         13    1    3    3    0    0  0.27039042021E+03  0.42612571001E+03  0.77453881825E+03  0.92444820355E+03  0.00000000000E+00 0.  1.
        -13    1    3    3    0    0  0.12593836235E+03  0.13565830969E+03  0.37408742978E+03  0.41737878865E+03  0.00000000000E+00 0. -1.
         22    1    1    2    0    0 -0.39632878256E+03 -0.56178401970E+03 -0.13986914163E+04  0.15585299057E+04  0.00000000000E+00 0. -1.
<mgrwt>
<rscale>  0 0.28895566E+04</rscale>
<asrwt>0</asrwt>
<pdfrwt beam="1">  1        2 0.20386859E+00 0.28895566E+04</pdfrwt>
<pdfrwt beam="2">  1       -2 0.24234016E+00 0.28895566E+04</pdfrwt>
<totfact> 0.98918265E-01</totfact>
</mgrwt>
</event>
<event>
 6    1  0.4630212E-004  0.3944748E+04  0.7818608E-02  0.8015786E-01
         -2   -1    0    0    0  501 -0.00000000000E+00  0.00000000000E+00  0.88657797941E+03  0.88657797941E+03  0.00000000000E+00 0. -1.
          2   -1    0    0  501    0  0.00000000000E+00 -0.00000000000E+00 -0.43879496824E+04  0.43879496824E+04  0.00000000000E+00 0.  1.
         23    2    1    2    0    0 -0.22150820684E+03  0.18692131833E+04 -0.25347144760E+04  0.31585290784E+04  0.92220681515E+02 0.  0.
         13    1    3    3    0    0 -0.15386820431E+03  0.13909507728E+04 -0.19479743652E+04  0.23985461439E+04  0.00000000000E+00 0. -1.
        -13    1    3    3    0    0 -0.67640002530E+02  0.47826241051E+03 -0.58674011077E+03  0.75998293456E+03  0.00000000000E+00 0.  1.
         22    1    1    2    0    0  0.22150820684E+03 -0.18692131833E+04 -0.96665722703E+03  0.21159985834E+04  0.00000000000E+00 0. -1.
<mgrwt>
<rscale>  0 0.39447482E+04</rscale>
<asrwt>0</asrwt>
<pdfrwt beam="1">  1        2 0.67506917E+00 0.39447482E+04</pdfrwt>
<pdfrwt beam="2">  1       -2 0.13639662E+00 0.39447482E+04</pdfrwt>
<totfact> 0.47671172E-02</totfact>
</mgrwt>
</event>
<event>
 6    1  0.4630212E-004  0.2225175E+04  0.7818608E-02  0.8508022E-01
          2   -1    0    0  501    0  0.00000000000E+00  0.00000000000E+00  0.34036817164E+04  0.34036817164E+04  0.00000000000E+00 0.  1.
         -2   -1    0    0    0  501 -0.00000000000E+00 -0.00000000000E+00 -0.36368008300E+03  0.36368008300E+03  0.00000000000E+00 0. -1.
         23    2    1    2    0    0 -0.65111265188E+03  0.19542135662E+03  0.30097520971E+04  0.30868823901E+04  0.89988956563E+02 0.  0.
         11    1    3    3    0    0 -0.15251202749E+03  0.75276740691E+01  0.63909976075E+03  0.65708834155E+03  0.00000000000E+00 0.  1.
        -11    1    3    3    0    0 -0.49860062439E+03  0.18789368255E+03  0.23706523363E+04  0.24297940485E+04  0.00000000000E+00 0. -1.
         22    1    1    2    0    0  0.65111265188E+03 -0.19542135662E+03  0.30249536337E+02  0.68047940932E+03  0.00000000000E+00 0. -1.
<mgrwt>
<rscale>  0 0.22251753E+04</rscale>
<asrwt>0</asrwt>
<pdfrwt beam="1">  1        2 0.52364332E+00 0.22251753E+04</pdfrwt>
<pdfrwt beam="2">  1       -2 0.55950784E-01 0.22251753E+04</pdfrwt>
<totfact> 0.26008971E+00</totfact>
</mgrwt>
</event>
<event>
 6    1  0.4630212E-004  0.9547128E+03  0.7818608E-02  0.9359659E-01
         -1   -1    0    0    0  501 -0.00000000000E+00  0.00000000000E+00  0.18448355025E+03  0.18448355025E+03  0.00000000000E+00 0. -1.
          1   -1    0    0  501    0  0.00000000000E+00 -0.00000000000E+00 -0.12351731736E+04  0.12351731736E+04  0.00000000000E+00 0.  1.
         23    2    1    2    0    0  0.21963348589E+02 -0.92662053696E+02 -0.12190575302E+04  0.12262235392E+04  0.91947056839E+02 0.  0.
         13    1    3    3    0    0 -0.26767612369E+02 -0.61094544229E+02 -0.44256167574E+03  0.44755992363E+03  0.00000000000E+00 0.  1.
        -13    1    3    3    0    0  0.48730960958E+02 -0.31567509467E+02 -0.77649585442E+03  0.77866361552E+03  0.00000000000E+00 0. -1.
         22    1    1    2    0    0 -0.21963348589E+02  0.92662053696E+02  0.16836790684E+03  0.19343318466E+03  0.00000000000E+00 0. -1.
<mgrwt>
<rscale>  0 0.95471280E+03</rscale>
<asrwt>0</asrwt>
<pdfrwt beam="1">  1        1 0.19002664E+00 0.95471280E+03</pdfrwt>
<pdfrwt beam="2">  1       -1 0.28382086E-01 0.95471280E+03</pdfrwt>
<totfact> 0.11372062E+02</totfact>
</mgrwt>
</event>
<event>
 6    1  0.4630212E-004  0.1788759E+04  0.7818608E-02  0.8712300E-01
         -2   -1    0    0    0  501 -0.00000000000E+00  0.00000000000E+00  0.55905470047E+03  0.55905470047E+03  0.00000000000E+00 0. -1.
          2   -1    0    0  501    0  0.00000000000E+00 -0.00000000000E+00 -0.14308342201E+04  0.14308342201E+04  0.00000000000E+00 0.  1.
         23    2    1    2    0    0  0.48118050425E+03  0.46406119982E+03  0.22017453137E+03  0.70955649330E+03  0.90033982891E+02 0.  0.
         13    1    3    3    0    0  0.25261524021E+03  0.19888677106E+03  0.72417671147E+02  0.32956748381E+03  0.00000000000E+00 0.  1.
        -13    1    3    3    0    0  0.22856526404E+03  0.26517442875E+03  0.14775686023E+03  0.37998900949E+03  0.00000000000E+00 0. -1.
         22    1    1    2    0    0 -0.48118050425E+03 -0.46406119982E+03 -0.10919540510E+04  0.12803324273E+04  0.00000000000E+00 0.  1.
<mgrwt>
<rscale>  0 0.17887589E+04</rscale>
<asrwt>0</asrwt>
<pdfrwt beam="1">  1        2 0.22012834E+00 0.17887589E+04</pdfrwt>
<pdfrwt beam="2">  1       -2 0.86008416E-01 0.17887589E+04</pdfrwt>
<totfact> 0.15400574E+01</totfact>
</mgrwt>
</event>
<event>
 6    1  0.4630212E-004  0.3307685E+04  0.7818608E-02  0.8160943E-01
          2   -1    0    0  501    0  0.00000000000E+00  0.00000000000E+00  0.11817554091E+04  0.11817554091E+04  0.00000000000E+00 0.  1.
         -2   -1    0    0    0  501 -0.00000000000E+00 -0.00000000000E+00 -0.23145181472E+04  0.23145181472E+04  0.00000000000E+00 0. -1.
         23    2    1    2    0    0 -0.16021846667E+04 -0.15953573170E+02 -0.99459422430E+03  0.18880631345E+04  0.91183915436E+02 0.  0.
         11    1    3    3    0    0 -0.97438675853E+03 -0.23662552014E+02 -0.65434031180E+03  0.11739466407E+04  0.00000000000E+00 0. -1.
        -11    1    3    3    0    0 -0.62779790812E+03  0.77089788438E+01 -0.34025391250E+03  0.71411649384E+03  0.00000000000E+00 0.  1.
         22    1    1    2    0    0  0.16021846667E+04  0.15953573170E+02 -0.13816851387E+03  0.16082104218E+04  0.00000000000E+00 0.  1.
<mgrwt>
<rscale>  0 0.33076846E+04</rscale>
<asrwt>0</asrwt>
<pdfrwt beam="1">  1        2 0.18180853E+00 0.33076846E+04</pdfrwt>
<pdfrwt beam="2">  1       -2 0.35607971E+00 0.33076846E+04</pdfrwt>
<totfact> 0.23077581E-01</totfact>
</mgrwt>
</event>
<event>
 6    1  0.4630212E-004  0.4332976E+04  0.7818608E-02  0.7940549E-01
         -2   -1    0    0    0  501 -0.00000000000E+00  0.00000000000E+00  0.13273095426E+04  0.13273095426E+04  0.00000000000E+00 0. -1.
          2   -1    0    0  501    0  0.00000000000E+00 -0.00000000000E+00 -0.35362287199E+04  0.35362287199E+04  0.00000000000E+00 0.  1.
         23    2    1    2    0    0 -0.63419059214E+02 -0.20584311742E+04 -0.18564427884E+04  0.27741841802E+04  0.92504936355E+02 0.  0.
         13    1    3    3    0    0 -0.85817870538E+02 -0.14068590814E+04 -0.12600158538E+04  0.18905705841E+04  0.00000000000E+00 0.  1.
        -13    1    3    3    0    0  0.22398811324E+02 -0.65157209283E+03 -0.59642693460E+03  0.88361359610E+03  0.00000000000E+00 0. -1.
         22    1    1    2    0    0  0.63419059214E+02  0.20584311742E+04 -0.35247638888E+03  0.20893540822E+04  0.00000000000E+00 0. -1.
<mgrwt>
<rscale>  0 0.43329759E+04</rscale>
<asrwt>0</asrwt>
<pdfrwt beam="1">  1        2 0.54403517E+00 0.43329759E+04</pdfrwt>
<pdfrwt beam="2">  1       -2 0.20420147E+00 0.43329759E+04</pdfrwt>
<totfact> 0.73354873E-02</totfact>
</mgrwt>
</event>
<event>
 6    1  0.4630212E-004  0.4048205E+04  0.7818608E-02  0.7994892E-01
         -2   -1    0    0    0  501 -0.00000000000E+00  0.00000000000E+00  0.96830057031E+03  0.96830057031E+03  0.00000000000E+00 0. -1.
          2   -1    0    0  501    0  0.00000000000E+00 -0.00000000000E+00 -0.42311142863E+04  0.42311142863E+04  0.00000000000E+00 0.  1.
         23    2    1    2    0    0 -0.14680171392E+04  0.93860243908E+03 -0.29525164324E+04  0.34295749588E+04  0.92640460129E+02 0.  0.
         11    1    3    3    0    0 -0.69546143895E+03  0.39134428354E+03 -0.13712767877E+04  0.15865739787E+04  0.00000000000E+00 0.  1.
        -11    1    3    3    0    0 -0.77255570024E+03  0.54725815554E+03 -0.15812396447E+04  0.18430009801E+04  0.00000000000E+00 0. -1.
         22    1    1    2    0    0  0.14680171392E+04 -0.93860243908E+03 -0.31029728356E+03  0.17698398978E+04  0.00000000000E+00 0. -1.
<mgrwt>
<rscale>  0 0.40482047E+04</rscale>
<asrwt>0</asrwt>
<pdfrwt beam="1">  1        2 0.65094067E+00 0.40482047E+04</pdfrwt>
<pdfrwt beam="2">  1       -2 0.14896932E+00 0.40482047E+04</pdfrwt>
<totfact> 0.52108711E-02</totfact>
</mgrwt>
</event>
<event>
 6    1  0.4630212E-004  0.1455360E+04  0.7818608E-02  0.8914693E-01
          2   -1    0    0  501    0  0.00000000000E+00  0.00000000000E+00  0.15868710297E+04  0.15868710297E+04  0.00000000000E+00 0.  1.
         -2   -1    0    0    0  501 -0.00000000000E+00 -0.00000000000E+00 -0.33368702398E+03  0.33368702398E+03  0.00000000000E+00 0. -1.
         23    2    1    2    0    0 -0.17405215893E+03  0.27879367935E+03 -0.22295425300E+03  0.40827361334E+03  0.94650275969E+02 0.  0.
         13    1    3    3    0    0 -0.14048102716E+03  0.16524280531E+03 -0.18151869444E+03  0.28282351411E+03  0.00000000000E+00 0. -1.
        -13    1    3    3    0    0 -0.33571131772E+02  0.11355087404E+03 -0.41435558555E+02  0.12545009923E+03  0.00000000000E+00 0.  1.
         22    1    1    2    0    0  0.17405215893E+03 -0.27879367935E+03  0.14761382587E+04  0.15122844403E+04  0.00000000000E+00 0.  1.
<mgrwt>
<rscale>  0 0.14553601E+04</rscale>
<asrwt>0</asrwt>
<pdfrwt beam="1">  1        2 0.24413400E+00 0.14553601E+04</pdfrwt>
<pdfrwt beam="2">  1       -2 0.51336466E-01 0.14553601E+04</pdfrwt>
<totfact> 0.39413063E+01</totfact>
</mgrwt>
</event>
<event>
 6    1  0.4630212E-004  0.2407120E+04  0.7818608E-02  0.8436843E-01
          2   -1    0    0  501    0  0.00000000000E+00  0.00000000000E+00  0.12561945225E+04  0.12561945225E+04  0.00000000000E+00 0. -1.
         -2   -1    0    0    0  501 -0.00000000000E+00 -0.00000000000E+00 -0.11531312916E+04  0.11531312916E+04  0.00000000000E+00 0.  1.
         23    2    1    2    0    0 -0.77688138948E+03 -0.34775834981E+03  0.90086051301E+03  0.12427234540E+04  0.91276262003E+02 0.  0.
         13    1    3    3    0    0 -0.47391631132E+03 -0.17622512134E+03  0.57751018999E+03  0.76757408963E+03  0.00000000000E+00 0. -1.
        -13    1    3    3    0    0 -0.30296507815E+03 -0.17153322846E+03  0.32335032302E+03  0.47514936435E+03  0.00000000000E+00 0.  1.
         22    1    1    2    0    0  0.77688138948E+03  0.34775834981E+03 -0.79779728218E+03  0.11666023601E+04  0.00000000000E+00 0.  1.
<mgrwt>
<rscale>  0 0.24071204E+04</rscale>
<asrwt>0</asrwt>
<pdfrwt beam="1">  1        2 0.19326070E+00 0.24071204E+04</pdfrwt>
<pdfrwt beam="2">  1       -2 0.17740481E+00 0.24071204E+04</pdfrwt>
<totfact> 0.29794559E+00</totfact>
</mgrwt>
</event>
<event>
 6    1  0.4630212E-004  0.1500119E+04  0.7818608E-02  0.8884374E-01
         -2   -1    0    0    0  501 -0.00000000000E+00  0.00000000000E+00  0.10021334629E+04  0.10021334629E+04  0.00000000000E+00 0. -1.
          2   -1    0    0  501    0  0.00000000000E+00 -0.00000000000E+00 -0.56139178601E+03  0.56139178601E+03  0.00000000000E+00 0.  1.
         23    2    1    2    0    0 -0.36692671841E+03 -0.29722373621E+03 -0.38261640719E+03  0.61436999254E+03  0.89877731570E+02 0.  0.
         11    1    3    3    0    0 -0.17813228993E+03 -0.18718050735E+03 -0.16882037048E+03  0.30865510289E+03  0.00000000000E+00 0. -1.
        -11    1    3    3    0    0 -0.18879442848E+03 -0.11004322886E+03 -0.21379603672E+03  0.30571488966E+03  0.00000000000E+00 0.  1.
         22    1    1    2    0    0  0.36692671841E+03  0.29722373621E+03  0.82335808408E+03  0.94915525636E+03  0.00000000000E+00 0. -1.
<mgrwt>
<rscale>  0 0.15001193E+04</rscale>
<asrwt>0</asrwt>
<pdfrwt beam="1">  1        2 0.86367967E-01 0.15001193E+04</pdfrwt>
<pdfrwt beam="2">  1       -2 0.15417438E+00 0.15001193E+04</pdfrwt>
<totfact> 0.14443255E+01</totfact>
</mgrwt>
</event>
<event>
 6    1  0.4630212E-004  0.4067357E+04  0.7818608E-02  0.7991095E-01
         -2   -1    0    0    0  501 -0.00000000000E+00  0.00000000000E+00  0.18936188752E+04  0.18936188752E+04  0.00000000000E+00 0. -1.
          2   -1    0    0  501    0  0.00000000000E+00 -0.00000000000E+00 -0.21840972645E+04  0.21840972645E+04  0.00000000000E+00 0.  1.
         23    2    1    2    0    0  0.21634188607E+03  0.17489029614E+04 -0.11609510510E+04  0.21122167032E+04  0.90480266292E+02 0.  0.
         11    1    3    3    0    0  0.18554294874E+03  0.15385852399E+04 -0.98492029089E+03  0.18362294807E+04  0.00000000000E+00 0. -1.
        -11    1    3    3    0    0  0.30798937338E+02  0.21031772146E+03 -0.17603076015E+03  0.27598722257E+03  0.00000000000E+00 0.  1.
         22    1    1    2    0    0 -0.21634188607E+03 -0.17489029614E+04  0.87047266175E+03  0.19654994365E+04  0.00000000000E+00 0. -1.
<mgrwt>
<rscale>  0 0.40673568E+04</rscale>
<asrwt>0</asrwt>
<pdfrwt beam="1">  1        2 0.33601496E+00 0.40673568E+04</pdfrwt>
<pdfrwt beam="2">  1       -2 0.29132598E+00 0.40673568E+04</pdfrwt>
<totfact> 0.14854264E-01</totfact>
</mgrwt>
</event>
<event>
 6    1  0.4630212E-004  0.1460170E+04  0.7818608E-02  0.8911380E-01
         -2   -1    0    0    0  501 -0.00000000000E+00  0.00000000000E+00  0.12087829796E+04  0.12087829796E+04  0.00000000000E+00 0. -1.
          2   -1    0    0  501    0  0.00000000000E+00 -0.00000000000E+00 -0.44095922464E+03  0.44095922464E+03  0.00000000000E+00 0.  1.
         23    2    1    2    0    0  0.26383047066E+03  0.21133352341E+03  0.11125742517E+04  0.11669158583E+04  0.97993772565E+02 0.  0.
         13    1    3    3    0    0  0.78343629785E+02  0.33910784224E+02  0.17306554634E+03  0.19297499565E+03  0.00000000000E+00 0. -1.
        -13    1    3    3    0    0  0.18548684088E+03  0.17742273918E+03  0.93950870535E+03  0.97394086265E+03  0.00000000000E+00 0.  1.
         22    1    1    2    0    0 -0.26383047066E+03 -0.21133352341E+03 -0.34475049672E+03  0.48282634596E+03  0.00000000000E+00 0.  1.
<mgrwt>
<rscale>  0 0.14601699E+04</rscale>
<asrwt>0</asrwt>
<pdfrwt beam="1">  1        2 0.67839881E-01 0.14601699E+04</pdfrwt>
<pdfrwt beam="2">  1       -2 0.18596661E+00 0.14601699E+04</pdfrwt>
<totfact> 0.11371048E+01</totfact>
</mgrwt>
</event>
<event>
 6    1  0.4630212E-004  0.2945547E+04  0.7818608E-02  0.8259454E-01
         -1   -1    0    0    0  501 -0.00000000000E+00  0.00000000000E+00  0.91070685265E+03  0.91070685265E+03  0.00000000000E+00 0. -1.
          1   -1    0    0  501    0  0.00000000000E+00 -0.00000000000E+00 -0.23817338650E+04  0.23817338650E+04  0.00000000000E+00 0.  1.
         23    2    1    2    0    0  0.93987502626E+02  0.92427843799E+03 -0.20115595204E+04  0.22175920429E+04  0.90655848405E+02 0.  0.
         11    1    3    3    0    0  0.70950344076E+02  0.49203197948E+03 -0.11701394905E+04  0.12713598418E+04  0.00000000000E+00 0. -1.
        -11    1    3    3    0    0  0.23037158550E+02  0.43224645852E+03 -0.84142002988E+03  0.94623220103E+03  0.00000000000E+00 0.  1.
         22    1    1    2    0    0 -0.93987502626E+02 -0.92427843799E+03  0.54053250801E+03  0.10748486748E+04  0.00000000000E+00 0. -1.
<mgrwt>
<rscale>  0 0.29455467E+04</rscale>
<asrwt>0</asrwt>
<pdfrwt beam="1">  1        1 0.36642059E+00 0.29455467E+04</pdfrwt>
<pdfrwt beam="2">  1       -1 0.14010875E+00 0.29455467E+04</pdfrwt>
<totfact> 0.58474644E-01</totfact>
</mgrwt>
</event>
<event>
 6    1  0.4630212E-004  0.2705019E+04  0.7818608E-02  0.8333378E-01
          2   -1    0    0  501    0  0.00000000000E+00  0.00000000000E+00  0.16631253623E+04  0.16631253623E+04  0.00000000000E+00 0.  1.
         -2   -1    0    0    0  501 -0.00000000000E+00 -0.00000000000E+00 -0.10999065606E+04  0.10999065606E+04  0.00000000000E+00 0. -1.
         23    2    1    2    0    0 -0.65922685896E+01  0.43377932657E+03  0.15888074870E+04  0.16494610390E+04  0.90578839182E+02 0.  0.
         11    1    3    3    0    0  0.39822584877E+02  0.27062005771E+03  0.97355197037E+03  0.10112489767E+04  0.00000000000E+00 0. -1.
        -11    1    3    3    0    0 -0.46414853467E+02  0.16315926886E+03  0.61525551664E+03  0.63821206225E+03  0.00000000000E+00 0.  1.
         22    1    1    2    0    0  0.65922685896E+01 -0.43377932657E+03 -0.10255886853E+04  0.11135708840E+04  0.00000000000E+00 0. -1.
<mgrwt>
<rscale>  0 0.27050194E+04</rscale>
<asrwt>0</asrwt>
<pdfrwt beam="1">  1        2 0.25586544E+00 0.27050194E+04</pdfrwt>
<pdfrwt beam="2">  1       -2 0.16921639E+00 0.27050194E+04</pdfrwt>
<totfact> 0.19469601E+00</totfact>
</mgrwt>
</event>
<event>
 6    1  0.4630212E-004  0.2807287E+04  0.7818608E-02  0.8301009E-01
         -2   -1    0    0    0  501 -0.00000000000E+00  0.00000000000E+00  0.59602365721E+03  0.59602365721E+03  0.00000000000E+00 0. -1.
          2   -1    0    0  501    0  0.00000000000E+00 -0.00000000000E+00 -0.33055997157E+04  0.33055997157E+04  0.00000000000E+00 0.  1.
         23    2    1    2    0    0 -0.81991995521E+03 -0.80515049279E+03 -0.24727359555E+04  0.27283249099E+04  0.93795837452E+02 0.  0.
         11    1    3    3    0    0 -0.43174549252E+03 -0.35838240405E+03 -0.12100975189E+04  0.13338583595E+04  0.00000000000E+00 0. -1.
        -11    1    3    3    0    0 -0.38817446269E+03 -0.44676808874E+03 -0.12626384366E+04  0.13944665504E+04  0.00000000000E+00 0.  1.
         22    1    1    2    0    0  0.81991995521E+03  0.80515049279E+03 -0.23684010296E+03  0.11732984630E+04  0.00000000000E+00 0. -1.
<mgrwt>
<rscale>  0 0.28072874E+04</rscale>
<asrwt>0</asrwt>
<pdfrwt beam="1">  1        2 0.50855380E+00 0.28072874E+04</pdfrwt>
<pdfrwt beam="2">  1       -2 0.91695947E-01 0.28072874E+04</pdfrwt>
<totfact> 0.97164010E-01</totfact>
</mgrwt>
</event>
<event>
 6    1  0.4630212E-004  0.2792711E+04  0.7818608E-02  0.8305535E-01
          2   -1    0    0  501    0  0.00000000000E+00  0.00000000000E+00  0.19413786096E+04  0.19413786096E+04  0.00000000000E+00 0.  1.
         -2   -1    0    0    0  501 -0.00000000000E+00 -0.00000000000E+00 -0.10043425887E+04  0.10043425887E+04  0.00000000000E+00 0. -1.
         23    2    1    2    0    0  0.80909437288E+03  0.64459290642E+03  0.14559870000E+04  0.17883777584E+04  0.90901833831E+02 0.  0.
         11    1    3    3    0    0  0.29609766755E+03  0.29276553131E+03  0.57969558938E+03  0.71374537575E+03  0.00000000000E+00 0.  1.
        -11    1    3    3    0    0  0.51299670533E+03  0.35182737511E+03  0.87629141062E+03  0.10746323827E+04  0.00000000000E+00 0. -1.
         22    1    1    2    0    0 -0.80909437288E+03 -0.64459290642E+03 -0.51895097904E+03  0.11573434399E+04  0.00000000000E+00 0. -1.
<mgrwt>
<rscale>  0 0.27927114E+04</rscale>
<asrwt>0</asrwt>
<pdfrwt beam="1">  1        2 0.29867363E+00 0.27927114E+04</pdfrwt>
<pdfrwt beam="2">  1       -2 0.15451424E+00 0.27927114E+04</pdfrwt>
<totfact> 0.17361600E+00</totfact>
</mgrwt>
</event>
<event>
 6    1  0.4630212E-004  0.2824090E+04  0.7818608E-02  0.8295828E-01
          2   -1    0    0  501    0  0.00000000000E+00  0.00000000000E+00  0.16015028581E+04  0.16015028581E+04  0.00000000000E+00 0.  1.
         -2   -1    0    0    0  501 -0.00000000000E+00 -0.00000000000E+00 -0.12450000683E+04  0.12450000683E+04  0.00000000000E+00 0. -1.
         23    2    1    2    0    0 -0.51394726617E+03  0.60035919081E+03 -0.99926305131E+03  0.12772120144E+04  0.90393216238E+02 0.  0.
         13    1    3    3    0    0 -0.20012686156E+03  0.17312586408E+03 -0.30728831737E+03  0.40552365593E+03  0.00000000000E+00 0.  1.
        -13    1    3    3    0    0 -0.31382040462E+03  0.42723332674E+03 -0.69197473394E+03  0.87168835844E+03  0.00000000000E+00 0. -1.
         22    1    1    2    0    0  0.51394726617E+03 -0.60035919081E+03  0.13557658411E+04  0.15692909120E+04  0.00000000000E+00 0.  1.
<mgrwt>
<rscale>  0 0.28240901E+04</rscale>
<asrwt>0</asrwt>
<pdfrwt beam="1">  1        2 0.24638506E+00 0.28240901E+04</pdfrwt>
<pdfrwt beam="2">  1       -2 0.19153847E+00 0.28240901E+04</pdfrwt>
<totfact> 0.14632818E+00</totfact>
</mgrwt>
</event>
<event>
 6    1  0.4630212E-004  0.1444538E+04  0.7818608E-02  0.8922196E-01
         -2   -1    0    0    0  501 -0.00000000000E+00  0.00000000000E+00  0.80882289554E+03  0.80882289554E+03  0.00000000000E+00 0. -1.
          2   -1    0    0  501    0  0.00000000000E+00 -0.00000000000E+00 -0.64497702461E+03  0.64497702461E+03  0.00000000000E+00 0.  1.
         23    2    1    2    0    0  0.33121959312E+03 -0.22140328327E+03  0.68503112526E+03  0.79778170238E+03  0.91990050328E+02 0.  0.
         13    1    3    3    0    0  0.13175833882E+03 -0.39401872736E+02  0.26248103672E+03  0.29632593889E+03  0.00000000000E+00 0. -1.
        -13    1    3    3    0    0  0.19946125430E+03 -0.18200141053E+03  0.42255008855E+03  0.50145576349E+03  0.00000000000E+00 0.  1.
         22    1    1    2    0    0 -0.33121959312E+03  0.22140328327E+03 -0.52118525434E+03  0.65601821777E+03  0.00000000000E+00 0.  1.
<mgrwt>
<rscale>  0 0.14445376E+04</rscale>
<asrwt>0</asrwt>
<pdfrwt beam="1">  1        2 0.99227235E-01 0.14445376E+04</pdfrwt>
<pdfrwt beam="2">  1       -2 0.12443429E+00 0.14445376E+04</pdfrwt>
<totfact> 0.21353742E+01</totfact>
</mgrwt>
</event>
<event>
 6    1  0.4630212E-004  0.3784028E+04  0.7818608E-02  0.8049591E-01
         -2   -1    0    0    0  501 -0.00000000000E+00  0.00000000000E+00  0.13777706965E+04  0.13777706965E+04  0.00000000000E+00 0. -1.
          2   -1    0    0  501    0  0.00000000000E+00 -0.00000000000E+00 -0.25981949368E+04  0.25981949368E+04  0.00000000000E+00 0.  1.
         23    2    1    2    0    0  0.44615570415E+03  0.15843844407E+04  0.36723016169E+03  0.16890516716E+04  0.93319823201E+02 0.  0.
         13    1    3    3    0    0  0.19991764166E+03  0.81549908721E+03  0.14945752561E+03  0.85284428629E+03  0.00000000000E+00 0.  1.
        -13    1    3    3    0    0  0.24623806249E+03  0.76888535351E+03  0.21777263609E+03  0.83620738533E+03  0.00000000000E+00 0. -1.
         22    1    1    2    0    0 -0.44615570415E+03 -0.15843844407E+04 -0.15876544020E+04  0.22869139617E+04  0.00000000000E+00 0.  1.
<mgrwt>
<rscale>  0 0.37840279E+04</rscale>
<asrwt>0</asrwt>
<pdfrwt beam="1">  1        2 0.39972230E+00 0.37840279E+04</pdfrwt>
<pdfrwt beam="2">  1       -2 0.21196472E+00 0.37840279E+04</pdfrwt>
<totfact> 0.27238476E-01</totfact>
</mgrwt>
</event>
<event>
 6    1  0.4630212E-004  0.5386834E+04  0.7818608E-02  0.7771456E-01
         -2   -1    0    0    0  501 -0.00000000000E+00  0.00000000000E+00  0.21226780442E+04  0.21226780442E+04  0.00000000000E+00 0. -1.
          2   -1    0    0  501    0  0.00000000000E+00 -0.00000000000E+00 -0.34176138384E+04  0.34176138384E+04  0.00000000000E+00 0.  1.
         23    2    1    2    0    0  0.16317750342E+04  0.70288461714E+03 -0.27286158675E+04  0.32572730260E+04  0.88014009472E+02 0.  0.
         11    1    3    3    0    0  0.13684487843E+03  0.81103247608E+02 -0.21813479420E+03  0.26997600998E+03  0.00000000000E+00 0.  1.
        -11    1    3    3    0    0  0.14949301558E+04  0.62178136953E+03 -0.25104810733E+04  0.29872970160E+04  0.00000000000E+00 0. -1.
         22    1    1    2    0    0 -0.16317750342E+04 -0.70288461714E+03  0.14336800733E+04  0.22830188566E+04  0.00000000000E+00 0. -1.
<mgrwt>
<rscale>  0 0.53868335E+04</rscale>
<asrwt>0</asrwt>
<pdfrwt beam="1">  1        2 0.52578674E+00 0.53868335E+04</pdfrwt>
<pdfrwt beam="2">  1       -2 0.32656586E+00 0.53868335E+04</pdfrwt>
<totfact> 0.14251719E-02</totfact>
</mgrwt>
</event>
<event>
 6    1  0.4630212E-004  0.1830639E+04  0.7818608E-02  0.8690173E-01
          2   -1    0    0  501    0  0.00000000000E+00  0.00000000000E+00  0.15625398698E+04  0.15625398698E+04  0.00000000000E+00 0.  1.
         -2   -1    0    0    0  501 -0.00000000000E+00 -0.00000000000E+00 -0.53618474894E+03  0.53618474894E+03  0.00000000000E+00 0. -1.
         23    2    1    2    0    0 -0.46303750972E+03 -0.55666066437E+03  0.11521435030E+04  0.13638113261E+04  0.90949717176E+02 0.  0.
         13    1    3    3    0    0 -0.73373929281E+02 -0.78310586717E+02  0.11711577823E+03  0.15884705537E+03  0.00000000000E+00 0.  1.
        -13    1    3    3    0    0 -0.38966358044E+03 -0.47835007766E+03  0.10350277247E+04  0.12049642707E+04  0.00000000000E+00 0. -1.
         22    1    1    2    0    0  0.46303750972E+03  0.55666066437E+03 -0.12578838210E+03  0.73491329267E+03  0.00000000000E+00 0. -1.
<mgrwt>
<rscale>  0 0.18306393E+04</rscale>
<asrwt>0</asrwt>
<pdfrwt beam="1">  1        2 0.24039075E+00 0.18306393E+04</pdfrwt>
<pdfrwt beam="2">  1       -2 0.82489962E-01 0.18306393E+04</pdfrwt>
<totfact> 0.14217557E+01</totfact>
</mgrwt>
</event>
<event>
 6    1  0.4630212E-004  0.1884360E+04  0.7818608E-02  0.8662681E-01
         -2   -1    0    0    0  501 -0.00000000000E+00  0.00000000000E+00  0.20962537642E+03  0.20962537642E+03  0.00000000000E+00 0. -1.
          2   -1    0    0  501    0  0.00000000000E+00 -0.00000000000E+00 -0.42347142876E+04  0.42347142876E+04  0.00000000000E+00 0.  1.
         23    2    1    2    0    0 -0.82047718182E+02 -0.79312215894E+03 -0.31914676990E+04  0.32907804274E+04  0.89415660545E+02 0.  0.
         13    1    3    3    0    0 -0.16576184357E+01 -0.44755207526E+03 -0.17804596907E+04  0.18358492090E+04  0.00000000000E+00 0. -1.
        -13    1    3    3    0    0 -0.80390099746E+02 -0.34557008368E+03 -0.14110080083E+04  0.14549312184E+04  0.00000000000E+00 0.  1.
         22    1    1    2    0    0  0.82047718182E+02  0.79312215894E+03 -0.83362121217E+03  0.11535592366E+04  0.00000000000E+00 0. -1.
<mgrwt>
<rscale>  0 0.18843605E+04</rscale>
<asrwt>0</asrwt>
<pdfrwt beam="1">  1        2 0.65149446E+00 0.18843605E+04</pdfrwt>
<pdfrwt beam="2">  1       -2 0.32250060E-01 0.18843605E+04</pdfrwt>
<totfact> 0.18494170E+00</totfact>
</mgrwt>
</event>
<event>
 6    1  0.4630212E-004  0.1680807E+04  0.7818608E-02  0.8772387E-01
          2   -1    0    0  501    0  0.00000000000E+00  0.00000000000E+00  0.36111376114E+04  0.36111376114E+04  0.00000000000E+00 0.  1.
         -2   -1    0    0    0  501 -0.00000000000E+00 -0.00000000000E+00 -0.19558336274E+03  0.19558336274E+03  0.00000000000E+00 0. -1.
         23    2    1    2    0    0  0.33549497579E+02  0.67734902697E+03  0.28271925457E+04  0.29088920558E+04  0.93316818347E+02 0.  0.
         11    1    3    3    0    0  0.50628096196E+02  0.23846591338E+03  0.11054066966E+04  0.11319687102E+04  0.00000000000E+00 0. -1.
        -11    1    3    3    0    0 -0.17078598617E+02  0.43888311360E+03  0.17217858491E+04  0.17769233456E+04  0.00000000000E+00 0.  1.
         22    1    1    2    0    0 -0.33549497579E+02 -0.67734902697E+03  0.58836170293E+03  0.89782891834E+03  0.00000000000E+00 0. -1.
<mgrwt>
<rscale>  0 0.16808075E+04</rscale>
<asrwt>0</asrwt>
<pdfrwt beam="1">  1        2 0.55555958E+00 0.16808075E+04</pdfrwt>
<pdfrwt beam="2">  1       -2 0.30089751E-01 0.16808075E+04</pdfrwt>
<totfact> 0.66643405E+00</totfact>
</mgrwt>
</event>
<event>
 6    1  0.4972900E-004  0.3333152E+04  0.7818608E-02  0.8154511E-01
          1   -1    0    0  501    0  0.00000000000E+00  0.00000000000E+00  0.17065837030E+04  0.17065837030E+04  0.00000000000E+00 0.  1.
         -1   -1    0    0    0  501 -0.00000000000E+00 -0.00000000000E+00 -0.16275064160E+04  0.16275064160E+04  0.00000000000E+00 0. -1.
         23    2    1    2    0    0  0.16332640282E+04  0.26842628937E+03 -0.14365070557E+03  0.16639967632E+04  0.92981955786E+02 0.  0.
         13    1    3    3    0    0  0.87000665692E+03  0.16790696018E+03 -0.11632156036E+03  0.89366382704E+03  0.00000000000E+00 0.  1.
        -13    1    3    3    0    0  0.76325737124E+03  0.10051932919E+03 -0.27329145212E+02  0.77033293612E+03  0.00000000000E+00 0. -1.
         22    1    1    2    0    0 -0.16332640282E+04 -0.26842628937E+03  0.22272799255E+03  0.16700933558E+04  0.00000000000E+00 0. -1.
<mgrwt>
<rscale>  0 0.33331522E+04</rscale>
<asrwt>0</asrwt>
<pdfrwt beam="1">  1        1 0.26255134E+00 0.33331522E+04</pdfrwt>
<pdfrwt beam="2">  1       -1 0.25038560E+00 0.33331522E+04</pdfrwt>
<totfact> 0.27050452E-01</totfact>
</mgrwt>
</event>
<event>
 6    1  0.4630212E-004  0.2165551E+04  0.7818608E-02  0.8532905E-01
         -2   -1    0    0    0  501 -0.00000000000E+00  0.00000000000E+00  0.12041897973E+04  0.12041897973E+04  0.00000000000E+00 0. -1.
          2   -1    0    0  501    0  0.00000000000E+00 -0.00000000000E+00 -0.97360254355E+03  0.97360254355E+03  0.00000000000E+00 0.  1.
         23    2    1    2    0    0  0.78832350004E+03 -0.24122509464E+03  0.81836569398E+03  0.11653067944E+04  0.92596052333E+02 0.  0.
         13    1    3    3    0    0  0.14435171781E+03 -0.82584067721E+01  0.13344768213E+03  0.19675849050E+03  0.00000000000E+00 0.  1.
        -13    1    3    3    0    0  0.64397178222E+03 -0.23296668787E+03  0.68491801185E+03  0.96854830386E+03  0.00000000000E+00 0. -1.
         22    1    1    2    0    0 -0.78832350004E+03  0.24122509464E+03 -0.58777844025E+03  0.10124855465E+04  0.00000000000E+00 0.  1.
<mgrwt>
<rscale>  0 0.21655505E+04</rscale>
<asrwt>0</asrwt>
<pdfrwt beam="1">  1        2 0.14978501E+00 0.21655505E+04</pdfrwt>
<pdfrwt beam="2">  1       -2 0.18525997E+00 0.21655505E+04</pdfrwt>
<totfact> 0.40064437E+00</totfact>
</mgrwt>
</event>
<event>
 6    1  0.4630212E-004  0.2409131E+04  0.7818608E-02  0.8436093E-01
          2   -1    0    0  501    0  0.00000000000E+00  0.00000000000E+00  0.16621949334E+04  0.16621949334E+04  0.00000000000E+00 0.  1.
         -2   -1    0    0    0  501 -0.00000000000E+00 -0.00000000000E+00 -0.87292886043E+03  0.87292886043E+03  0.00000000000E+00 0. -1.
         23    2    1    2    0    0  0.84349756960E+03  0.77609426991E+03  0.77831863514E+03  0.13888558007E+04  0.96592296225E+02 0.  0.
         13    1    3    3    0    0  0.63187537178E+03  0.52635861779E+03  0.53715921821E+03  0.98227282651E+03  0.00000000000E+00 0. -1.
        -13    1    3    3    0    0  0.21162219782E+03  0.24973565212E+03  0.24115941693E+03  0.40658297422E+03  0.00000000000E+00 0.  1.
         22    1    1    2    0    0 -0.84349756960E+03 -0.77609426991E+03  0.10947437862E+02  0.11462679931E+04  0.00000000000E+00 0. -1.
<mgrwt>
<rscale>  0 0.24091309E+04</rscale>
<asrwt>0</asrwt>
<pdfrwt beam="1">  1        2 0.25572230E+00 0.24091309E+04</pdfrwt>
<pdfrwt beam="2">  1       -2 0.13429675E+00 0.24091309E+04</pdfrwt>
<totfact> 0.36988747E+00</totfact>
</mgrwt>
</event>
<event>
 6    1  0.4630212E-004  0.1819902E+04  0.7818608E-02  0.8695787E-01
          2   -1    0    0  501    0  0.00000000000E+00  0.00000000000E+00  0.30215688911E+04  0.30215688911E+04  0.00000000000E+00 0.  1.
         -2   -1    0    0    0  501 -0.00000000000E+00 -0.00000000000E+00 -0.27403339304E+03  0.27403339304E+03  0.00000000000E+00 0. -1.
         23    2    1    2    0    0 -0.72992174662E+03  0.36785811919E+03  0.20918062075E+04  0.22477061755E+04  0.91785018274E+02 0.  0.
         11    1    3    3    0    0 -0.48017129198E+03  0.21182522252E+03  0.14328839337E+04  0.15259720711E+04  0.00000000000E+00 0.  1.
        -11    1    3    3    0    0 -0.24975045464E+03  0.15603289667E+03  0.65892227385E+03  0.72173410438E+03  0.00000000000E+00 0. -1.
         22    1    1    2    0    0  0.72992174662E+03 -0.36785811919E+03  0.65572929059E+03  0.10478961087E+04  0.00000000000E+00 0. -1.
<mgrwt>
<rscale>  0 0.18199019E+04</rscale>
<asrwt>0</asrwt>
<pdfrwt beam="1">  1        2 0.46485673E+00 0.18199019E+04</pdfrwt>
<pdfrwt beam="2">  1       -2 0.42158986E-01 0.18199019E+04</pdfrwt>
<totfact> 0.85149748E+00</totfact>
</mgrwt>
</event>
<event>
 6    1  0.4630212E-004  0.4933555E+03  0.7818608E-02  0.1015528E+00
         -1   -1    0    0    0  501 -0.00000000000E+00  0.00000000000E+00  0.19665195626E+03  0.19665195626E+03  0.00000000000E+00 0.  1.
          1   -1    0    0  501    0  0.00000000000E+00 -0.00000000000E+00 -0.30942944845E+03  0.30942944845E+03  0.00000000000E+00 0. -1.
         23    2    1    2    0    0 -0.11541924582E+03 -0.77941953155E+02 -0.25683153315E+03  0.30571145415E+03  0.90002813337E+02 0.  0.
         11    1    3    3    0    0 -0.12481231227E+03 -0.47154617519E+02 -0.21282079911E+03  0.25118591478E+03  0.00000000000E+00 0.  1.
        -11    1    3    3    0    0  0.93930664517E+01 -0.30787335635E+02 -0.44010734042E+02  0.54525539372E+02  0.00000000000E+00 0. -1.
         22    1    1    2    0    0  0.11541924582E+03  0.77941953155E+02  0.14405404097E+03  0.20036995056E+03  0.00000000000E+00 0.  1.
<mgrwt>
<rscale>  0 0.49335548E+03</rscale>
<asrwt>0</asrwt>
<pdfrwt beam="1">  1        1 0.47604530E-01 0.49335548E+03</pdfrwt>
<pdfrwt beam="2">  1       -1 0.30254147E-01 0.49335548E+03</pdfrwt>
<totfact> 0.85036701E+02</totfact>
</mgrwt>
</event>
<event>
 6    1  0.4630212E-004  0.5859646E+03  0.7818608E-02  0.9934961E-01
          2   -1    0    0  501    0  0.00000000000E+00  0.00000000000E+00  0.17263450018E+04  0.17263450018E+04  0.00000000000E+00 0.  1.
         -2   -1    0    0    0  501 -0.00000000000E+00 -0.00000000000E+00 -0.49722749178E+02  0.49722749178E+02  0.00000000000E+00 0. -1.
         23    2    1    2    0    0  0.25321633854E+02 -0.24754643829E+03  0.43140076289E+03  0.50622642910E+03  0.90764282880E+02 0.  0.
         13    1    3    3    0    0 -0.27921898437E+02 -0.15326845377E+03  0.27373431321E+03  0.31496241928E+03  0.00000000000E+00 0. -1.
        -13    1    3    3    0    0  0.53243532291E+02 -0.94277984526E+02  0.15766644968E+03  0.19126400982E+03  0.00000000000E+00 0.  1.
         22    1    1    2    0    0 -0.25321633854E+02  0.24754643829E+03  0.12452214897E+04  0.12698413219E+04  0.00000000000E+00 0.  1.
<mgrwt>
<rscale>  0 0.58596457E+03</rscale>
<asrwt>0</asrwt>
<pdfrwt beam="1">  1        2 0.26559149E+00 0.58596457E+03</pdfrwt>
<pdfrwt beam="2">  1       -2 0.76496550E-02 0.58596457E+03</pdfrwt>
<totfact> 0.10275071E+03</totfact>
</mgrwt>
</event>
<event>
 6    1  0.4630212E-004  0.1844735E+04  0.7818608E-02  0.8682865E-01
         -2   -1    0    0    0  501 -0.00000000000E+00  0.00000000000E+00  0.10596810529E+04  0.10596810529E+04  0.00000000000E+00 0. -1.
          2   -1    0    0  501    0  0.00000000000E+00 -0.00000000000E+00 -0.80284709126E+03  0.80284709126E+03  0.00000000000E+00 0.  1.
         23    2    1    2    0    0  0.16741816021E+02  0.77860232017E+03 -0.36615357489E+03  0.86522411225E+03  0.89679778309E+02 0.  0.
         11    1    3    3    0    0 -0.26390276723E+02  0.52593619104E+03 -0.22551108223E+03  0.57285301078E+03  0.00000000000E+00 0.  1.
        -11    1    3    3    0    0  0.43132092743E+02  0.25266612913E+03 -0.14064249265E+03  0.29237110147E+03  0.00000000000E+00 0. -1.
         22    1    1    2    0    0 -0.16741816021E+02 -0.77860232017E+03  0.62298753650E+03  0.99730403189E+03  0.00000000000E+00 0. -1.
<mgrwt>
<rscale>  0 0.18447350E+04</rscale>
<asrwt>0</asrwt>
<pdfrwt beam="1">  1        2 0.12351494E+00 0.18447350E+04</pdfrwt>
<pdfrwt beam="2">  1       -2 0.16302785E+00 0.18447350E+04</pdfrwt>
<totfact> 0.77139873E+00</totfact>
</mgrwt>
</event>
<event>
 6    1  0.4630212E-004  0.3099829E+04  0.7818608E-02  0.8215785E-01
          2   -1    0    0  501    0  0.00000000000E+00  0.00000000000E+00  0.12812238882E+04  0.12812238882E+04  0.00000000000E+00 0.  1.
         -2   -1    0    0    0  501 -0.00000000000E+00 -0.00000000000E+00 -0.18749537485E+04  0.18749537485E+04  0.00000000000E+00 0. -1.
         23    2    1    2    0    0 -0.66065136562E+03  0.15319121009E+03 -0.17146027757E+04  0.18461074607E+04  0.91226662995E+02 0.  0.
         13    1    3    3    0    0 -0.50908163089E+03  0.99614898955E+02 -0.13955803600E+04  0.14888692945E+04  0.00000000000E+00 0. -1.
        -13    1    3    3    0    0 -0.15156973473E+03  0.53576311132E+02 -0.31902241576E+03  0.35723816616E+03  0.00000000000E+00 0.  1.
         22    1    1    2    0    0  0.66065136562E+03 -0.15319121009E+03  0.11208729154E+04  0.13100701761E+04  0.00000000000E+00 0.  1.
<mgrwt>
<rscale>  0 0.30998294E+04</rscale>
<asrwt>0</asrwt>
<pdfrwt beam="1">  1        2 0.19711137E+00 0.30998294E+04</pdfrwt>
<pdfrwt beam="2">  1       -2 0.28845442E+00 0.30998294E+04</pdfrwt>
<totfact> 0.53826363E-01</totfact>
</mgrwt>
</event>
<event>
 6    1  0.4630212E-004  0.1692917E+04  0.7818608E-02  0.8765414E-01
         -2   -1    0    0    0  501 -0.00000000000E+00  0.00000000000E+00  0.38775469772E+03  0.38775469772E+03  0.00000000000E+00 0. -1.
          2   -1    0    0  501    0  0.00000000000E+00 -0.00000000000E+00 -0.18477969084E+04  0.18477969084E+04  0.00000000000E+00 0.  1.
         23    2    1    2    0    0 -0.65700679851E+03 -0.25315262794E+03 -0.13466532542E+04  0.15223887623E+04  0.91915016057E+02 0.  0.
         11    1    3    3    0    0 -0.44627262388E+03 -0.12977042252E+03 -0.84169267238E+03  0.96148123857E+03  0.00000000000E+00 0.  1.
        -11    1    3    3    0    0 -0.21073417463E+03 -0.12338220542E+03 -0.50496058187E+03  0.56090752376E+03  0.00000000000E+00 0. -1.
         22    1    1    2    0    0  0.65700679851E+03  0.25315262794E+03 -0.11338895643E+03  0.71316284379E+03  0.00000000000E+00 0. -1.
<mgrwt>
<rscale>  0 0.16929169E+04</rscale>
<asrwt>0</asrwt>
<pdfrwt beam="1">  1        2 0.28427644E+00 0.16929169E+04</pdfrwt>
<pdfrwt beam="2">  1       -2 0.59654571E-01 0.16929169E+04</pdfrwt>
<totfact> 0.20260988E+01</totfact>
</mgrwt>
</event>
<event>
 6    1  0.4630212E-004  0.3532451E+04  0.7818608E-02  0.8106142E-01
          2   -1    0    0  501    0  0.00000000000E+00  0.00000000000E+00  0.25501315792E+04  0.25501315792E+04  0.00000000000E+00 0.  1.
         -2   -1    0    0    0  501 -0.00000000000E+00 -0.00000000000E+00 -0.12232905404E+04  0.12232905404E+04  0.00000000000E+00 0. -1.
         23    2    1    2    0    0 -0.10847059899E+04 -0.73986452833E+03 -0.59618555843E+03  0.14448994338E+04  0.91162212690E+02 0.  0.
         13    1    3    3    0    0 -0.30054286783E+03 -0.25396010790E+03 -0.16708324149E+03  0.42747931107E+03  0.00000000000E+00 0. -1.
        -13    1    3    3    0    0 -0.78416312204E+03 -0.48590442043E+03 -0.42910231694E+03  0.10174201227E+04  0.00000000000E+00 0.  1.
         22    1    1    2    0    0  0.10847059899E+04  0.73986452833E+03  0.19230265972E+04  0.23285226858E+04  0.00000000000E+00 0.  1.
<mgrwt>
<rscale>  0 0.35324506E+04</rscale>
<asrwt>0</asrwt>
<pdfrwt beam="1">  1        2 0.39232793E+00 0.35324506E+04</pdfrwt>
<pdfrwt beam="2">  1       -2 0.18819855E+00 0.35324506E+04</pdfrwt>
<totfact> 0.42512160E-01</totfact>
</mgrwt>
</event>
<event>
 6    1  0.4630212E-004  0.2627291E+04  0.7818608E-02  0.8358990E-01
          2   -1    0    0  501    0  0.00000000000E+00  0.00000000000E+00  0.10629577780E+04  0.10629577780E+04  0.00000000000E+00 0.  1.
         -2   -1    0    0    0  501 -0.00000000000E+00 -0.00000000000E+00 -0.16234551470E+04  0.16234551470E+04  0.00000000000E+00 0. -1.
         23    2    1    2    0    0 -0.55516103052E+03 -0.82551773734E+02  0.93208515474E+03  0.10917903504E+04  0.90580728661E+02 0.  0.
         13    1    3    3    0    0 -0.32378079851E+03 -0.29010865266E+01  0.52554436839E+03  0.61728381230E+03  0.00000000000E+00 0. -1.
        -13    1    3    3    0    0 -0.23138023200E+03 -0.79650687207E+02  0.40654078635E+03  0.47450653810E+03  0.00000000000E+00 0.  1.
         22    1    1    2    0    0  0.55516103052E+03  0.82551773734E+02 -0.14925825238E+04  0.15946225746E+04  0.00000000000E+00 0. -1.
<mgrwt>
<rscale>  0 0.26272908E+04</rscale>
<asrwt>0</asrwt>
<pdfrwt beam="1">  1        2 0.16353197E+00 0.26272908E+04</pdfrwt>
<pdfrwt beam="2">  1       -2 0.24976233E+00 0.26272908E+04</pdfrwt>
<totfact> 0.13072611E+00</totfact>
</mgrwt>
</event>
<event>
 6    1  0.4630212E-004  0.3359116E+04  0.7818608E-02  0.8148014E-01
          2   -1    0    0  501    0  0.00000000000E+00  0.00000000000E+00  0.16350410427E+04  0.16350410427E+04  0.00000000000E+00 0.  1.
         -2   -1    0    0    0  501 -0.00000000000E+00 -0.00000000000E+00 -0.17252874124E+04  0.17252874124E+04  0.00000000000E+00 0. -1.
         23    2    1    2    0    0  0.19512784948E+03 -0.90102296613E+03 -0.14481720662E+04  0.17190242602E+04  0.89021405046E+02 0.  0.
         11    1    3    3    0    0  0.95391408464E+02 -0.47552922373E+03 -0.84276803645E+03  0.97236080068E+03  0.00000000000E+00 0. -1.
        -11    1    3    3    0    0  0.99736441013E+02 -0.42549374240E+03 -0.60540402974E+03  0.74666345947E+03  0.00000000000E+00 0.  1.
         22    1    1    2    0    0 -0.19512784948E+03  0.90102296613E+03  0.13579256965E+04  0.16413041949E+04  0.00000000000E+00 0.  1.
<mgrwt>
<rscale>  0 0.33591164E+04</rscale>
<asrwt>0</asrwt>
<pdfrwt beam="1">  1        2 0.25154478E+00 0.33591164E+04</pdfrwt>
<pdfrwt beam="2">  1       -2 0.26542883E+00 0.33591164E+04</pdfrwt>
<totfact> 0.45798011E-01</totfact>
</mgrwt>
</event>
<event>
 6    1  0.4630212E-004  0.1883671E+04  0.7818608E-02  0.8663027E-01
         -2   -1    0    0    0  501 -0.00000000000E+00  0.00000000000E+00  0.78453930895E+03  0.78453930895E+03  0.00000000000E+00 0. -1.
          2   -1    0    0  501    0  0.00000000000E+00 -0.00000000000E+00 -0.11306684222E+04  0.11306684222E+04  0.00000000000E+00 0.  1.
         23    2    1    2    0    0  0.41142574755E+03  0.78659112481E+03  0.13985427005E+03  0.90319162837E+03  0.90549198367E+02 0.  0.
         13    1    3    3    0    0  0.34200154779E+03  0.69734327979E+03  0.99049233053E+02  0.78298369021E+03  0.00000000000E+00 0.  1.
        -13    1    3    3    0    0  0.69424199760E+02  0.89247845019E+02  0.40805036992E+02  0.12020793816E+03  0.00000000000E+00 0. -1.
         22    1    1    2    0    0 -0.41142574755E+03 -0.78659112481E+03 -0.48598338325E+03  0.10120161027E+04  0.00000000000E+00 0.  1.
<mgrwt>
<rscale>  0 0.18836707E+04</rscale>
<asrwt>0</asrwt>
<pdfrwt beam="1">  1        2 0.17394899E+00 0.18836707E+04</pdfrwt>
<pdfrwt beam="2">  1       -2 0.12069836E+00 0.18836707E+04</pdfrwt>
<totfact> 0.10240322E+01</totfact>
</mgrwt>
</event>
<event>
 6    1  0.4630212E-004  0.3567749E+04  0.7818608E-02  0.8097919E-01
         -4   -1    0    0    0  501 -0.00000000000E+00  0.00000000000E+00  0.19551364928E+04  0.19551364928E+04  0.00000000000E+00 0.  1.
          4   -1    0    0  501    0  0.00000000000E+00 -0.00000000000E+00 -0.16276147376E+04  0.16276147376E+04  0.00000000000E+00 0. -1.
         23    2    1    2    0    0 -0.79366249367E+03  0.77402490406E+03  0.15656356276E+04  0.19208424883E+04  0.96985775180E+02 0.  0.
         13    1    3    3    0    0 -0.14824534943E+03  0.10903382802E+03  0.30548170223E+03  0.35662884022E+03  0.00000000000E+00 0.  1.
        -13    1    3    3    0    0 -0.64541714424E+03  0.66499107604E+03  0.12601539253E+04  0.15642136481E+04  0.00000000000E+00 0. -1.
         22    1    1    2    0    0  0.79366249367E+03 -0.77402490406E+03 -0.12381138724E+04  0.16619087421E+04  0.00000000000E+00 0. -1.
<mgrwt>
<rscale>  0 0.35677494E+04</rscale>
<asrwt>0</asrwt>
<pdfrwt beam="1">  1        4 0.25040227E+00 0.35677494E+04</pdfrwt>
<pdfrwt beam="2">  1       -4 0.30079023E+00 0.35677494E+04</pdfrwt>
<totfact> 0.30863478E-03</totfact>
</mgrwt>
</event>
<event>
 6    1  0.4630212E-004  0.2452286E+04  0.7818608E-02  0.8420184E-01
          1   -1    0    0  501    0  0.00000000000E+00  0.00000000000E+00  0.81009389389E+03  0.81009389389E+03  0.00000000000E+00 0.  1.
         -1   -1    0    0    0  501 -0.00000000000E+00 -0.00000000000E+00 -0.18558678586E+04  0.18558678586E+04  0.00000000000E+00 0. -1.
         23    2    1    2    0    0 -0.51405703357E+03  0.12193469975E+03  0.67733240557E+03  0.86368034603E+03  0.89676349839E+02 0.  0.
         13    1    3    3    0    0 -0.33851062645E+03  0.36314519742E+02  0.42191370962E+03  0.54214330848E+03  0.00000000000E+00 0.  1.
        -13    1    3    3    0    0 -0.17554640712E+03  0.85620180004E+02  0.25541869595E+03  0.32153703755E+03  0.00000000000E+00 0. -1.
         22    1    1    2    0    0  0.51405703357E+03 -0.12193469975E+03 -0.17231063703E+04  0.18022814065E+04  0.00000000000E+00 0. -1.
<mgrwt>
<rscale>  0 0.24522865E+04</rscale>
<asrwt>0</asrwt>
<pdfrwt beam="1">  1        1 0.12462983E+00 0.24522865E+04</pdfrwt>
<pdfrwt beam="2">  1       -1 0.28551813E+00 0.24522865E+04</pdfrwt>
<totfact> 0.79235187E-01</totfact>
</mgrwt>
</event>
<event>
 6    1  0.4630212E-004  0.1646606E+04  0.7818608E-02  0.8792417E-01
         -2   -1    0    0    0  501 -0.00000000000E+00  0.00000000000E+00  0.14219759375E+04  0.14219759375E+04  0.00000000000E+00 0. -1.
          2   -1    0    0  501    0  0.00000000000E+00 -0.00000000000E+00 -0.47667996964E+03  0.47667996964E+03  0.00000000000E+00 0.  1.
         23    2    1    2    0    0  0.18748926729E+03  0.79517959653E+03  0.38438511883E+03  0.90765449611E+03  0.92854448698E+02 0.  0.
         11    1    3    3    0    0  0.56554921191E+02  0.43835708966E+03  0.21576561123E+03  0.49184367044E+03  0.00000000000E+00 0. -1.
        -11    1    3    3    0    0  0.13093434610E+03  0.35682250688E+03  0.16861950760E+03  0.41581082567E+03  0.00000000000E+00 0.  1.
         22    1    1    2    0    0 -0.18748926729E+03 -0.79517959653E+03  0.56091084903E+03  0.99100141102E+03  0.00000000000E+00 0. -1.
<mgrwt>
<rscale>  0 0.16466055E+04</rscale>
<asrwt>0</asrwt>
<pdfrwt beam="1">  1        2 0.73335381E-01 0.16466055E+04</pdfrwt>
<pdfrwt beam="2">  1       -2 0.21876553E+00 0.16466055E+04</pdfrwt>
<totfact> 0.62541933E+00</totfact>
</mgrwt>
</event>
<event>
 6    1  0.4630212E-004  0.2340224E+04  0.7818608E-02  0.8462228E-01
         -2   -1    0    0    0  501 -0.00000000000E+00  0.00000000000E+00  0.13146709619E+04  0.13146709619E+04  0.00000000000E+00 0. -1.
          2   -1    0    0  501    0  0.00000000000E+00 -0.00000000000E+00 -0.10414487266E+04  0.10414487266E+04  0.00000000000E+00 0.  1.
         23    2    1    2    0    0 -0.46879485218E+02  0.77822405029E+03 -0.73922798166E+03  0.10782754881E+04  0.91595090960E+02 0.  0.
         13    1    3    3    0    0 -0.36391533911E+02  0.59811606703E+03 -0.51225805674E+03  0.78833716776E+03  0.00000000000E+00 0. -1.
        -13    1    3    3    0    0 -0.10487951307E+02  0.18010798326E+03 -0.22696992492E+03  0.28993832030E+03  0.00000000000E+00 0.  1.
         22    1    1    2    0    0  0.46879485218E+02 -0.77822405029E+03  0.10124502170E+04  0.12778442004E+04  0.00000000000E+00 0. -1.
<mgrwt>
<rscale>  0 0.23402243E+04</rscale>
<asrwt>0</asrwt>
<pdfrwt beam="1">  1        2 0.16022288E+00 0.23402243E+04</pdfrwt>
<pdfrwt beam="2">  1       -2 0.20225707E+00 0.23402243E+04</pdfrwt>
<totfact> 0.27525800E+00</totfact>
</mgrwt>
</event>
<event>
 6    1  0.4630212E-004  0.2250558E+04  0.7818608E-02  0.8497674E-01
         -2   -1    0    0    0  501 -0.00000000000E+00  0.00000000000E+00  0.84733158271E+03  0.84733158271E+03  0.00000000000E+00 0. -1.
          2   -1    0    0  501    0  0.00000000000E+00 -0.00000000000E+00 -0.14944008329E+04  0.14944008329E+04  0.00000000000E+00 0.  1.
         23    2    1    2    0    0 -0.29885051169E+03  0.26244146427E+03 -0.14172824449E+04  0.14748901486E+04  0.91783829114E+02 0.  0.
         13    1    3    3    0    0 -0.15249299581E+03  0.73919187133E+02 -0.59999294773E+03  0.62346587503E+03  0.00000000000E+00 0. -1.
        -13    1    3    3    0    0 -0.14635751589E+03  0.18852227714E+03 -0.81728949715E+03  0.85142427355E+03  0.00000000000E+00 0.  1.
         22    1    1    2    0    0  0.29885051169E+03 -0.26244146427E+03  0.77021319473E+03  0.86684226699E+03  0.00000000000E+00 0. -1.
<mgrwt>
<rscale>  0 0.22505582E+04</rscale>
<asrwt>0</asrwt>
<pdfrwt beam="1">  1        2 0.22990782E+00 0.22505582E+04</pdfrwt>
<pdfrwt beam="2">  1       -2 0.13035871E+00 0.22505582E+04</pdfrwt>
<totfact> 0.50206998E+00</totfact>
</mgrwt>
</event>
<event>
 6    1  0.4630212E-004  0.1720212E+04  0.7818608E-02  0.8749920E-01
         -2   -1    0    0    0  501 -0.00000000000E+00  0.00000000000E+00  0.41045495634E+03  0.41045495634E+03  0.00000000000E+00 0. -1.
          2   -1    0    0  501    0  0.00000000000E+00 -0.00000000000E+00 -0.18023473079E+04  0.18023473079E+04  0.00000000000E+00 0.  1.
         23    2    1    2    0    0 -0.54960194857E+03 -0.74367437502E+02 -0.15394057720E+04  0.16389093938E+04  0.93064776534E+02 0.  0.
         13    1    3    3    0    0 -0.30361000404E+02 -0.15899764063E+02 -0.50972521951E+02  0.61423048092E+02  0.00000000000E+00 0. -1.
        -13    1    3    3    0    0 -0.51924094816E+03 -0.58467673439E+02 -0.14884332500E+04  0.15774863457E+04  0.00000000000E+00 0.  1.
         22    1    1    2    0    0  0.54960194857E+03  0.74367437502E+02  0.14751342036E+03  0.57389287050E+03  0.00000000000E+00 0. -1.
<mgrwt>
<rscale>  0 0.17202121E+04</rscale>
<asrwt>0</asrwt>
<pdfrwt beam="1">  1        2 0.27728420E+00 0.17202121E+04</pdfrwt>
<pdfrwt beam="2">  1       -2 0.63146916E-01 0.17202121E+04</pdfrwt>
<totfact> 0.18984165E+01</totfact>
</mgrwt>
</event>
<event>
 6    1  0.4630212E-004  0.2891383E+04  0.7818608E-02  0.8275446E-01
         -2   -1    0    0    0  501 -0.00000000000E+00  0.00000000000E+00  0.15813772712E+04  0.15813772712E+04  0.00000000000E+00 0. -1.
          2   -1    0    0  501    0  0.00000000000E+00 -0.00000000000E+00 -0.13216475139E+04  0.13216475139E+04  0.00000000000E+00 0.  1.
         23    2    1    2    0    0 -0.77953996032E+02 -0.71189810808E+03  0.13892171745E+04  0.15656327082E+04  0.91682481172E+02 0.  0.
         13    1    3    3    0    0 -0.75529302809E+02 -0.47993180700E+03  0.85867579764E+03  0.98659178002E+03  0.00000000000E+00 0. -1.
        -13    1    3    3    0    0 -0.24246932229E+01 -0.23196630108E+03  0.53054137689E+03  0.57904092823E+03  0.00000000000E+00 0.  1.
         22    1    1    2    0    0  0.77953996032E+02  0.71189810808E+03 -0.11294874172E+04  0.13373920769E+04  0.00000000000E+00 0. -1.
<mgrwt>
<rscale>  0 0.28913826E+04</rscale>
<asrwt>0</asrwt>
<pdfrwt beam="1">  1        2 0.20333039E+00 0.28913826E+04</pdfrwt>
<pdfrwt beam="2">  1       -2 0.24328881E+00 0.28913826E+04</pdfrwt>
<totfact> 0.98035040E-01</totfact>
</mgrwt>
</event>
<event>
 6    1  0.4630212E-004  0.3782409E+04  0.7818608E-02  0.8049940E-01
         -2   -1    0    0    0  501 -0.00000000000E+00  0.00000000000E+00  0.20351901931E+04  0.20351901931E+04  0.00000000000E+00 0. -1.
          2   -1    0    0  501    0  0.00000000000E+00 -0.00000000000E+00 -0.17574057117E+04  0.17574057117E+04  0.00000000000E+00 0.  1.
         23    2    1    2    0    0  0.59683766336E+03 -0.17157068785E+04 -0.38506861530E+03  0.18588845723E+04  0.85491083834E+02 0.  0.
         13    1    3    3    0    0  0.36073444961E+03 -0.96668624111E+03 -0.25489032300E+03  0.10628173449E+04  0.00000000000E+00 0.  1.
        -13    1    3    3    0    0  0.23610321374E+03 -0.74902063741E+03 -0.13017829229E+03  0.79606722743E+03  0.00000000000E+00 0. -1.
         22    1    1    2    0    0 -0.59683766336E+03  0.17157068785E+04  0.66285309669E+03  0.19337113324E+04  0.00000000000E+00 0.  1.
<mgrwt>
<rscale>  0 0.37824092E+04</rscale>
<asrwt>0</asrwt>
<pdfrwt beam="1">  1        2 0.27037011E+00 0.37824092E+04</pdfrwt>
<pdfrwt beam="2">  1       -2 0.31310618E+00 0.37824092E+04</pdfrwt>
<totfact> 0.19318959E-01</totfact>
</mgrwt>
</event>
<event>
 6    1  0.4630212E-004  0.2134912E+04  0.7818608E-02  0.8546018E-01
         -2   -1    0    0    0  501 -0.00000000000E+00  0.00000000000E+00  0.99616224797E+03  0.99616224797E+03  0.00000000000E+00 0. -1.
          2   -1    0    0  501    0  0.00000000000E+00 -0.00000000000E+00 -0.11438522495E+04  0.11438522495E+04  0.00000000000E+00 0.  1.
         23    2    1    2    0    0  0.83658284958E+03  0.43537908831E+03 -0.57106165090E+03  0.11062498395E+04  0.90837676321E+02 0.  0.
         13    1    3    3    0    0  0.25691854619E+02  0.28720302184E+02 -0.10730024807E+02  0.40000757288E+02  0.00000000000E+00 0. -1.
        -13    1    3    3    0    0  0.81089099496E+03  0.40665878613E+03 -0.56033162609E+03  0.10662490822E+04  0.00000000000E+00 0.  1.
         22    1    1    2    0    0 -0.83658284958E+03 -0.43537908831E+03  0.42337164934E+03  0.10337646580E+04  0.00000000000E+00 0. -1.
<mgrwt>
<rscale>  0 0.21349121E+04</rscale>
<asrwt>0</asrwt>
<pdfrwt beam="1">  1        2 0.17597727E+00 0.21349121E+04</pdfrwt>
<pdfrwt beam="2">  1       -2 0.15325573E+00 0.21349121E+04</pdfrwt>
<totfact> 0.53249668E+00</totfact>
</mgrwt>
</event>
<event>
 6    1  0.4630212E-004  0.2267540E+04  0.7818608E-02  0.8490831E-01
         -2   -1    0    0    0  501 -0.00000000000E+00  0.00000000000E+00  0.16361339306E+04  0.16361339306E+04  0.00000000000E+00 0. -1.
          2   -1    0    0  501    0  0.00000000000E+00 -0.00000000000E+00 -0.78565366221E+03  0.78565366221E+03  0.00000000000E+00 0.  1.
         23    2    1    2    0    0 -0.10710334760E+04 -0.32444907007E+03  0.24435021707E+03  0.11490843497E+04  0.91147728256E+02 0.  0.
         11    1    3    3    0    0 -0.49976596966E+03 -0.10446954297E+03  0.10441129955E+03  0.52113494347E+03  0.00000000000E+00 0.  1.
        -11    1    3    3    0    0 -0.57126750638E+03 -0.21997952710E+03  0.13993891752E+03  0.62794940626E+03  0.00000000000E+00 0. -1.
         22    1    1    2    0    0  0.10710334760E+04  0.32444907007E+03  0.60613005136E+03  0.12727032431E+04  0.00000000000E+00 0. -1.
<mgrwt>
<rscale>  0 0.22675402E+04</rscale>
<asrwt>0</asrwt>
<pdfrwt beam="1">  1        2 0.12086979E+00 0.22675402E+04</pdfrwt>
<pdfrwt beam="2">  1       -2 0.25171291E+00 0.22675402E+04</pdfrwt>
<totfact> 0.20113590E+00</totfact>
</mgrwt>
</event>
<event>
 6    1  0.4630212E-004  0.2234393E+04  0.7818608E-02  0.8504248E-01
          1   -1    0    0  501    0  0.00000000000E+00  0.00000000000E+00  0.11433742257E+04  0.11433742257E+04  0.00000000000E+00 0.  1.
         -1   -1    0    0    0  501 -0.00000000000E+00 -0.00000000000E+00 -0.10916184808E+04  0.10916184808E+04  0.00000000000E+00 0. -1.
         23    2    1    2    0    0 -0.80545721904E+03 -0.63908121013E+03 -0.40629011471E+03  0.11093852552E+04  0.92075307694E+02 0.  0.
         13    1    3    3    0    0 -0.38082643708E+03 -0.28454965749E+03 -0.14084034215E+03  0.49581577701E+03  0.00000000000E+00 0.  1.
        -13    1    3    3    0    0 -0.42463078196E+03 -0.35453155264E+03 -0.26544977256E+03  0.61356947818E+03  0.00000000000E+00 0. -1.
         22    1    1    2    0    0  0.80545721904E+03  0.63908121013E+03  0.45804585965E+03  0.11256074513E+04  0.00000000000E+00 0.  1.
<mgrwt>
<rscale>  0 0.22343934E+04</rscale>
<asrwt>0</asrwt>
<pdfrwt beam="1">  1        1 0.17590373E+00 0.22343934E+04</pdfrwt>
<pdfrwt beam="2">  1       -1 0.16794131E+00 0.22343934E+04</pdfrwt>
<totfact> 0.27253834E+00</totfact>
</mgrwt>
</event>
<event>
 6    1  0.4730832E-004  0.2181399E+04  0.7818608E-02  0.8526211E-01
         -2   -1    0    0    0  501 -0.00000000000E+00  0.00000000000E+00  0.46018393633E+03  0.46018393633E+03  0.00000000000E+00 0. -1.
          2   -1    0    0  501    0  0.00000000000E+00 -0.00000000000E+00 -0.25851075386E+04  0.25851075386E+04  0.00000000000E+00 0.  1.
         23    2    1    2    0    0 -0.15296789177E+03  0.46955751492E+03 -0.24189577714E+04  0.24705397648E+04  0.91250171702E+02 0.  0.
         13    1    3    3    0    0 -0.94221931306E+02  0.37972609053E+03 -0.17660051414E+04  0.18088238818E+04  0.00000000000E+00 0.  1.
        -13    1    3    3    0    0 -0.58745960460E+02  0.89831424393E+02 -0.65295263005E+03  0.66171588297E+03  0.00000000000E+00 0. -1.
         22    1    1    2    0    0  0.15296789177E+03 -0.46955751492E+03  0.29403416911E+03  0.57475171016E+03  0.00000000000E+00 0. -1.
<mgrwt>
<rscale>  0 0.21813986E+04</rscale>
<asrwt>0</asrwt>
<pdfrwt beam="1">  1        2 0.39770885E+00 0.21813986E+04</pdfrwt>
<pdfrwt beam="2">  1       -2 0.70797530E-01 0.21813986E+04</pdfrwt>
<totfact> 0.51559855E+00</totfact>
</mgrwt>
</event>
<event>
 6    1  0.4630212E-004  0.2918438E+04  0.7818608E-02  0.8267413E-01
          2   -1    0    0  501    0  0.00000000000E+00  0.00000000000E+00  0.14881343024E+04  0.14881343024E+04  0.00000000000E+00 0.  1.
         -2   -1    0    0    0  501 -0.00000000000E+00 -0.00000000000E+00 -0.14308659117E+04  0.14308659117E+04  0.00000000000E+00 0. -1.
         23    2    1    2    0    0 -0.23331477108E+03  0.91526313413E+03 -0.10804824878E+04  0.14402779790E+04  0.12172043014E+03 0.  0.
         13    1    3    3    0    0 -0.16984092428E+03  0.64012544386E+03 -0.67017814497E+03  0.94220235058E+03  0.00000000000E+00 0.  1.
        -13    1    3    3    0    0 -0.63473846805E+02  0.27513769027E+03 -0.41030434287E+03  0.49807562840E+03  0.00000000000E+00 0. -1.
         22    1    1    2    0    0  0.23331477108E+03 -0.91526313413E+03  0.11377508786E+04  0.14787222352E+04  0.00000000000E+00 0.  1.
<mgrwt>
<rscale>  0 0.29184384E+04</rscale>
<asrwt>0</asrwt>
<pdfrwt beam="1">  1        2 0.22894374E+00 0.29184384E+04</pdfrwt>
<pdfrwt beam="2">  1       -2 0.22013322E+00 0.29184384E+04</pdfrwt>
<totfact> 0.10959430E+00</totfact>
</mgrwt>
</event>
<event>
 6    1  0.4630212E-004  0.2652549E+04  0.7818608E-02  0.8350567E-01
         -2   -1    0    0    0  501 -0.00000000000E+00  0.00000000000E+00  0.81871441756E+03  0.81871441756E+03  0.00000000000E+00 0. -1.
          2   -1    0    0  501    0  0.00000000000E+00 -0.00000000000E+00 -0.21484957931E+04  0.21484957931E+04  0.00000000000E+00 0.  1.
         23    2    1    2    0    0 -0.26461972131E+03  0.99710034170E+03 -0.15952980058E+04  0.19019723174E+04  0.91050977668E+02 0.  0.
         13    1    3    3    0    0 -0.19903088148E+03  0.82137665036E+03 -0.12476149787E+04  0.15069227016E+04  0.00000000000E+00 0.  1.
        -13    1    3    3    0    0 -0.65588839833E+02  0.17572369134E+03 -0.34768302708E+03  0.39504961578E+03  0.00000000000E+00 0. -1.
         22    1    1    2    0    0  0.26461972131E+03 -0.99710034170E+03  0.26551663025E+03  0.10652378933E+04  0.00000000000E+00 0. -1.
<mgrwt>
<rscale>  0 0.26525493E+04</rscale>
<asrwt>0</asrwt>
<pdfrwt beam="1">  1        2 0.33053781E+00 0.26525493E+04</pdfrwt>
<pdfrwt beam="2">  1       -2 0.12595607E+00 0.26525493E+04</pdfrwt>
<totfact> 0.22865664E+00</totfact>
</mgrwt>
</event>
<event>
 6    1  0.4630212E-004  0.6138354E+04  0.7818608E-02  0.7673480E-01
         -2   -1    0    0    0  501 -0.00000000000E+00  0.00000000000E+00  0.44474942013E+04  0.44474942013E+04  0.00000000000E+00 0. -1.
          2   -1    0    0  501    0  0.00000000000E+00 -0.00000000000E+00 -0.21180124064E+04  0.21180124064E+04  0.00000000000E+00 0.  1.
         23    2    1    2    0    0 -0.30144289062E+04 -0.32760088043E+03  0.66155488798E+03  0.31048586721E+04  0.91588955329E+02 0.  0.
         11    1    3    3    0    0 -0.21915880659E+04 -0.25990375639E+03  0.51673742960E+03  0.22666331385E+04  0.00000000000E+00 0. -1.
        -11    1    3    3    0    0 -0.82284084026E+03 -0.67697124039E+02  0.14481745838E+03  0.83822553364E+03  0.00000000000E+00 0.  1.
         22    1    1    2    0    0  0.30144289062E+04  0.32760088043E+03  0.16679269070E+04  0.34606479356E+04  0.00000000000E+00 0.  1.
<mgrwt>
<rscale>  0 0.61383541E+04</rscale>
<asrwt>0</asrwt>
<pdfrwt beam="1">  1        2 0.32584806E+00 0.61383541E+04</pdfrwt>
<pdfrwt beam="2">  1       -2 0.68422987E+00 0.61383541E+04</pdfrwt>
<totfact> 0.10073281E-03</totfact>
</mgrwt>
</event>
<event>
 6    1  0.4630212E-004  0.1016172E+04  0.7818608E-02  0.9290983E-01
         -2   -1    0    0    0  501 -0.00000000000E+00  0.00000000000E+00  0.16771645775E+03  0.16771645775E+03  0.00000000000E+00 0. -1.
          2   -1    0    0  501    0  0.00000000000E+00 -0.00000000000E+00 -0.15392139944E+04  0.15392139944E+04  0.00000000000E+00 0.  1.
         23    2    1    2    0    0  0.29405162706E+03  0.28609724424E+03 -0.11830700510E+04  0.12554629451E+04  0.90633705168E+02 0.  0.
         11    1    3    3    0    0  0.14961300713E+03  0.19732711711E+03 -0.62727287557E+03  0.67438364710E+03  0.00000000000E+00 0. -1.
        -11    1    3    3    0    0  0.14443861993E+03  0.88770127135E+02 -0.55579717543E+03  0.58107929804E+03  0.00000000000E+00 0.  1.
         22    1    1    2    0    0 -0.29405162706E+03 -0.28609724424E+03 -0.18842748567E+03  0.45146750702E+03  0.00000000000E+00 0. -1.
<mgrwt>
<rscale>  0 0.10161723E+04</rscale>
<asrwt>0</asrwt>
<pdfrwt beam="1">  1        2 0.23680216E+00 0.10161723E+04</pdfrwt>
<pdfrwt beam="2">  1       -2 0.25802531E-01 0.10161723E+04</pdfrwt>
<totfact> 0.16288071E+02</totfact>
</mgrwt>
</event>
<event>
 6    1  0.4630212E-004  0.6073424E+04  0.7818608E-02  0.7681364E-01
         -2   -1    0    0    0  501 -0.00000000000E+00  0.00000000000E+00  0.30062369574E+04  0.30062369574E+04  0.00000000000E+00 0. -1.
          2   -1    0    0  501    0  0.00000000000E+00 -0.00000000000E+00 -0.30674960102E+04  0.30674960102E+04  0.00000000000E+00 0.  1.
         23    2    1    2    0    0 -0.15232052318E+04 -0.19511045512E+03  0.25884607059E+04  0.30111789570E+04  0.94061771988E+02 0.  0.
         11    1    3    3    0    0 -0.28702826916E+03 -0.45285231384E+02  0.56285439403E+03  0.63343590707E+03  0.00000000000E+00 0.  1.
        -11    1    3    3    0    0 -0.12361769626E+04 -0.14982522374E+03  0.20256063119E+04  0.23777430499E+04  0.00000000000E+00 0. -1.
         22    1    1    2    0    0  0.15232052318E+04  0.19511045512E+03 -0.26497197588E+04  0.30625540106E+04  0.00000000000E+00 0.  1.
<mgrwt>
<rscale>  0 0.60734240E+04</rscale>
<asrwt>0</asrwt>
<pdfrwt beam="1">  1        2 0.47192246E+00 0.60734240E+04</pdfrwt>
<pdfrwt beam="2">  1       -2 0.46249799E+00 0.60734240E+04</pdfrwt>
<totfact> 0.30505547E-03</totfact>
</mgrwt>
</event>
<event>
 6    1  0.4630212E-004  0.1338615E+04  0.7818608E-02  0.8999491E-01
         -2   -1    0    0    0  501 -0.00000000000E+00  0.00000000000E+00  0.11172199487E+04  0.11172199487E+04  0.00000000000E+00 0. -1.
          2   -1    0    0  501    0  0.00000000000E+00 -0.00000000000E+00 -0.40097091092E+03  0.40097091092E+03  0.00000000000E+00 0.  1.
         23    2    1    2    0    0  0.47435483496E+03 -0.45085950156E+03  0.50439435944E+03  0.83031790306E+03  0.82020428643E+02 0.  0.
         11    1    3    3    0    0  0.22106600359E+03 -0.16056405206E+03  0.18612191582E+03  0.33059395080E+03  0.00000000000E+00 0. -1.
        -11    1    3    3    0    0  0.25328883137E+03 -0.29029544950E+03  0.31827244362E+03  0.49972395226E+03  0.00000000000E+00 0.  1.
         22    1    1    2    0    0 -0.47435483496E+03  0.45085950156E+03  0.21185467830E+03  0.68787295652E+03  0.00000000000E+00 0.  1.
<mgrwt>
<rscale>  0 0.13386153E+04</rscale>
<asrwt>0</asrwt>
<pdfrwt beam="1">  1        2 0.61687833E-01 0.13386153E+04</pdfrwt>
<pdfrwt beam="2">  1       -2 0.17187999E+00 0.13386153E+04</pdfrwt>
<totfact> 0.16003433E+01</totfact>
</mgrwt>
</event>
<event>
 6    1  0.4630212E-004  0.1611807E+04  0.7818608E-02  0.8813327E-01
          2   -1    0    0  501    0  0.00000000000E+00  0.00000000000E+00  0.19741209045E+04  0.19741209045E+04  0.00000000000E+00 0.  1.
         -2   -1    0    0    0  501 -0.00000000000E+00 -0.00000000000E+00 -0.32899716772E+03  0.32899716772E+03  0.00000000000E+00 0. -1.
         23    2    1    2    0    0 -0.45125810031E+03 -0.48403754991E+03  0.17484283737E+03  0.69077439112E+03  0.93129043944E+02 0.  0.
         13    1    3    3    0    0 -0.40116367614E+03 -0.46610634348E+03  0.15759022167E+03  0.63484021333E+03  0.00000000000E+00 0. -1.
        -13    1    3    3    0    0 -0.50094424163E+02 -0.17931206425E+02  0.17252615703E+02  0.55934177786E+02  0.00000000000E+00 0.  1.
         22    1    1    2    0    0  0.45125810031E+03  0.48403754991E+03  0.14702808994E+04  0.16123436811E+04  0.00000000000E+00 0.  1.
<mgrwt>
<rscale>  0 0.16118067E+04</rscale>
<asrwt>0</asrwt>
<pdfrwt beam="1">  1        2 0.30371090E+00 0.16118067E+04</pdfrwt>
<pdfrwt beam="2">  1       -2 0.50614950E-01 0.16118067E+04</pdfrwt>
<totfact> 0.24425329E+01</totfact>
</mgrwt>
</event>
<event>
 6    1  0.4630212E-004  0.5305966E+04  0.7818608E-02  0.7782968E-01
         -2   -1    0    0    0  501 -0.00000000000E+00  0.00000000000E+00  0.23232388004E+04  0.23232388004E+04  0.00000000000E+00 0. -1.
          2   -1    0    0  501    0  0.00000000000E+00 -0.00000000000E+00 -0.30295289818E+04  0.30295289818E+04  0.00000000000E+00 0.  1.
         23    2    1    2    0    0  0.74777430996E+03 -0.21936152559E+04 -0.16541964472E+04  0.28488427438E+04  0.91786618872E+02 0.  0.
         11    1    3    3    0    0  0.24283080014E+03 -0.66934707240E+03 -0.45948235830E+03  0.84741745227E+03  0.00000000000E+00 0.  1.
        -11    1    3    3    0    0  0.50494350982E+03 -0.15242681835E+04 -0.11947140889E+04  0.20014252915E+04  0.00000000000E+00 0. -1.
         22    1    1    2    0    0 -0.74777430996E+03  0.21936152559E+04  0.94790626582E+03  0.25039250385E+04  0.00000000000E+00 0.  1.
<mgrwt>
<rscale>  0 0.53059662E+04</rscale>
<asrwt>0</asrwt>
<pdfrwt beam="1">  1        2 0.46608138E+00 0.53059662E+04</pdfrwt>
<pdfrwt beam="2">  1       -2 0.35742136E+00 0.53059662E+04</pdfrwt>
<totfact> 0.16548378E-02</totfact>
</mgrwt>
</event>
<event>
 6    1  0.4630212E-004  0.8386841E+03  0.7818608E-02  0.9505652E-01
         -2   -1    0    0    0  501 -0.00000000000E+00  0.00000000000E+00  0.14989238408E+03  0.14989238408E+03  0.00000000000E+00 0. -1.
          2   -1    0    0  501    0  0.00000000000E+00 -0.00000000000E+00 -0.11731598995E+04  0.11731598995E+04  0.00000000000E+00 0.  1.
         23    2    1    2    0    0  0.40932787534E+03 -0.57892050552E+02 -0.46972610340E+03  0.63217682891E+03  0.90022951267E+02 0.  0.
         11    1    3    3    0    0  0.31484991711E+03 -0.21660355267E+02 -0.30522762943E+03  0.43904845639E+03  0.00000000000E+00 0. -1.
        -11    1    3    3    0    0  0.94477958231E+02 -0.36231695284E+02 -0.16449847397E+03  0.19312837252E+03  0.00000000000E+00 0.  1.
         22    1    1    2    0    0 -0.40932787534E+03  0.57892050552E+02 -0.55354141203E+03  0.69087545468E+03  0.00000000000E+00 0.  1.
<mgrwt>
<rscale>  0 0.83868405E+03</rscale>
<asrwt>0</asrwt>
<pdfrwt beam="1">  1        2 0.18048614E+00 0.83868405E+03</pdfrwt>
<pdfrwt beam="2">  1       -2 0.23060366E-01 0.83868405E+03</pdfrwt>
<totfact> 0.32727739E+02</totfact>
</mgrwt>
</event>
<event>
 6    1  0.4630212E-004  0.2536103E+04  0.7818608E-02  0.8390235E-01
         -2   -1    0    0    0  501 -0.00000000000E+00  0.00000000000E+00  0.51475686669E+03  0.51475686669E+03  0.00000000000E+00 0. -1.
          2   -1    0    0  501    0  0.00000000000E+00 -0.00000000000E+00 -0.31237159459E+04  0.31237159459E+04  0.00000000000E+00 0.  1.
         23    2    1    2    0    0 -0.10353860898E+04 -0.63030751992E+03 -0.77955968047E+03  0.14439309277E+04  0.88945510855E+02 0.  0.
         13    1    3    3    0    0 -0.64684235804E+03 -0.34347658886E+03 -0.46151959147E+03  0.86566826011E+03  0.00000000000E+00 0.  1.
        -13    1    3    3    0    0 -0.38854373173E+03 -0.28683093106E+03 -0.31804008899E+03  0.57826266756E+03  0.00000000000E+00 0. -1.
         22    1    1    2    0    0  0.10353860898E+04  0.63030751992E+03 -0.18293993987E+04  0.21945418849E+04  0.00000000000E+00 0.  1.
<mgrwt>
<rscale>  0 0.25361027E+04</rscale>
<asrwt>0</asrwt>
<pdfrwt beam="1">  1        2 0.48057169E+00 0.25361027E+04</pdfrwt>
<pdfrwt beam="2">  1       -2 0.79193364E-01 0.25361027E+04</pdfrwt>
<totfact> 0.18277031E+00</totfact>
</mgrwt>
</event>
<event>
 6    1  0.4630212E-004  0.4665126E+03  0.7818608E-02  0.1022909E+00
          2   -1    0    0  501    0  0.00000000000E+00  0.00000000000E+00  0.93999737310E+03  0.93999737310E+03  0.00000000000E+00 0.  1.
         -2   -1    0    0    0  501 -0.00000000000E+00 -0.00000000000E+00 -0.57881546936E+02  0.57881546936E+02  0.00000000000E+00 0. -1.
         23    2    1    2    0    0  0.18178767548E+03  0.53830173854E+02  0.71427214551E+03  0.74466764914E+03  0.91655677672E+02 0.  0.
         11    1    3    3    0    0  0.41388351065E+02 -0.25420077381E+02  0.19401901604E+03  0.20000638621E+03  0.00000000000E+00 0.  1.
        -11    1    3    3    0    0  0.14039932441E+03  0.79250251235E+02  0.52025312947E+03  0.54466126293E+03  0.00000000000E+00 0. -1.
         22    1    1    2    0    0 -0.18178767548E+03 -0.53830173854E+02  0.16784368065E+03  0.25321127090E+03  0.00000000000E+00 0. -1.
<mgrwt>
<rscale>  0 0.46651260E+03</rscale>
<asrwt>0</asrwt>
<pdfrwt beam="1">  1        2 0.14461497E+00 0.46651260E+03</pdfrwt>
<pdfrwt beam="2">  1       -2 0.89048541E-02 0.46651260E+03</pdfrwt>
<totfact> 0.22907141E+03</totfact>
</mgrwt>
</event>
<event>
 6    1  0.4630212E-004  0.5437722E+04  0.7818608E-02  0.7764317E-01
         -2   -1    0    0    0  501 -0.00000000000E+00  0.00000000000E+00  0.27880769090E+04  0.27880769090E+04  0.00000000000E+00 0. -1.
          2   -1    0    0  501    0  0.00000000000E+00 -0.00000000000E+00 -0.26513638301E+04  0.26513638301E+04  0.00000000000E+00 0.  1.
         23    2    1    2    0    0 -0.21528856209E+04 -0.16546753761E+04  0.19044532222E+03  0.27236067510E+04  0.94325057092E+02 0.  0.
         13    1    3    3    0    0 -0.86299090449E+03 -0.65989534609E+03  0.29971058775E+02  0.10867904275E+04  0.00000000000E+00 0. -1.
        -13    1    3    3    0    0 -0.12898947165E+04 -0.99478002999E+03  0.16047426345E+03  0.16368163235E+04  0.00000000000E+00 0.  1.
         22    1    1    2    0    0  0.21528856209E+04  0.16546753761E+04 -0.53732243258E+02  0.27158339881E+04  0.00000000000E+00 0.  1.
<mgrwt>
<rscale>  0 0.54377224E+04</rscale>
<asrwt>0</asrwt>
<pdfrwt beam="1">  1        2 0.40790213E+00 0.54377224E+04</pdfrwt>
<pdfrwt beam="2">  1       -2 0.42893491E+00 0.54377224E+04</pdfrwt>
<totfact> 0.95735474E-03</totfact>
</mgrwt>
</event>
<event>
 6    1  0.4630212E-004  0.2990522E+04  0.7818608E-02  0.8246443E-01
         -2   -1    0    0    0  501 -0.00000000000E+00  0.00000000000E+00  0.13852516869E+04  0.13852516869E+04  0.00000000000E+00 0. -1.
          2   -1    0    0  501    0  0.00000000000E+00 -0.00000000000E+00 -0.16140063723E+04  0.16140063723E+04  0.00000000000E+00 0.  1.
         23    2    1    2    0    0 -0.25420215742E+03  0.67754047083E+03 -0.14251846808E+04  0.16010003718E+04  0.91493112384E+02 0.  0.
         11    1    3    3    0    0 -0.21065165835E+03  0.45847864152E+03 -0.93919050361E+03  0.10661405104E+04  0.00000000000E+00 0. -1.
        -11    1    3    3    0    0 -0.43550499062E+02  0.21906182931E+03 -0.48599417720E+03  0.53485986137E+03  0.00000000000E+00 0.  1.
         22    1    1    2    0    0  0.25420215742E+03 -0.67754047083E+03  0.11964299954E+04  0.13982576874E+04  0.00000000000E+00 0. -1.
<mgrwt>
<rscale>  0 0.29905217E+04</rscale>
<asrwt>0</asrwt>
<pdfrwt beam="1">  1        2 0.24830867E+00 0.29905217E+04</pdfrwt>
<pdfrwt beam="2">  1       -2 0.21311564E+00 0.29905217E+04</pdfrwt>
<totfact> 0.10260708E+00</totfact>
</mgrwt>
</event>
<event>
 6    1  0.4630212E-004  0.4365304E+04  0.7818608E-02  0.7934652E-01
         -2   -1    0    0    0  501 -0.00000000000E+00  0.00000000000E+00  0.12096465627E+04  0.12096465627E+04  0.00000000000E+00 0. -1.
          2   -1    0    0  501    0  0.00000000000E+00 -0.00000000000E+00 -0.39383146955E+04  0.39383146955E+04  0.00000000000E+00 0.  1.
         23    2    1    2    0    0  0.87128052055E+02 -0.80884822193E+03  0.10223899505E+04  0.13096981759E+04  0.90561346966E+02 0.  0.
         11    1    3    3    0    0  0.80309089681E+02 -0.36743476252E+03  0.50231844202E+03  0.62752025608E+03  0.00000000000E+00 0. -1.
        -11    1    3    3    0    0  0.68189623735E+01 -0.44141345941E+03  0.52007150851E+03  0.68217791987E+03  0.00000000000E+00 0.  1.
         22    1    1    2    0    0 -0.87128052055E+02  0.80884822193E+03 -0.37510580834E+04  0.38382630823E+04  0.00000000000E+00 0.  1.
<mgrwt>
<rscale>  0 0.43653036E+04</rscale>
<asrwt>0</asrwt>
<pdfrwt beam="1">  1        2 0.60589456E+00 0.43653036E+04</pdfrwt>
<pdfrwt beam="2">  1       -2 0.18609947E+00 0.43653036E+04</pdfrwt>
<totfact> 0.48187427E-02</totfact>
</mgrwt>
</event>
<event>
 6    1  0.4630212E-004  0.2612928E+04  0.7818608E-02  0.8363823E-01
          2   -1    0    0  501    0  0.00000000000E+00  0.00000000000E+00  0.24390753693E+04  0.24390753693E+04  0.00000000000E+00 0.  1.
         -2   -1    0    0    0  501 -0.00000000000E+00 -0.00000000000E+00 -0.69979305759E+03  0.69979305759E+03  0.00000000000E+00 0. -1.
         23    2    1    2    0    0  0.25059167984E+03  0.85298157699E+03  0.20181139436E+04  0.22071384019E+04  0.91116820260E+02 0.  0.
         13    1    3    3    0    0  0.23630491990E+03  0.73085294805E+03  0.16769181897E+04  0.18444621606E+04  0.00000000000E+00 0.  1.
        -13    1    3    3    0    0  0.14286759935E+02  0.12212862894E+03  0.34119575386E+03  0.36267624126E+03  0.00000000000E+00 0. -1.
         22    1    1    2    0    0 -0.25059167984E+03 -0.85298157699E+03 -0.27883163185E+03  0.93173002507E+03  0.00000000000E+00 0. -1.
<mgrwt>
<rscale>  0 0.26129279E+04</rscale>
<asrwt>0</asrwt>
<pdfrwt beam="1">  1        2 0.37524236E+00 0.26129279E+04</pdfrwt>
<pdfrwt beam="2">  1       -2 0.10766047E+00 0.26129279E+04</pdfrwt>
<totfact> 0.23081858E+00</totfact>
</mgrwt>
</event>
<event>
 6    1  0.4630212E-004  0.4708992E+04  0.7818608E-02  0.7875036E-01
         -2   -1    0    0    0  501 -0.00000000000E+00  0.00000000000E+00  0.17481242719E+04  0.17481242719E+04  0.00000000000E+00 0. -1.
          2   -1    0    0  501    0  0.00000000000E+00 -0.00000000000E+00 -0.31711998803E+04  0.31711998803E+04  0.00000000000E+00 0.  1.
         23    2    1    2    0    0  0.99904605104E+03 -0.21300827472E+04 -0.64521724087E+03  0.24413392528E+04  0.92122404081E+02 0.  0.
         11    1    3    3    0    0  0.33755221039E+03 -0.78516372582E+03 -0.19862281832E+03  0.87742497972E+03  0.00000000000E+00 0.  1.
        -11    1    3    3    0    0  0.66149384065E+03 -0.13449190214E+04 -0.44659442255E+03  0.15639142731E+04  0.00000000000E+00 0. -1.
         22    1    1    2    0    0 -0.99904605104E+03  0.21300827472E+04 -0.77785836752E+03  0.24779848994E+04  0.00000000000E+00 0.  1.
<mgrwt>
<rscale>  0 0.47089920E+04</rscale>
<asrwt>0</asrwt>
<pdfrwt beam="1">  1        2 0.48787690E+00 0.47089920E+04</pdfrwt>
<pdfrwt beam="2">  1       -2 0.26894220E+00 0.47089920E+04</pdfrwt>
<totfact> 0.49580101E-02</totfact>
</mgrwt>
</event>
<event>
 6    1  0.4630212E-004  0.2355973E+04  0.7818608E-02  0.8456173E-01
         -2   -1    0    0    0  501 -0.00000000000E+00  0.00000000000E+00  0.62682302080E+03  0.62682302080E+03  0.00000000000E+00 0. -1.
          2   -1    0    0  501    0  0.00000000000E+00 -0.00000000000E+00 -0.22137861081E+04  0.22137861081E+04  0.00000000000E+00 0.  1.
         23    2    1    2    0    0  0.56014939723E+03 -0.73633498709E+03  0.80641211522E+02  0.93355363473E+03  0.95198862866E+02 0.  0.
         11    1    3    3    0    0  0.23261807558E+03 -0.34938401223E+03 -0.29505071450E+01  0.41974880891E+03  0.00000000000E+00 0. -1.
        -11    1    3    3    0    0  0.32753132164E+03 -0.38695097486E+03  0.83591718667E+02  0.51380482582E+03  0.00000000000E+00 0.  1.
         22    1    1    2    0    0 -0.56014939723E+03  0.73633498709E+03 -0.16676042988E+04  0.19070554942E+04  0.00000000000E+00 0.  1.
<mgrwt>
<rscale>  0 0.23559729E+04</rscale>
<asrwt>0</asrwt>
<pdfrwt beam="1">  1        2 0.34058247E+00 0.23559729E+04</pdfrwt>
<pdfrwt beam="2">  1       -2 0.96434313E-01 0.23559729E+04</pdfrwt>
<totfact> 0.41186416E+00</totfact>
</mgrwt>
</event>
<event>
 6    1  0.4630212E-004  0.1322440E+04  0.7818608E-02  0.9011957E-01
          2   -1    0    0  501    0  0.00000000000E+00  0.00000000000E+00  0.11625523352E+04  0.11625523352E+04  0.00000000000E+00 0.  1.
         -2   -1    0    0    0  501 -0.00000000000E+00 -0.00000000000E+00 -0.37607923144E+03  0.37607923144E+03  0.00000000000E+00 0. -1.
         23    2    1    2    0    0 -0.24709864384E+03 -0.42087911284E+03 -0.11852722680E+03  0.51041827858E+03  0.91000814245E+02 0.  0.
         13    1    3    3    0    0 -0.89515223578E+02 -0.13847137820E+03 -0.84378949024E+02  0.18522177213E+03  0.00000000000E+00 0. -1.
        -13    1    3    3    0    0 -0.15758342027E+03 -0.28240773464E+03 -0.34148277781E+02  0.32519650644E+03  0.00000000000E+00 0.  1.
         22    1    1    2    0    0  0.24709864384E+03  0.42087911284E+03  0.90500033055E+03  0.10282132880E+04  0.00000000000E+00 0.  1.
<mgrwt>
<rscale>  0 0.13224398E+04</rscale>
<asrwt>0</asrwt>
<pdfrwt beam="1">  1        2 0.17885420E+00 0.13224398E+04</pdfrwt>
<pdfrwt beam="2">  1       -2 0.57858344E-01 0.13224398E+04</pdfrwt>
<totfact> 0.54593485E+01</totfact>
</mgrwt>
</event>
<event>
 6    1  0.4630212E-004  0.2041029E+04  0.7818608E-02  0.8587675E-01
         -2   -1    0    0    0  501 -0.00000000000E+00  0.00000000000E+00  0.44005048668E+03  0.44005048668E+03  0.00000000000E+00 0. -1.
          2   -1    0    0  501    0  0.00000000000E+00 -0.00000000000E+00 -0.23666605249E+04  0.23666605249E+04  0.00000000000E+00 0.  1.
         23    2    1    2    0    0 -0.64351121937E+03 -0.65043160271E+03 -0.35044155134E+03  0.98421956900E+03  0.93332308686E+02 0.  0.
         11    1    3    3    0    0 -0.54333462053E+03 -0.55988344203E+03 -0.33218816870E+03  0.84795693166E+03  0.00000000000E+00 0.  1.
        -11    1    3    3    0    0 -0.10017659884E+03 -0.90548160680E+02 -0.18253382635E+02  0.13626263734E+03  0.00000000000E+00 0. -1.
         22    1    1    2    0    0  0.64351121937E+03  0.65043160271E+03 -0.15761684869E+04  0.18224914426E+04  0.00000000000E+00 0. -1.
<mgrwt>
<rscale>  0 0.20410293E+04</rscale>
<asrwt>0</asrwt>
<pdfrwt beam="1">  1        2 0.36410162E+00 0.20410293E+04</pdfrwt>
<pdfrwt beam="2">  1       -2 0.67700075E-01 0.20410293E+04</pdfrwt>
<totfact> 0.76919037E+00</totfact>
</mgrwt>
</event>
<event>
 6    1  0.4630212E-004  0.2415563E+04  0.7818608E-02  0.8433700E-01
         -2   -1    0    0    0  501 -0.00000000000E+00  0.00000000000E+00  0.69750563667E+03  0.69750563667E+03  0.00000000000E+00 0. -1.
          2   -1    0    0  501    0  0.00000000000E+00 -0.00000000000E+00 -0.20913616844E+04  0.20913616844E+04  0.00000000000E+00 0.  1.
         23    2    1    2    0    0 -0.10921434326E+04 -0.26864457888E+03 -0.12010361707E+04  0.16477596609E+04  0.87617518980E+02 0.  0.
         13    1    3    3    0    0 -0.95085593267E+03 -0.20442198909E+03 -0.10491484300E+04  0.14306039922E+04  0.00000000000E+00 0. -1.
        -13    1    3    3    0    0 -0.14128749996E+03 -0.64222589789E+02 -0.15188774068E+03  0.21715566871E+03  0.00000000000E+00 0.  1.
         22    1    1    2    0    0  0.10921434326E+04  0.26864457888E+03 -0.19281987710E+03  0.11411076602E+04  0.00000000000E+00 0.  1.
<mgrwt>
<rscale>  0 0.24155633E+04</rscale>
<asrwt>0</asrwt>
<pdfrwt beam="1">  1        2 0.32174795E+00 0.24155633E+04</pdfrwt>
<pdfrwt beam="2">  1       -2 0.10730856E+00 0.24155633E+04</pdfrwt>
<totfact> 0.37220204E+00</totfact>
</mgrwt>
</event>
<event>
 6    1  0.4630212E-004  0.2780788E+04  0.7818608E-02  0.8309258E-01
         -2   -1    0    0    0  501 -0.00000000000E+00  0.00000000000E+00  0.32450179486E+04  0.32450179486E+04  0.00000000000E+00 0. -1.
          2   -1    0    0  501    0  0.00000000000E+00 -0.00000000000E+00 -0.59574269588E+03  0.59574269588E+03  0.00000000000E+00 0.  1.
         23    2    1    2    0    0  0.11690048464E+04 -0.85155426155E+02  0.23551038482E+04  0.26323068420E+04  0.93281280077E+02 0.  0.
         11    1    3    3    0    0  0.24858527486E+03 -0.88881337422E+01  0.58671068490E+03  0.63726216393E+03  0.00000000000E+00 0. -1.
        -11    1    3    3    0    0  0.92041957153E+03 -0.76267292412E+02  0.17683931633E+04  0.19950446781E+04  0.00000000000E+00 0.  1.
         22    1    1    2    0    0 -0.11690048464E+04  0.85155426155E+02  0.29417140456E+03  0.12084538025E+04  0.00000000000E+00 0.  1.
<mgrwt>
<rscale>  0 0.27807882E+04</rscale>
<asrwt>0</asrwt>
<pdfrwt beam="1">  1        2 0.91652724E-01 0.27807882E+04</pdfrwt>
<pdfrwt beam="2">  1       -2 0.49923352E+00 0.27807882E+04</pdfrwt>
<totfact> 0.72440438E-02</totfact>
</mgrwt>
</event>
<event>
 6    1  0.4630212E-004  0.2997230E+04  0.7818608E-02  0.8244522E-01
         -2   -1    0    0    0  501 -0.00000000000E+00  0.00000000000E+00  0.89725833408E+03  0.89725833408E+03  0.00000000000E+00 0. -1.
          2   -1    0    0  501    0  0.00000000000E+00 -0.00000000000E+00 -0.25030108114E+04  0.25030108114E+04  0.00000000000E+00 0.  1.
         23    2    1    2    0    0  0.48732718921E+03  0.61927902076E+03  0.64047869395E+03  0.10198177661E+04  0.93920305167E+02 0.  0.
         13    1    3    3    0    0  0.12988727069E+03  0.17179683296E+03  0.23065992753E+03  0.31557702241E+03  0.00000000000E+00 0. -1.
        -13    1    3    3    0    0  0.35743991852E+03  0.44748218780E+03  0.40981876642E+03  0.70424074368E+03  0.00000000000E+00 0.  1.
         22    1    1    2    0    0 -0.48732718921E+03 -0.61927902076E+03 -0.22462311713E+04  0.23804513794E+04  0.00000000000E+00 0.  1.
<mgrwt>
<rscale>  0 0.29972303E+04</rscale>
<asrwt>0</asrwt>
<pdfrwt beam="1">  1        2 0.38507859E+00 0.29972303E+04</pdfrwt>
<pdfrwt beam="2">  1       -2 0.13803974E+00 0.29972303E+04</pdfrwt>
<totfact> 0.11057204E+00</totfact>
</mgrwt>
</event>
<event>
 6    1  0.4630212E-004  0.4499844E+04  0.7818608E-02  0.7910664E-01
         -2   -1    0    0    0  501 -0.00000000000E+00  0.00000000000E+00  0.10834243566E+04  0.10834243566E+04  0.00000000000E+00 0. -1.
          2   -1    0    0  501    0  0.00000000000E+00 -0.00000000000E+00 -0.46723602094E+04  0.46723602094E+04  0.00000000000E+00 0.  1.
         23    2    1    2    0    0  0.12475874749E+04 -0.18510201539E+04 -0.21449333650E+04  0.30972335881E+04  0.96781409313E+02 0.  0.
         13    1    3    3    0    0  0.54930293109E+03 -0.73661797138E+03 -0.85640034991E+03  0.12560896884E+04  0.00000000000E+00 0. -1.
        -13    1    3    3    0    0  0.69828454378E+03 -0.11144021826E+04 -0.12885330151E+04  0.18411438997E+04  0.00000000000E+00 0.  1.
         22    1    1    2    0    0 -0.12475874749E+04  0.18510201539E+04 -0.14440024878E+04  0.26585509780E+04  0.00000000000E+00 0. -1.
<mgrwt>
<rscale>  0 0.44998439E+04</rscale>
<asrwt>0</asrwt>
<pdfrwt beam="1">  1        2 0.71882463E+00 0.44998439E+04</pdfrwt>
<pdfrwt beam="2">  1       -2 0.16668067E+00 0.44998439E+04</pdfrwt>
<totfact> 0.13863897E-02</totfact>
</mgrwt>
</event>
<event>
 6    1  0.4630212E-004  0.2332966E+04  0.7818608E-02  0.8465035E-01
          2   -1    0    0  501    0  0.00000000000E+00  0.00000000000E+00  0.10262946692E+04  0.10262946692E+04  0.00000000000E+00 0.  1.
         -2   -1    0    0    0  501 -0.00000000000E+00 -0.00000000000E+00 -0.13258209962E+04  0.13258209962E+04  0.00000000000E+00 0. -1.
         23    2    1    2    0    0  0.30309018875E+03  0.53860934695E+03 -0.11454646858E+04  0.13044633384E+04  0.87014732658E+02 0.  0.
         13    1    3    3    0    0  0.77366735730E+02  0.88263314262E+02 -0.27010711462E+03  0.29450615921E+03  0.00000000000E+00 0. -1.
        -13    1    3    3    0    0  0.22572345302E+03  0.45034603269E+03 -0.87535757120E+03  0.10099571792E+04  0.00000000000E+00 0.  1.
         22    1    1    2    0    0 -0.30309018875E+03 -0.53860934695E+03  0.84593835886E+03  0.10476523269E+04  0.00000000000E+00 0.  1.
<mgrwt>
<rscale>  0 0.23329664E+04</rscale>
<asrwt>0</asrwt>
<pdfrwt beam="1">  1        2 0.15789149E+00 0.23329664E+04</pdfrwt>
<pdfrwt beam="2">  1       -2 0.20397246E+00 0.23329664E+04</pdfrwt>
<totfact> 0.27441318E+00</totfact>
</mgrwt>
</event>
<event>
 6    1  0.4630212E-004  0.1828386E+04  0.7818608E-02  0.8691348E-01
          2   -1    0    0  501    0  0.00000000000E+00  0.00000000000E+00  0.11319015171E+04  0.11319015171E+04  0.00000000000E+00 0.  1.
         -2   -1    0    0    0  501 -0.00000000000E+00 -0.00000000000E+00 -0.73835857058E+03  0.73835857058E+03  0.00000000000E+00 0. -1.
         23    2    1    2    0    0 -0.66997605922E+03 -0.36202537332E+03 -0.31370691896E+03  0.83096577755E+03  0.11028055860E+03 0.  0.
         11    1    3    3    0    0 -0.28046109994E+03 -0.14977173831E+03 -0.72782368821E+02  0.32617062312E+03  0.00000000000E+00 0.  1.
        -11    1    3    3    0    0 -0.38951495928E+03 -0.21225363501E+03 -0.24092455014E+03  0.50479515443E+03  0.00000000000E+00 0. -1.
         22    1    1    2    0    0  0.66997605922E+03  0.36202537332E+03  0.70724986553E+03  0.10392943102E+04  0.00000000000E+00 0.  1.
<mgrwt>
<rscale>  0 0.18283864E+04</rscale>
<asrwt>0</asrwt>
<pdfrwt beam="1">  1        2 0.17413869E+00 0.18283864E+04</pdfrwt>
<pdfrwt beam="2">  1       -2 0.11359363E+00 0.18283864E+04</pdfrwt>
<totfact> 0.11920687E+01</totfact>
</mgrwt>
</event>
<event>
 6    1  0.4630212E-004  0.2201374E+04  0.7818608E-02  0.8517856E-01
         -1   -1    0    0    0  501 -0.00000000000E+00  0.00000000000E+00  0.73378444268E+03  0.73378444268E+03  0.00000000000E+00 0.  1.
          1   -1    0    0  501    0  0.00000000000E+00 -0.00000000000E+00 -0.16510464441E+04  0.16510464441E+04  0.00000000000E+00 0. -1.
         23    2    1    2    0    0  0.57954140440E+03 -0.33279032910E+03 -0.14043061951E+04  0.15578909317E+04  0.91272247064E+02 0.  0.
         11    1    3    3    0    0  0.28117797796E+03 -0.12950770931E+03 -0.56552806877E+03  0.64471334609E+03  0.00000000000E+00 0. -1.
        -11    1    3    3    0    0  0.29836342644E+03 -0.20328261979E+03 -0.83877812633E+03  0.91317758566E+03  0.00000000000E+00 0.  1.
         22    1    1    2    0    0 -0.57954140440E+03  0.33279032910E+03  0.48704419371E+03  0.82693995500E+03  0.00000000000E+00 0.  1.
<mgrwt>
<rscale>  0 0.22013743E+04</rscale>
<asrwt>0</asrwt>
<pdfrwt beam="1">  1        1 0.25400715E+00 0.22013743E+04</pdfrwt>
<pdfrwt beam="2">  1       -1 0.11288991E+00 0.22013743E+04</pdfrwt>
<totfact> 0.33670534E+00</totfact>
</mgrwt>
</event>
<event>
 6    1  0.4630212E-004  0.2083228E+04  0.7818608E-02  0.8568668E-01
         -1   -1    0    0    0  501 -0.00000000000E+00  0.00000000000E+00  0.15607861276E+04  0.15607861276E+04  0.00000000000E+00 0.  1.
          1   -1    0    0  501    0  0.00000000000E+00 -0.00000000000E+00 -0.69513681262E+03  0.69513681262E+03  0.00000000000E+00 0. -1.
         23    2    1    2    0    0  0.95399531775E+03  0.15718309994E+03  0.19656906938E+02  0.97119855435E+03  0.89591544133E+02 0.  0.
         13    1    3    3    0    0  0.83171219265E+03  0.15347461277E+03 -0.79141281046E+01  0.84579090891E+03  0.00000000000E+00 0. -1.
        -13    1    3    3    0    0  0.12228312510E+03  0.37084871701E+01  0.27571035043E+02  0.12540764544E+03  0.00000000000E+00 0.  1.
         22    1    1    2    0    0 -0.95399531775E+03 -0.15718309994E+03  0.84599240804E+03  0.12847243859E+04  0.00000000000E+00 0.  1.
<mgrwt>
<rscale>  0 0.20832282E+04</rscale>
<asrwt>0</asrwt>
<pdfrwt beam="1">  1        1 0.10694413E+00 0.20832282E+04</pdfrwt>
<pdfrwt beam="2">  1       -1 0.24012094E+00 0.20832282E+04</pdfrwt>
<totfact> 0.20520980E+00</totfact>
</mgrwt>
</event>
<event>
 6    1  0.4630212E-004  0.1917931E+04  0.7818608E-02  0.8645982E-01
          2   -1    0    0  501    0  0.00000000000E+00  0.00000000000E+00  0.15229691090E+04  0.15229691090E+04  0.00000000000E+00 0.  1.
         -2   -1    0    0    0  501 -0.00000000000E+00 -0.00000000000E+00 -0.60383003373E+03  0.60383003373E+03  0.00000000000E+00 0. -1.
         23    2    1    2    0    0 -0.36289930342E+03  0.90478360176E+01 -0.52156722535E+03  0.64106282279E+03  0.84565976876E+02 0.  0.
         11    1    3    3    0    0 -0.32252996587E+03 -0.16586050472E+02 -0.43015187330E+03  0.53789525937E+03  0.00000000000E+00 0.  1.
        -11    1    3    3    0    0 -0.40369337553E+02  0.25633886490E+02 -0.91415352048E+02  0.10316756342E+03  0.00000000000E+00 0. -1.
         22    1    1    2    0    0  0.36289930342E+03 -0.90478360176E+01  0.14407063006E+04  0.14857363200E+04  0.00000000000E+00 0.  1.
<mgrwt>
<rscale>  0 0.19179306E+04</rscale>
<asrwt>0</asrwt>
<pdfrwt beam="1">  1        2 0.23430294E+00 0.19179306E+04</pdfrwt>
<pdfrwt beam="2">  1       -2 0.92896929E-01 0.19179306E+04</pdfrwt>
<totfact> 0.11315334E+01</totfact>
</mgrwt>
</event>
<event>
 6    1  0.4630212E-004  0.3370159E+04  0.7818608E-02  0.8145269E-01
         -2   -1    0    0    0  501 -0.00000000000E+00  0.00000000000E+00  0.93075191074E+03  0.93075191074E+03  0.00000000000E+00 0. -1.
          2   -1    0    0  501    0  0.00000000000E+00 -0.00000000000E+00 -0.30507514290E+04  0.30507514290E+04  0.00000000000E+00 0.  1.
         23    2    1    2    0    0  0.35746777485E+03 -0.11996242466E+04  0.26981949567E+03  0.12837048924E+04  0.90631934814E+02 0.  0.
         11    1    3    3    0    0  0.15549755137E+03 -0.45580074723E+03  0.63121684551E+02  0.48571406889E+03  0.00000000000E+00 0. -1.
        -11    1    3    3    0    0  0.20197022348E+03 -0.74382349933E+03  0.20669781112E+03  0.79799082354E+03  0.00000000000E+00 0.  1.
         22    1    1    2    0    0 -0.35746777485E+03  0.11996242466E+04 -0.23898190139E+04  0.26977984473E+04  0.00000000000E+00 0.  1.
<mgrwt>
<rscale>  0 0.33701589E+04</rscale>
<asrwt>0</asrwt>
<pdfrwt beam="1">  1        2 0.46934638E+00 0.33701589E+04</pdfrwt>
<pdfrwt beam="2">  1       -2 0.14319260E+00 0.33701589E+04</pdfrwt>
<totfact> 0.45451199E-01</totfact>
</mgrwt>
</event>
<event>
 6    1  0.4630212E-004  0.9662735E+03  0.7818608E-02  0.9346329E-01
         -2   -1    0    0    0  501 -0.00000000000E+00  0.00000000000E+00  0.54107708710E+03  0.54107708710E+03  0.00000000000E+00 0. -1.
          2   -1    0    0  501    0  0.00000000000E+00 -0.00000000000E+00 -0.43140086446E+03  0.43140086446E+03  0.00000000000E+00 0.  1.
         23    2    1    2    0    0  0.37577356021E+03  0.23511289844E+03  0.23786595883E+03  0.51104924413E+03  0.90040390871E+02 0.  0.
         13    1    3    3    0    0  0.30598149076E+03  0.19670306128E+03  0.23141299535E+03  0.43112497193E+03  0.00000000000E+00 0. -1.
        -13    1    3    3    0    0  0.69792069451E+02  0.38409837161E+02  0.64529634796E+01  0.79924272200E+02  0.00000000000E+00 0.  1.
         22    1    1    2    0    0 -0.37577356021E+03 -0.23511289844E+03 -0.12818973619E+03  0.46142870742E+03  0.00000000000E+00 0. -1.
<mgrwt>
<rscale>  0 0.96627351E+03</rscale>
<asrwt>0</asrwt>
<pdfrwt beam="1">  1        2 0.66369364E-01 0.96627351E+03</pdfrwt>
<pdfrwt beam="2">  1       -2 0.83242629E-01 0.96627351E+03</pdfrwt>
<totfact> 0.92292089E+01</totfact>
</mgrwt>
</event>
<event>
 6    1  0.4630212E-004  0.2267219E+04  0.7818608E-02  0.8490959E-01
         -2   -1    0    0    0  501 -0.00000000000E+00  0.00000000000E+00  0.73932239069E+03  0.73932239069E+03  0.00000000000E+00 0. -1.
          2   -1    0    0  501    0  0.00000000000E+00 -0.00000000000E+00 -0.17381733618E+04  0.17381733618E+04  0.00000000000E+00 0.  1.
         23    2    1    2    0    0 -0.68800697380E+03 -0.84278068940E+03 -0.15931027123E+03  0.11032827147E+04  0.90664765330E+02 0.  0.
         13    1    3    3    0    0 -0.30363105395E+03 -0.30631926612E+03 -0.47242534090E+02  0.43388381710E+03  0.00000000000E+00 0. -1.
        -13    1    3    3    0    0 -0.38437591985E+03 -0.53646142328E+03 -0.11206773714E+03  0.66939889762E+03  0.00000000000E+00 0.  1.
         22    1    1    2    0    0  0.68800697380E+03  0.84278068940E+03 -0.83954069988E+03  0.13742130378E+04  0.00000000000E+00 0.  1.
<mgrwt>
<rscale>  0 0.22672190E+04</rscale>
<asrwt>0</asrwt>
<pdfrwt beam="1">  1        2 0.26741129E+00 0.22672190E+04</pdfrwt>
<pdfrwt beam="2">  1       -2 0.11374191E+00 0.22672190E+04</pdfrwt>
<totfact> 0.51424466E+00</totfact>
</mgrwt>
</event>
<event>
 6    1  0.4630212E-004  0.7421171E+03  0.7818608E-02  0.9647799E-01
         -2   -1    0    0    0  501 -0.00000000000E+00  0.00000000000E+00  0.21487916536E+03  0.21487916536E+03  0.00000000000E+00 0. -1.
          2   -1    0    0  501    0  0.00000000000E+00 -0.00000000000E+00 -0.64075288149E+03  0.64075288149E+03  0.00000000000E+00 0.  1.
         23    2    1    2    0    0 -0.38220221902E+02 -0.12066202285E+03 -0.61135864063E+03  0.63107745140E+03  0.92082859795E+02 0.  0.
         13    1    3    3    0    0 -0.49766898317E+02 -0.30063533451E+02 -0.33527861620E+03  0.34028269232E+03  0.00000000000E+00 0.  1.
        -13    1    3    3    0    0  0.11546676415E+02 -0.90598489394E+02 -0.27608002444E+03  0.29079475908E+03  0.00000000000E+00 0. -1.
         22    1    1    2    0    0  0.38220221902E+02  0.12066202285E+03  0.18548492450E+03  0.22455459545E+03  0.00000000000E+00 0. -1.
<mgrwt>
<rscale>  0 0.74211709E+03</rscale>
<asrwt>0</asrwt>
<pdfrwt beam="1">  1        2 0.98577366E-01 0.74211709E+03</pdfrwt>
<pdfrwt beam="2">  1       -2 0.33058333E-01 0.74211709E+03</pdfrwt>
<totfact> 0.39330210E+02</totfact>
</mgrwt>
</event>
<event>
 6    1  0.4630212E-004  0.4326562E+04  0.7818608E-02  0.7941725E-01
          2   -1    0    0  501    0  0.00000000000E+00  0.00000000000E+00  0.34649385809E+04  0.34649385809E+04  0.00000000000E+00 0.  1.
         -2   -1    0    0    0  501 -0.00000000000E+00 -0.00000000000E+00 -0.13506111867E+04  0.13506111867E+04  0.00000000000E+00 0. -1.
         23    2    1    2    0    0  0.37972098462E+03 -0.18887243506E+04 -0.34068440669E+02  0.19298830574E+04  0.10872101037E+03 0.  0.
         13    1    3    3    0    0  0.91976255068E+02 -0.47894081813E+03 -0.55765732976E+02  0.49087040626E+03  0.00000000000E+00 0. -1.
        -13    1    3    3    0    0  0.28774472955E+03 -0.14097835324E+04  0.21697292306E+02  0.14390126512E+04  0.00000000000E+00 0.  1.
         22    1    1    2    0    0 -0.37972098462E+03  0.18887243506E+04  0.21483958349E+04  0.28856667101E+04  0.00000000000E+00 0.  1.
<mgrwt>
<rscale>  0 0.43265621E+04</rscale>
<asrwt>0</asrwt>
<pdfrwt beam="1">  1        2 0.53306747E+00 0.43265621E+04</pdfrwt>
<pdfrwt beam="2">  1       -2 0.20778634E+00 0.43265621E+04</pdfrwt>
<totfact> 0.78067070E-02</totfact>
</mgrwt>
</event>
<event>
 6    1  0.4630212E-004  0.5690149E+04  0.7818608E-02  0.7730053E-01
         -2   -1    0    0    0  501 -0.00000000000E+00  0.00000000000E+00  0.32738099974E+04  0.32738099974E+04  0.00000000000E+00 0. -1.
          2   -1    0    0  501    0  0.00000000000E+00 -0.00000000000E+00 -0.24724857123E+04  0.24724857123E+04  0.00000000000E+00 0.  1.
         23    2    1    2    0    0 -0.19766799107E+03  0.88791762832E+03  0.31223391914E+04  0.32533896656E+04  0.89843978442E+02 0.  0.
         13    1    3    3    0    0 -0.14922174887E+03  0.70305996020E+03  0.23300353867E+04  0.24383653010E+04  0.00000000000E+00 0. -1.
        -13    1    3    3    0    0 -0.48446242193E+02  0.18485766812E+03  0.79230380474E+03  0.81502436458E+03  0.00000000000E+00 0.  1.
         22    1    1    2    0    0  0.19766799107E+03 -0.88791762832E+03 -0.23210149064E+04  0.24929060442E+04  0.00000000000E+00 0.  1.
<mgrwt>
<rscale>  0 0.56901488E+04</rscale>
<asrwt>0</asrwt>
<pdfrwt beam="1">  1        2 0.38038242E+00 0.56901488E+04</pdfrwt>
<pdfrwt beam="2">  1       -2 0.50366308E+00 0.56901488E+04</pdfrwt>
<totfact> 0.39403699E-03</totfact>
</mgrwt>
</event>
<event>
 6    1  0.4630212E-004  0.2567299E+04  0.7818608E-02  0.8379395E-01
         -2   -1    0    0    0  501 -0.00000000000E+00  0.00000000000E+00  0.43732925926E+03  0.43732925926E+03  0.00000000000E+00 0. -1.
          2   -1    0    0  501    0  0.00000000000E+00 -0.00000000000E+00 -0.37677702073E+04  0.37677702073E+04  0.00000000000E+00 0.  1.
         23    2    1    2    0    0  0.10736272039E+04  0.50346857604E+03 -0.86864106100E+03  0.14725887779E+04  0.88455842112E+02 0.  0.
         13    1    3    3    0    0  0.26253287631E+03  0.83689833934E+02 -0.21481533760E+03  0.34938965170E+03  0.00000000000E+00 0.  1.
        -13    1    3    3    0    0  0.81109432755E+03  0.41977874210E+03 -0.65382572341E+03  0.11231991262E+04  0.00000000000E+00 0. -1.
         22    1    1    2    0    0 -0.10736272039E+04 -0.50346857604E+03 -0.24617998871E+04  0.27325106887E+04  0.00000000000E+00 0.  1.
<mgrwt>
<rscale>  0 0.25672991E+04</rscale>
<asrwt>0</asrwt>
<pdfrwt beam="1">  1        2 0.57965695E+00 0.25672991E+04</pdfrwt>
<pdfrwt beam="2">  1       -2 0.67281425E-01 0.25672991E+04</pdfrwt>
<totfact> 0.93537558E-01</totfact>
</mgrwt>
</event>
<event>
 6    1  0.4630212E-004  0.1807713E+04  0.7818608E-02  0.8702209E-01
          2   -1    0    0  501    0  0.00000000000E+00  0.00000000000E+00  0.47247201339E+03  0.47247201339E+03  0.00000000000E+00 0.  1.
         -2   -1    0    0    0  501 -0.00000000000E+00 -0.00000000000E+00 -0.17291104019E+04  0.17291104019E+04  0.00000000000E+00 0. -1.
         23    2    1    2    0    0 -0.30836516457E+03 -0.21903617656E+03  0.36645373770E+03  0.53500089266E+03  0.94189659252E+02 0.  0.
         13    1    3    3    0    0 -0.13404637275E+03 -0.11594009873E+03  0.23183207017E+03  0.29181611556E+03  0.00000000000E+00 0. -1.
        -13    1    3    3    0    0 -0.17431879182E+03 -0.10309607782E+03  0.13462166754E+03  0.24318477710E+03  0.00000000000E+00 0.  1.
         22    1    1    2    0    0  0.30836516457E+03  0.21903617656E+03 -0.16230921262E+04  0.16665815226E+04  0.00000000000E+00 0. -1.
<mgrwt>
<rscale>  0 0.18077127E+04</rscale>
<asrwt>0</asrwt>
<pdfrwt beam="1">  1        2 0.72688003E-01 0.18077127E+04</pdfrwt>
<pdfrwt beam="2">  1       -2 0.26601698E+00 0.18077127E+04</pdfrwt>
<totfact> 0.31816388E+00</totfact>
</mgrwt>
</event>
<event>
 6    1  0.4630212E-004  0.2926823E+04  0.7818608E-02  0.8264941E-01
          2   -1    0    0  501    0  0.00000000000E+00  0.00000000000E+00  0.15033154724E+04  0.15033154724E+04  0.00000000000E+00 0.  1.
         -2   -1    0    0    0  501 -0.00000000000E+00 -0.00000000000E+00 -0.14245664158E+04  0.14245664158E+04  0.00000000000E+00 0. -1.
         23    2    1    2    0    0  0.18243143895E+03 -0.50282155324E+03 -0.13216299053E+04  0.14288248574E+04  0.93403009746E+02 0.  0.
         13    1    3    3    0    0  0.16612769557E+03 -0.33532221260E+03 -0.88348678728E+03  0.95947292864E+03  0.00000000000E+00 0.  1.
        -13    1    3    3    0    0  0.16303743378E+02 -0.16749934064E+03 -0.43814311806E+03  0.46935192880E+03  0.00000000000E+00 0. -1.
         22    1    1    2    0    0 -0.18243143895E+03  0.50282155324E+03  0.14003789620E+04  0.14990570308E+04  0.00000000000E+00 0.  1.
<mgrwt>
<rscale>  0 0.29268227E+04</rscale>
<asrwt>0</asrwt>
<pdfrwt beam="1">  1        2 0.23127930E+00 0.29268227E+04</pdfrwt>
<pdfrwt beam="2">  1       -2 0.21916406E+00 0.29268227E+04</pdfrwt>
<totfact> 0.10890639E+00</totfact>
</mgrwt>
</event>
<event>
 6    1  0.4630212E-004  0.9984513E+03  0.7818608E-02  0.9310245E-01
         -2   -1    0    0    0  501 -0.00000000000E+00  0.00000000000E+00  0.10270646147E+03  0.10270646147E+03  0.00000000000E+00 0. -1.
          2   -1    0    0  501    0  0.00000000000E+00 -0.00000000000E+00 -0.24265877186E+04  0.24265877186E+04  0.00000000000E+00 0.  1.
         23    2    1    2    0    0  0.30415449999E+03  0.21588473317E+03 -0.34828568012E+03  0.51879820599E+03  0.93447769791E+02 0.  0.
         13    1    3    3    0    0  0.16243267397E+03  0.12042189460E+03 -0.25048714905E+03  0.32191554500E+03  0.00000000000E+00 0. -1.
        -13    1    3    3    0    0  0.14172182602E+03  0.95462838572E+02 -0.97798531066E+02  0.19688266099E+03  0.00000000000E+00 0.  1.
         22    1    1    2    0    0 -0.30415449999E+03 -0.21588473317E+03 -0.19755955770E+04  0.20104959741E+04  0.00000000000E+00 0.  1.
<mgrwt>
<rscale>  0 0.99845128E+03</rscale>
<asrwt>0</asrwt>
<pdfrwt beam="1">  1        2 0.37332115E+00 0.99845128E+03</pdfrwt>
<pdfrwt beam="2">  1       -2 0.15800996E-01 0.99845128E+03</pdfrwt>
<totfact> 0.12453295E+02</totfact>
</mgrwt>
</event>
<event>
 6    1  0.4630212E-004  0.8638690E+03  0.7818608E-02  0.9471909E-01
         -2   -1    0    0    0  501 -0.00000000000E+00  0.00000000000E+00  0.53186359341E+03  0.53186359341E+03  0.00000000000E+00 0.  1.
          2   -1    0    0  501    0  0.00000000000E+00 -0.00000000000E+00 -0.35078055339E+03  0.35078055339E+03  0.00000000000E+00 0. -1.
         23    2    1    2    0    0  0.41915760897E+02 -0.36971577762E+03  0.30640000706E+03  0.49002342720E+03  0.88291039476E+02 0.  0.
         11    1    3    3    0    0  0.34174737176E+02 -0.32251269306E+03  0.22203637871E+03  0.39304262277E+03  0.00000000000E+00 0.  1.
        -11    1    3    3    0    0  0.77410237211E+01 -0.47203084559E+02  0.84363628345E+02  0.96980804429E+02  0.00000000000E+00 0. -1.
         22    1    1    2    0    0 -0.41915760897E+02  0.36971577762E+03 -0.12531696704E+03  0.39262071960E+03  0.00000000000E+00 0. -1.
<mgrwt>
<rscale>  0 0.86386898E+03</rscale>
<asrwt>0</asrwt>
<pdfrwt beam="1">  1        2 0.53966239E-01 0.86386898E+03</pdfrwt>
<pdfrwt beam="2">  1       -2 0.81825168E-01 0.86386898E+03</pdfrwt>
<totfact> 0.12174603E+02</totfact>
</mgrwt>
</event>
<event>
 6    1  0.4630212E-004  0.1735537E+04  0.7818608E-02  0.8741352E-01
         -4   -1    0    0    0  501 -0.00000000000E+00  0.00000000000E+00  0.15636488179E+04  0.15636488179E+04  0.00000000000E+00 0. -1.
          4   -1    0    0  501    0  0.00000000000E+00 -0.00000000000E+00 -0.48158033021E+03  0.48158033021E+03  0.00000000000E+00 0.  1.
         23    2    1    2    0    0  0.41667753814E+03 -0.19879762840E+03  0.14050407634E+04  0.14818005735E+04  0.91938702287E+02 0.  0.
         13    1    3    3    0    0  0.81529683489E+02 -0.39833286423E+01  0.29144510553E+03  0.30266021499E+03  0.00000000000E+00 0. -1.
        -13    1    3    3    0    0  0.33514785465E+03 -0.19481429975E+03  0.11135956578E+04  0.11791403585E+04  0.00000000000E+00 0.  1.
         22    1    1    2    0    0 -0.41667753814E+03  0.19879762840E+03 -0.32297227568E+03  0.56342857463E+03  0.00000000000E+00 0.  1.
<mgrwt>
<rscale>  0 0.17355374E+04</rscale>
<asrwt>0</asrwt>
<pdfrwt beam="1">  1        4 0.74089282E-01 0.17355374E+04</pdfrwt>
<pdfrwt beam="2">  1       -4 0.24056136E+00 0.17355374E+04</pdfrwt>
<totfact> 0.22674146E-01</totfact>
</mgrwt>
</event>
<event>
 6    1  0.4630212E-004  0.6604868E+04  0.7818608E-02  0.7619618E-01
          2   -1    0    0  501    0  0.00000000000E+00  0.00000000000E+00  0.33195396513E+04  0.33195396513E+04  0.00000000000E+00 0.  1.
         -2   -1    0    0    0  501 -0.00000000000E+00 -0.00000000000E+00 -0.32854163516E+04  0.32854163516E+04  0.00000000000E+00 0. -1.
         23    2    1    2    0    0  0.88425532175E+03  0.29644786957E+04  0.11711937312E+04  0.33090539143E+04  0.90009112211E+02 0.  0.
         11    1    3    3    0    0  0.34616464461E+03  0.10390265004E+04  0.38737578733E+03  0.11616651971E+04  0.00000000000E+00 0. -1.
        -11    1    3    3    0    0  0.53809067713E+03  0.19254521954E+04  0.78381794388E+03  0.21473887172E+04  0.00000000000E+00 0.  1.
         22    1    1    2    0    0 -0.88425532175E+03 -0.29644786957E+04 -0.11370704315E+04  0.32959020886E+04  0.00000000000E+00 0. -1.
<mgrwt>
<rscale>  0 0.66048679E+04</rscale>
<asrwt>0</asrwt>
<pdfrwt beam="1">  1        2 0.51069841E+00 0.66048679E+04</pdfrwt>
<pdfrwt beam="2">  1       -2 0.50544867E+00 0.66048679E+04</pdfrwt>
<totfact> 0.10746241E-03</totfact>
</mgrwt>
</event>
<event>
 6    1  0.4630212E-004  0.2745801E+04  0.7818608E-02  0.8320295E-01
         -2   -1    0    0    0  501 -0.00000000000E+00  0.00000000000E+00  0.10262678247E+04  0.10262678247E+04  0.00000000000E+00 0. -1.
          2   -1    0    0  501    0  0.00000000000E+00 -0.00000000000E+00 -0.18366115058E+04  0.18366115058E+04  0.00000000000E+00 0.  1.
         23    2    1    2    0    0 -0.13464549606E+04  0.21001957944E+03 -0.24555370132E+03  0.13877397079E+04  0.92063520379E+02 0.  0.
         13    1    3    3    0    0 -0.51809284137E+03  0.10955442366E+03 -0.60114308458E+02  0.53295036739E+03  0.00000000000E+00 0. -1.
        -13    1    3    3    0    0 -0.82836211926E+03  0.10046515578E+03 -0.18543939286E+03  0.85478934047E+03  0.00000000000E+00 0.  1.
         22    1    1    2    0    0  0.13464549606E+04 -0.21001957944E+03 -0.56478997979E+03  0.14751396226E+04  0.00000000000E+00 0.  1.
<mgrwt>
<rscale>  0 0.27458006E+04</rscale>
<asrwt>0</asrwt>
<pdfrwt beam="1">  1        2 0.28255561E+00 0.27458006E+04</pdfrwt>
<pdfrwt beam="2">  1       -2 0.15788736E+00 0.27458006E+04</pdfrwt>
<totfact> 0.18798276E+00</totfact>
</mgrwt>
</event>
<event>
 6    1  0.4630212E-004  0.1191519E+04  0.7818608E-02  0.9120313E-01
          1   -1    0    0  501    0  0.00000000000E+00  0.00000000000E+00  0.58698955857E+03  0.58698955857E+03  0.00000000000E+00 0.  1.
         -1   -1    0    0    0  501 -0.00000000000E+00 -0.00000000000E+00 -0.60466015880E+03  0.60466015880E+03  0.00000000000E+00 0. -1.
         23    2    1    2    0    0  0.21433054166E+03 -0.17731433690E+03  0.51405909633E+03  0.59155437048E+03  0.91114562783E+02 0.  0.
         13    1    3    3    0    0  0.19161236080E+03 -0.16760176909E+03  0.39476612470E+03  0.46972964887E+03  0.00000000000E+00 0.  1.
        -13    1    3    3    0    0  0.22718180861E+02 -0.97125678111E+01  0.11929297163E+03  0.12182472161E+03  0.00000000000E+00 0. -1.
         22    1    1    2    0    0 -0.21433054166E+03  0.17731433690E+03 -0.53172969656E+03  0.60009534689E+03  0.00000000000E+00 0. -1.
<mgrwt>
<rscale>  0 0.11915187E+04</rscale>
<asrwt>0</asrwt>
<pdfrwt beam="1">  1        1 0.90306086E-01 0.11915187E+04</pdfrwt>
<pdfrwt beam="2">  1       -1 0.93024640E-01 0.11915187E+04</pdfrwt>
<totfact> 0.39314863E+01</totfact>
</mgrwt>
</event>
<event>
 6    1  0.4630212E-004  0.1315795E+04  0.7818608E-02  0.9017132E-01
         -2   -1    0    0    0  501 -0.00000000000E+00  0.00000000000E+00  0.38151514492E+03  0.38151514492E+03  0.00000000000E+00 0. -1.
          2   -1    0    0  501    0  0.00000000000E+00 -0.00000000000E+00 -0.11345011889E+04  0.11345011889E+04  0.00000000000E+00 0.  1.
         23    2    1    2    0    0  0.30645960213E+03  0.30781561627E+03  0.18314381656E+03  0.48402454260E+03  0.10986427506E+03 0.  0.
         13    1    3    3    0    0  0.61535978118E+02  0.19279139557E+02  0.21996951604E+01  0.64522867913E+02  0.00000000000E+00 0.  1.
        -13    1    3    3    0    0  0.24492362401E+03  0.28853647671E+03  0.18094412140E+03  0.41950167468E+03  0.00000000000E+00 0. -1.
         22    1    1    2    0    0 -0.30645960213E+03 -0.30781561627E+03 -0.93612986054E+03  0.10319917912E+04  0.00000000000E+00 0.  1.
<mgrwt>
<rscale>  0 0.13157954E+04</rscale>
<asrwt>0</asrwt>
<pdfrwt beam="1">  1        2 0.17453865E+00 0.13157954E+04</pdfrwt>
<pdfrwt beam="2">  1       -2 0.58694637E-01 0.13157954E+04</pdfrwt>
<totfact> 0.55117439E+01</totfact>
</mgrwt>
</event>
<event>
 6    1  0.4630212E-004  0.2233487E+04  0.7818608E-02  0.8504618E-01
         -4   -1    0    0    0  501 -0.00000000000E+00  0.00000000000E+00  0.95427843634E+03  0.95427843634E+03  0.00000000000E+00 0. -1.
          4   -1    0    0  501    0  0.00000000000E+00 -0.00000000000E+00 -0.13068678114E+04  0.13068678114E+04  0.00000000000E+00 0.  1.
         23    2    1    2    0    0 -0.79680449034E+01  0.55770381687E+03  0.80069257080E+03  0.98007002684E+03  0.91277749134E+02 0.  0.
         13    1    3    3    0    0 -0.41818502805E+02  0.22080063637E+03  0.28109313331E+03  0.35988200538E+03  0.00000000000E+00 0. -1.
        -13    1    3    3    0    0  0.33850457901E+02  0.33690318050E+03  0.51959943749E+03  0.62018802146E+03  0.00000000000E+00 0.  1.
         22    1    1    2    0    0  0.79680449034E+01 -0.55770381687E+03 -0.11532819458E+04  0.12810762209E+04  0.00000000000E+00 0.  1.
<mgrwt>
<rscale>  0 0.22334868E+04</rscale>
<asrwt>0</asrwt>
<pdfrwt beam="1">  1        4 0.20105659E+00 0.22334868E+04</pdfrwt>
<pdfrwt beam="2">  1       -4 0.14681207E+00 0.22334868E+04</pdfrwt>
<totfact> 0.74383184E-02</totfact>
</mgrwt>
</event>
<event>
 6    1  0.4630212E-004  0.2617880E+04  0.7818608E-02  0.8362153E-01
          2   -1    0    0  501    0  0.00000000000E+00  0.00000000000E+00  0.22641380249E+04  0.22641380249E+04  0.00000000000E+00 0.  1.
         -2   -1    0    0    0  501 -0.00000000000E+00 -0.00000000000E+00 -0.75672222092E+03  0.75672222092E+03  0.00000000000E+00 0. -1.
         23    2    1    2    0    0 -0.43543125495E+02  0.12283209770E+04  0.24050689506E+03  0.12557181524E+04  0.91192573678E+02 0.  0.
         13    1    3    3    0    0 -0.71841175815E+01  0.93437450643E+03  0.21210276294E+03  0.95817269417E+03  0.00000000000E+00 0. -1.
        -13    1    3    3    0    0 -0.36359007914E+02  0.29394647057E+03  0.28404132117E+02  0.29754545828E+03  0.00000000000E+00 0.  1.
         22    1    1    2    0    0  0.43543125495E+02 -0.12283209770E+04  0.12669089089E+04  0.17651420934E+04  0.00000000000E+00 0.  1.
<mgrwt>
<rscale>  0 0.26178797E+04</rscale>
<asrwt>0</asrwt>
<pdfrwt beam="1">  1        2 0.34832892E+00 0.26178797E+04</pdfrwt>
<pdfrwt beam="2">  1       -2 0.11641880E+00 0.26178797E+04</pdfrwt>
<totfact> 0.24008542E+00</totfact>
</mgrwt>
</event>
<event>
 6    1  0.4630212E-004  0.2031758E+04  0.7818608E-02  0.8591915E-01
         -2   -1    0    0    0  501 -0.00000000000E+00  0.00000000000E+00  0.39189877657E+03  0.39189877657E+03  0.00000000000E+00 0.  1.
          2   -1    0    0  501    0  0.00000000000E+00 -0.00000000000E+00 -0.26333585921E+04  0.26333585921E+04  0.00000000000E+00 0. -1.
         23    2    1    2    0    0 -0.59727504971E+03  0.23985539216E+03 -0.22893301502E+04  0.23798430342E+04  0.91390573941E+02 0.  0.
         13    1    3    3    0    0 -0.22414373471E+03  0.12513585622E+03 -0.79838401268E+03  0.83863962941E+03  0.00000000000E+00 0.  1.
        -13    1    3    3    0    0 -0.37313131500E+03  0.11471953594E+03 -0.14909461375E+04  0.15412034048E+04  0.00000000000E+00 0. -1.
         22    1    1    2    0    0  0.59727504971E+03 -0.23985539216E+03  0.47870334621E+02  0.64541433444E+03  0.00000000000E+00 0.  1.
<mgrwt>
<rscale>  0 0.20317579E+04</rscale>
<asrwt>0</asrwt>
<pdfrwt beam="1">  1        2 0.40513210E+00 0.20317579E+04</pdfrwt>
<pdfrwt beam="2">  1       -2 0.60292118E-01 0.20317579E+04</pdfrwt>
<totfact> 0.69149237E+00</totfact>
</mgrwt>
</event>
<event>
 6    1  0.4630212E-004  0.4122257E+04  0.7818608E-02  0.7980328E-01
          2   -1    0    0  501    0  0.00000000000E+00  0.00000000000E+00  0.13435326252E+04  0.13435326252E+04  0.00000000000E+00 0.  1.
         -2   -1    0    0    0  501 -0.00000000000E+00 -0.00000000000E+00 -0.31620001806E+04  0.31620001806E+04  0.00000000000E+00 0. -1.
         23    2    1    2    0    0 -0.26280713099E+03  0.10509639221E+04  0.10056453796E+04  0.14807672574E+04  0.88069787622E+02 0.  0.
         13    1    3    3    0    0 -0.19301307671E+03  0.60104748316E+03  0.56640211590E+03  0.84812940150E+03  0.00000000000E+00 0. -1.
        -13    1    3    3    0    0 -0.69794054284E+02  0.44991643890E+03  0.43924326369E+03  0.63263785589E+03  0.00000000000E+00 0.  1.
         22    1    1    2    0    0  0.26280713099E+03 -0.10509639221E+04 -0.28241129350E+04  0.30247655485E+04  0.00000000000E+00 0. -1.
<mgrwt>
<rscale>  0 0.41222569E+04</rscale>
<asrwt>0</asrwt>
<pdfrwt beam="1">  1        2 0.20669733E+00 0.41222569E+04</pdfrwt>
<pdfrwt beam="2">  1       -2 0.48646156E+00 0.41222569E+04</pdfrwt>
<totfact> 0.24488982E-02</totfact>
</mgrwt>
</event>
<event>
 6    1  0.4630212E-004  0.2633424E+04  0.7818608E-02  0.8356936E-01
          2   -1    0    0  501    0  0.00000000000E+00  0.00000000000E+00  0.33646269569E+04  0.33646269569E+04  0.00000000000E+00 0.  1.
         -2   -1    0    0    0  501 -0.00000000000E+00 -0.00000000000E+00 -0.51528179988E+03  0.51528179988E+03  0.00000000000E+00 0. -1.
         23    2    1    2    0    0  0.42291493090E+03 -0.12370751939E+04  0.12122535778E+04  0.17848476806E+04  0.83129006851E+02 0.  0.
         13    1    3    3    0    0  0.18263533530E+03 -0.45176467526E+03  0.41082661056E+03  0.63735821283E+03  0.00000000000E+00 0.  1.
        -13    1    3    3    0    0  0.24027959560E+03 -0.78531051867E+03  0.80142696723E+03  0.11474894678E+04  0.00000000000E+00 0. -1.
         22    1    1    2    0    0 -0.42291493090E+03  0.12370751939E+04  0.16370915793E+04  0.20950610762E+04  0.00000000000E+00 0.  1.
<mgrwt>
<rscale>  0 0.26334244E+04</rscale>
<asrwt>0</asrwt>
<pdfrwt beam="1">  1        2 0.51763490E+00 0.26334244E+04</pdfrwt>
<pdfrwt beam="2">  1       -2 0.79274125E-01 0.26334244E+04</pdfrwt>
<totfact> 0.12545969E+00</totfact>
</mgrwt>
</event>
<event>
 6    1  0.4630212E-004  0.2503587E+04  0.7818608E-02  0.8401709E-01
          2   -1    0    0  501    0  0.00000000000E+00  0.00000000000E+00  0.19209002410E+04  0.19209002410E+04  0.00000000000E+00 0.  1.
         -2   -1    0    0    0  501 -0.00000000000E+00 -0.00000000000E+00 -0.81575631891E+03  0.81575631891E+03  0.00000000000E+00 0. -1.
         23    2    1    2    0    0 -0.98239430142E+03 -0.45298985004E+03  0.12381595839E+04  0.16467063161E+04  0.91127209598E+02 0.  0.
         11    1    3    3    0    0 -0.71595275930E+03 -0.32895416013E+03  0.96131443697E+03  0.12429499748E+04  0.00000000000E+00 0.  1.
        -11    1    3    3    0    0 -0.26644154212E+03 -0.12403568992E+03  0.27684514697E+03  0.40375634130E+03  0.00000000000E+00 0. -1.
         22    1    1    2    0    0  0.98239430142E+03  0.45298985004E+03 -0.13301566188E+03  0.10899502438E+04  0.00000000000E+00 0. -1.
<mgrwt>
<rscale>  0 0.25035866E+04</rscale>
<asrwt>0</asrwt>
<pdfrwt beam="1">  1        2 0.29552311E+00 0.25035866E+04</pdfrwt>
<pdfrwt beam="2">  1       -2 0.12550097E+00 0.25035866E+04</pdfrwt>
<totfact> 0.31292352E+00</totfact>
</mgrwt>
</event>
<event>
 6    1  0.4630212E-004  0.2444024E+04  0.7818608E-02  0.8423203E-01
         -2   -1    0    0    0  501 -0.00000000000E+00  0.00000000000E+00  0.15524446186E+04  0.15524446186E+04  0.00000000000E+00 0. -1.
          2   -1    0    0  501    0  0.00000000000E+00 -0.00000000000E+00 -0.96191057072E+03  0.96191057072E+03  0.00000000000E+00 0.  1.
         23    2    1    2    0    0 -0.10124023449E+03  0.59425202872E+03 -0.79583470919E+03  0.10026001201E+04  0.92027483700E+02 0.  0.
         11    1    3    3    0    0 -0.38930721041E+02  0.12839785806E+03 -0.12408991439E+03  0.18275644407E+03  0.00000000000E+00 0.  1.
        -11    1    3    3    0    0 -0.62309513446E+02  0.46585417066E+03 -0.67174479480E+03  0.81984367604E+03  0.00000000000E+00 0. -1.
         22    1    1    2    0    0  0.10124023449E+03 -0.59425202872E+03  0.13863687570E+04  0.15117550692E+04  0.00000000000E+00 0. -1.
<mgrwt>
<rscale>  0 0.24440236E+04</rscale>
<asrwt>0</asrwt>
<pdfrwt beam="1">  1        2 0.14798624E+00 0.24440236E+04</pdfrwt>
<pdfrwt beam="2">  1       -2 0.23883763E+00 0.24440236E+04</pdfrwt>
<totfact> 0.17990707E+00</totfact>
</mgrwt>
</event>
<event>
 6    1  0.4630212E-004  0.2603821E+04  0.7818608E-02  0.8366904E-01
         -2   -1    0    0    0  501 -0.00000000000E+00  0.00000000000E+00  0.62170824811E+03  0.62170824811E+03  0.00000000000E+00 0. -1.
          2   -1    0    0  501    0  0.00000000000E+00 -0.00000000000E+00 -0.27263132671E+04  0.27263132671E+04  0.00000000000E+00 0.  1.
         23    2    1    2    0    0 -0.37961768674E+03  0.36301143039E+03  0.47593436038E+03  0.71456933696E+03  0.90603174657E+02 0.  0.
         13    1    3    3    0    0 -0.18363443382E+03  0.16182111070E+03  0.16296560147E+03  0.29405010528E+03  0.00000000000E+00 0.  1.
        -13    1    3    3    0    0 -0.19598325293E+03  0.20119031968E+03  0.31296875891E+03  0.42051923168E+03  0.00000000000E+00 0. -1.
         22    1    1    2    0    0  0.37961768674E+03 -0.36301143039E+03 -0.25805393794E+04  0.26334521783E+04  0.00000000000E+00 0.  1.
<mgrwt>
<rscale>  0 0.26038214E+04</rscale>
<asrwt>0</asrwt>
<pdfrwt beam="1">  1        2 0.41943282E+00 0.26038214E+04</pdfrwt>
<pdfrwt beam="2">  1       -2 0.95647421E-01 0.26038214E+04</pdfrwt>
<totfact> 0.20770048E+00</totfact>
</mgrwt>
</event>
<event>
 6    1  0.4630212E-004  0.1390065E+04  0.7818608E-02  0.8961042E-01
         -2   -1    0    0    0  501 -0.00000000000E+00  0.00000000000E+00  0.27857864265E+03  0.27857864265E+03  0.00000000000E+00 0. -1.
          2   -1    0    0  501    0  0.00000000000E+00 -0.00000000000E+00 -0.17340520233E+04  0.17340520233E+04  0.00000000000E+00 0.  1.
         23    2    1    2    0    0 -0.30085106607E+03  0.45696533387E+03 -0.11763071925E+03  0.56724086836E+03  0.92717508121E+02 0.  0.
         13    1    3    3    0    0 -0.17378749246E+03  0.32548851042E+03 -0.10659024464E+03  0.38406554545E+03  0.00000000000E+00 0. -1.
        -13    1    3    3    0    0 -0.12706357361E+03  0.13147682346E+03 -0.11040474611E+02  0.18317532291E+03  0.00000000000E+00 0.  1.
         22    1    1    2    0    0  0.30085106607E+03 -0.45696533387E+03 -0.13378426614E+04  0.14453897976E+04  0.00000000000E+00 0.  1.
<mgrwt>
<rscale>  0 0.13900645E+04</rscale>
<asrwt>0</asrwt>
<pdfrwt beam="1">  1        2 0.26677724E+00 0.13900645E+04</pdfrwt>
<pdfrwt beam="2">  1       -2 0.42858252E-01 0.13900645E+04</pdfrwt>
<totfact> 0.47193381E+01</totfact>
</mgrwt>
</event>
<event>
 6    1  0.4630212E-004  0.1077990E+04  0.7818608E-02  0.9226914E-01
         -2   -1    0    0    0  501 -0.00000000000E+00  0.00000000000E+00  0.71568918017E+03  0.71568918017E+03  0.00000000000E+00 0. -1.
          2   -1    0    0  501    0  0.00000000000E+00 -0.00000000000E+00 -0.40592436130E+03  0.40592436130E+03  0.00000000000E+00 0.  1.
         23    2    1    2    0    0 -0.25021145593E+03  0.12355111554E+03  0.63075447943E+03  0.69628424197E+03  0.95340869880E+02 0.  0.
         11    1    3    3    0    0 -0.23720994768E+03  0.81442978805E+02  0.53929781152E+03  0.59476352241E+03  0.00000000000E+00 0. -1.
        -11    1    3    3    0    0 -0.13001508247E+02  0.42108136734E+02  0.91456667904E+02  0.10152071956E+03  0.00000000000E+00 0.  1.
         22    1    1    2    0    0  0.25021145593E+03 -0.12355111554E+03 -0.32098966056E+03  0.42532929950E+03  0.00000000000E+00 0.  1.
<mgrwt>
<rscale>  0 0.10779901E+04</rscale>
<asrwt>0</asrwt>
<pdfrwt beam="1">  1        2 0.62449902E-01 0.10779901E+04</pdfrwt>
<pdfrwt beam="2">  1       -2 0.11010603E+00 0.10779901E+04</pdfrwt>
<totfact> 0.50960616E+01</totfact>
</mgrwt>
</event>
<event>
 6    1  0.4630212E-004  0.1902123E+04  0.7818608E-02  0.8653800E-01
         -2   -1    0    0    0  501 -0.00000000000E+00  0.00000000000E+00  0.69416895655E+03  0.69416895655E+03  0.00000000000E+00 0. -1.
          2   -1    0    0  501    0  0.00000000000E+00 -0.00000000000E+00 -0.13030232551E+04  0.13030232551E+04  0.00000000000E+00 0.  1.
         23    2    1    2    0    0  0.10253286696E+03 -0.72961980681E+02 -0.12926631858E+04  0.13019001624E+04  0.90163636510E+02 0.  0.
         11    1    3    3    0    0  0.71377000296E+01 -0.57766802717E+02 -0.48077343766E+03  0.48428405777E+03  0.00000000000E+00 0. -1.
        -11    1    3    3    0    0  0.95395166928E+02 -0.15195177964E+02 -0.81188974817E+03  0.81761610459E+03  0.00000000000E+00 0.  1.
         22    1    1    2    0    0 -0.10253286696E+03  0.72961980681E+02  0.68380888729E+03  0.69529204926E+03  0.00000000000E+00 0. -1.
<mgrwt>
<rscale>  0 0.19021233E+04</rscale>
<asrwt>0</asrwt>
<pdfrwt beam="1">  1        2 0.20046511E+00 0.19021233E+04</pdfrwt>
<pdfrwt beam="2">  1       -2 0.10679523E+00 0.19021233E+04</pdfrwt>
<totfact> 0.10881817E+01</totfact>
</mgrwt>
</event>
<event>
 6    1  0.5691373E-004  0.2745703E+04  0.7818608E-02  0.8320326E-01
          2   -1    0    0  501    0  0.00000000000E+00  0.00000000000E+00  0.23133686911E+04  0.23133686911E+04  0.00000000000E+00 0.  1.
         -2   -1    0    0    0  501 -0.00000000000E+00 -0.00000000000E+00 -0.81470874154E+03  0.81470874154E+03  0.00000000000E+00 0. -1.
         23    2    1    2    0    0 -0.94416089439E+03 -0.46501930436E+03  0.17516499472E+04  0.20456326596E+04  0.93019850227E+02 0.  0.
         13    1    3    3    0    0 -0.47778282612E+03 -0.18727875869E+03  0.88503797254E+03  0.10230552161E+04  0.00000000000E+00 0. -1.
        -13    1    3    3    0    0 -0.46637806827E+03 -0.27774054566E+03  0.86661197462E+03  0.10225774434E+04  0.00000000000E+00 0.  1.
         22    1    1    2    0    0  0.94416089439E+03  0.46501930436E+03 -0.25298999758E+03  0.10824447731E+04  0.00000000000E+00 0. -1.
<mgrwt>
<rscale>  0 0.27457033E+04</rscale>
<asrwt>0</asrwt>
<pdfrwt beam="1">  1        2 0.35590287E+00 0.27457033E+04</pdfrwt>
<pdfrwt beam="2">  1       -2 0.12533981E+00 0.27457033E+04</pdfrwt>
<totfact> 0.18540657E+00</totfact>
</mgrwt>
</event>
<event>
 6    1  0.4630212E-004  0.2131228E+04  0.7818608E-02  0.8547611E-01
          2   -1    0    0  501    0  0.00000000000E+00  0.00000000000E+00  0.15104326668E+04  0.15104326668E+04  0.00000000000E+00 0.  1.
         -2   -1    0    0    0  501 -0.00000000000E+00 -0.00000000000E+00 -0.75179339345E+03  0.75179339345E+03  0.00000000000E+00 0. -1.
         23    2    1    2    0    0 -0.98298457824E+02 -0.49801741754E+03 -0.61227900708E+03  0.80034341565E+03  0.89331212178E+02 0.  0.
         13    1    3    3    0    0 -0.50491329520E+02 -0.16876353741E+03 -0.27499628416E+03  0.32657841664E+03  0.00000000000E+00 0.  1.
        -13    1    3    3    0    0 -0.47807128304E+02 -0.32925388013E+03 -0.33728272293E+03  0.47376499901E+03  0.00000000000E+00 0. -1.
         22    1    1    2    0    0  0.98298457824E+02  0.49801741754E+03  0.13709182804E+04  0.14618826446E+04  0.00000000000E+00 0.  1.
<mgrwt>
<rscale>  0 0.21312281E+04</rscale>
<asrwt>0</asrwt>
<pdfrwt beam="1">  1        2 0.23237426E+00 0.21312281E+04</pdfrwt>
<pdfrwt beam="2">  1       -2 0.11566052E+00 0.21312281E+04</pdfrwt>
<totfact> 0.66940547E+00</totfact>
</mgrwt>
</event>
<event>
 6    1  0.4630212E-004  0.2591440E+04  0.7818608E-02  0.8371115E-01
         -1   -1    0    0    0  501 -0.00000000000E+00  0.00000000000E+00  0.16319013804E+04  0.16319013804E+04  0.00000000000E+00 0. -1.
          1   -1    0    0  501    0  0.00000000000E+00 -0.00000000000E+00 -0.10287937770E+04  0.10287937770E+04  0.00000000000E+00 0.  1.
         23    2    1    2    0    0  0.73078418489E+03 -0.45173084523E+03 -0.69178934074E+03  0.11067117671E+04  0.90178501059E+02 0.  0.
         13    1    3    3    0    0  0.51390320474E+03 -0.27188598220E+03 -0.44473847836E+03  0.73199098717E+03  0.00000000000E+00 0. -1.
        -13    1    3    3    0    0  0.21688098015E+03 -0.17984486303E+03 -0.24705086239E+03  0.37472077994E+03  0.00000000000E+00 0.  1.
         22    1    1    2    0    0 -0.73078418489E+03  0.45173084523E+03  0.12948969442E+04  0.15539833903E+04  0.00000000000E+00 0. -1.
<mgrwt>
<rscale>  0 0.25914397E+04</rscale>
<asrwt>0</asrwt>
<pdfrwt beam="1">  1        1 0.15827597E+00 0.25914397E+04</pdfrwt>
<pdfrwt beam="2">  1       -1 0.25106175E+00 0.25914397E+04</pdfrwt>
<totfact> 0.86899607E-01</totfact>
</mgrwt>
</event>
<event>
 6    1  0.4630212E-004  0.3355781E+04  0.7818608E-02  0.8148845E-01
         -2   -1    0    0    0  501 -0.00000000000E+00  0.00000000000E+00  0.25092168515E+04  0.25092168515E+04  0.00000000000E+00 0. -1.
          2   -1    0    0  501    0  0.00000000000E+00 -0.00000000000E+00 -0.11219903784E+04  0.11219903784E+04  0.00000000000E+00 0.  1.
         23    2    1    2    0    0  0.56450689126E+03  0.12496830884E+04  0.17381458524E+04  0.22157496140E+04  0.89551639849E+02 0.  0.
         13    1    3    3    0    0  0.38366540496E+03  0.74351935263E+03  0.10527846930E+04  0.13447586328E+04  0.00000000000E+00 0. -1.
        -13    1    3    3    0    0  0.18084148630E+03  0.50616373577E+03  0.68536115932E+03  0.87099098117E+03  0.00000000000E+00 0.  1.
         22    1    1    2    0    0 -0.56450689126E+03 -0.12496830884E+04 -0.35091937926E+03  0.14154576159E+04  0.00000000000E+00 0.  1.
<mgrwt>
<rscale>  0 0.33557814E+04</rscale>
<asrwt>0</asrwt>
<pdfrwt beam="1">  1        2 0.17261390E+00 0.33557814E+04</pdfrwt>
<pdfrwt beam="2">  1       -2 0.38603336E+00 0.33557814E+04</pdfrwt>
<totfact> 0.16055991E-01</totfact>
</mgrwt>
</event>
<event>
 6    1  0.4630212E-004  0.1529923E+04  0.7818608E-02  0.8864795E-01
          2   -1    0    0  501    0  0.00000000000E+00  0.00000000000E+00  0.47857111258E+04  0.47857111258E+04  0.00000000000E+00 0.  1.
         -2   -1    0    0    0  501 -0.00000000000E+00 -0.00000000000E+00 -0.12227352464E+03  0.12227352464E+03  0.00000000000E+00 0. -1.
         23    2    1    2    0    0 -0.34202326000E+03  0.31460338813E+03  0.42782964964E+04  0.43044211718E+04  0.90914854728E+02 0.  0.
         11    1    3    3    0    0 -0.13279202998E+03  0.14552567933E+03  0.21962810265E+04  0.22050990441E+04  0.00000000000E+00 0.  1.
        -11    1    3    3    0    0 -0.20923123002E+03  0.16907770880E+03  0.20820154698E+04  0.20993221277E+04  0.00000000000E+00 0. -1.
         22    1    1    2    0    0  0.34202326000E+03 -0.31460338813E+03  0.38514110479E+03  0.60356347869E+03  0.00000000000E+00 0. -1.
<mgrwt>
<rscale>  0 0.15299226E+04</rscale>
<asrwt>0</asrwt>
<pdfrwt beam="1">  1        2 0.73626311E+00 0.15299226E+04</pdfrwt>
<pdfrwt beam="2">  1       -2 0.18811315E-01 0.15299226E+04</pdfrwt>
<totfact> 0.14783741E+00</totfact>
</mgrwt>
</event>
<event>
 6    1  0.4630212E-004  0.1461717E+04  0.7818608E-02  0.8910318E-01
          2   -1    0    0  501    0  0.00000000000E+00  0.00000000000E+00  0.31681372267E+04  0.31681372267E+04  0.00000000000E+00 0.  1.
         -2   -1    0    0    0  501 -0.00000000000E+00 -0.00000000000E+00 -0.16860186029E+03  0.16860186029E+03  0.00000000000E+00 0. -1.
         23    2    1    2    0    0  0.53804741889E+03  0.48816363137E+03  0.13982029565E+04  0.15783124485E+04  0.91103904974E+02 0.  0.
         13    1    3    3    0    0  0.16340649377E+03  0.20557133775E+03  0.52399213494E+03  0.58611348269E+03  0.00000000000E+00 0.  1.
        -13    1    3    3    0    0  0.37464092512E+03  0.28259229362E+03  0.87421082160E+03  0.99219896583E+03  0.00000000000E+00 0. -1.
         22    1    1    2    0    0 -0.53804741889E+03 -0.48816363137E+03  0.16013324099E+04  0.17584266385E+04  0.00000000000E+00 0. -1.
<mgrwt>
<rscale>  0 0.14617166E+04</rscale>
<asrwt>0</asrwt>
<pdfrwt beam="1">  1        2 0.48740568E+00 0.14617166E+04</pdfrwt>
<pdfrwt beam="2">  1       -2 0.25938750E-01 0.14617166E+04</pdfrwt>
<totfact> 0.17860780E+01</totfact>
</mgrwt>
</event>
<event>
 6    1  0.4630212E-004  0.1865608E+04  0.7818608E-02  0.8672167E-01
          2   -1    0    0  501    0  0.00000000000E+00  0.00000000000E+00  0.38382608249E+04  0.38382608249E+04  0.00000000000E+00 0.  1.
         -2   -1    0    0    0  501 -0.00000000000E+00 -0.00000000000E+00 -0.22669739581E+03  0.22669739581E+03  0.00000000000E+00 0. -1.
         23    2    1    2    0    0  0.21924525155E+03 -0.36114234681E+03  0.36165060730E+04  0.36424458485E+04  0.99011654412E+02 0.  0.
         13    1    3    3    0    0  0.23660423782E+02 -0.78102146685E+02  0.10175115404E+04  0.10207788673E+04  0.00000000000E+00 0.  1.
        -13    1    3    3    0    0  0.19558482777E+03 -0.28304020012E+03  0.25989945326E+04  0.26216669812E+04  0.00000000000E+00 0. -1.
         22    1    1    2    0    0 -0.21924525155E+03  0.36114234681E+03 -0.49426439384E+01  0.42251237226E+03  0.00000000000E+00 0. -1.
<mgrwt>
<rscale>  0 0.18656085E+04</rscale>
<asrwt>0</asrwt>
<pdfrwt beam="1">  1        2 0.59050162E+00 0.18656085E+04</pdfrwt>
<pdfrwt beam="2">  1       -2 0.34876525E-01 0.18656085E+04</pdfrwt>
<totfact> 0.33623166E+00</totfact>
</mgrwt>
</event>
<event>
 6    1  0.4630212E-004  0.3939656E+04  0.7818608E-02  0.8016832E-01
          2   -1    0    0  501    0  0.00000000000E+00  0.00000000000E+00  0.14019706490E+04  0.14019706490E+04  0.00000000000E+00 0.  1.
         -2   -1    0    0    0  501 -0.00000000000E+00 -0.00000000000E+00 -0.27676914790E+04  0.27676914790E+04  0.00000000000E+00 0. -1.
         23    2    1    2    0    0  0.62337260816E+03  0.11435093536E+04 -0.22458444891E+04  0.25977764115E+04  0.91748375346E+02 0.  0.
         13    1    3    3    0    0  0.30132045224E+03  0.46593880919E+03 -0.99119134859E+03  0.11359371806E+04  0.00000000000E+00 0.  1.
        -13    1    3    3    0    0  0.32205215591E+03  0.67757054440E+03 -0.12546531405E+04  0.14618392308E+04  0.00000000000E+00 0. -1.
         22    1    1    2    0    0 -0.62337260816E+03 -0.11435093536E+04  0.88012365918E+03  0.15718857165E+04  0.00000000000E+00 0.  1.
<mgrwt>
<rscale>  0 0.39396559E+04</rscale>
<asrwt>0</asrwt>
<pdfrwt beam="1">  1        2 0.21568779E+00 0.39396559E+04</pdfrwt>
<pdfrwt beam="2">  1       -2 0.42579869E+00 0.39396559E+04</pdfrwt>
<totfact> 0.57407148E-02</totfact>
</mgrwt>
</event>
<event>
 6    1  0.4630212E-004  0.1976774E+04  0.7818608E-02  0.8617557E-01
          2   -1    0    0  501    0  0.00000000000E+00  0.00000000000E+00  0.12208390856E+04  0.12208390856E+04  0.00000000000E+00 0.  1.
         -2   -1    0    0    0  501 -0.00000000000E+00 -0.00000000000E+00 -0.80019484344E+03  0.80019484344E+03  0.00000000000E+00 0. -1.
         23    2    1    2    0    0 -0.95702324808E+02  0.96561046587E+03  0.30332467462E+02  0.97513441749E+03  0.91676424605E+02 0.  0.
         13    1    3    3    0    0 -0.20169331152E+02  0.57611682861E+03  0.44023465616E+02  0.57814830939E+03  0.00000000000E+00 0.  1.
        -13    1    3    3    0    0 -0.75532993656E+02  0.38949363726E+03 -0.13690998154E+02  0.39698610810E+03  0.00000000000E+00 0. -1.
         22    1    1    2    0    0  0.95702324808E+02 -0.96561046587E+03  0.39031177467E+03  0.10458995115E+04  0.00000000000E+00 0.  1.
<mgrwt>
<rscale>  0 0.19767743E+04</rscale>
<asrwt>0</asrwt>
<pdfrwt beam="1">  1        2 0.18782140E+00 0.19767743E+04</pdfrwt>
<pdfrwt beam="2">  1       -2 0.12310690E+00 0.19767743E+04</pdfrwt>
<totfact> 0.85365241E+00</totfact>
</mgrwt>
</event>
<event>
 6    1  0.4630212E-004  0.1508449E+04  0.7818608E-02  0.8878854E-01
         -2   -1    0    0    0  501 -0.00000000000E+00  0.00000000000E+00  0.34780761385E+03  0.34780761385E+03  0.00000000000E+00 0. -1.
          2   -1    0    0  501    0  0.00000000000E+00 -0.00000000000E+00 -0.16355443926E+04  0.16355443926E+04  0.00000000000E+00 0.  1.
         23    2    1    2    0    0 -0.14272275118E+03  0.36748000500E+03 -0.14873162351E+04  0.15414885691E+04  0.93091824298E+02 0.  0.
         13    1    3    3    0    0 -0.58877219400E+02  0.17309721639E+03 -0.86623489988E+03  0.88532032341E+03  0.00000000000E+00 0. -1.
        -13    1    3    3    0    0 -0.83845531780E+02  0.19438278862E+03 -0.62108133524E+03  0.65616824573E+03  0.00000000000E+00 0.  1.
         22    1    1    2    0    0  0.14272275118E+03 -0.36748000500E+03  0.19957945640E+03  0.44186343727E+03  0.00000000000E+00 0. -1.
<mgrwt>
<rscale>  0 0.15084493E+04</rscale>
<asrwt>0</asrwt>
<pdfrwt beam="1">  1        2 0.25162221E+00 0.15084493E+04</pdfrwt>
<pdfrwt beam="2">  1       -2 0.53508864E-01 0.15084493E+04</pdfrwt>
<totfact> 0.33852577E+01</totfact>
</mgrwt>
</event>
<event>
 6    1  0.4630212E-004  0.9756018E+03  0.7818608E-02  0.9335717E-01
         -2   -1    0    0    0  501 -0.00000000000E+00  0.00000000000E+00  0.12683933910E+03  0.12683933910E+03  0.00000000000E+00 0. -1.
          2   -1    0    0  501    0  0.00000000000E+00 -0.00000000000E+00 -0.18759928632E+04  0.18759928632E+04  0.00000000000E+00 0.  1.
         23    2    1    2    0    0  0.13649618637E+03  0.44090679510E+03 -0.11777271141E+04  0.12682859799E+04  0.92076927356E+02 0.  0.
         11    1    3    3    0    0  0.34761676658E+01  0.17317439251E+02 -0.13371417252E+02  0.22153379949E+02  0.00000000000E+00 0. -1.
        -11    1    3    3    0    0  0.13302001870E+03  0.42358935585E+03 -0.11643556969E+04  0.12461325999E+04  0.00000000000E+00 0.  1.
         22    1    1    2    0    0 -0.13649618637E+03 -0.44090679510E+03 -0.57142640996E+03  0.73454622241E+03  0.00000000000E+00 0.  1.
<mgrwt>
<rscale>  0 0.97560175E+03</rscale>
<asrwt>0</asrwt>
<pdfrwt beam="1">  1        2 0.28861426E+00 0.97560175E+03</pdfrwt>
<pdfrwt beam="2">  1       -2 0.19513746E-01 0.97560175E+03</pdfrwt>
<totfact> 0.17514280E+02</totfact>
</mgrwt>
</event>
<event>
 6    1  0.4630212E-004  0.2835848E+04  0.7818608E-02  0.8292225E-01
          2   -1    0    0  501    0  0.00000000000E+00  0.00000000000E+00  0.29607562729E+04  0.29607562729E+04  0.00000000000E+00 0.  1.
         -2   -1    0    0    0  501 -0.00000000000E+00 -0.00000000000E+00 -0.67905210703E+03  0.67905210703E+03  0.00000000000E+00 0. -1.
         23    2    1    2    0    0 -0.47323828297E+03 -0.15848582614E+03 -0.55937815979E+03  0.75522504594E+03  0.91589927428E+02 0.  0.
         11    1    3    3    0    0 -0.12457338650E+03 -0.60680631653E+01 -0.16935471295E+03  0.21032443704E+03  0.00000000000E+00 0.  1.
        -11    1    3    3    0    0 -0.34866489647E+03 -0.15241776297E+03 -0.39002344684E+03  0.54490060890E+03  0.00000000000E+00 0. -1.
         22    1    1    2    0    0  0.47323828297E+03  0.15848582614E+03  0.28410823257E+04  0.28845833340E+04  0.00000000000E+00 0.  1.
<mgrwt>
<rscale>  0 0.28358475E+04</rscale>
<asrwt>0</asrwt>
<pdfrwt beam="1">  1        2 0.45550096E+00 0.28358475E+04</pdfrwt>
<pdfrwt beam="2">  1       -2 0.10446956E+00 0.28358475E+04</pdfrwt>
<totfact> 0.11888110E+00</totfact>
</mgrwt>
</event>
<event>
 6    1  0.4630212E-004  0.1260993E+04  0.7818608E-02  0.9061083E-01
         -2   -1    0    0    0  501 -0.00000000000E+00  0.00000000000E+00  0.30828184462E+03  0.30828184462E+03  0.00000000000E+00 0. -1.
          2   -1    0    0  501    0  0.00000000000E+00 -0.00000000000E+00 -0.12894889464E+04  0.12894889464E+04  0.00000000000E+00 0.  1.
         23    2    1    2    0    0  0.15906428631E+03 -0.56399547165E+02 -0.12594031305E+04  0.12723858090E+04  0.66234778169E+02 0.  0.
         13    1    3    3    0    0  0.13222848299E+02 -0.27945031398E+02 -0.15713715316E+03  0.16014947206E+03  0.00000000000E+00 0. -1.
        -13    1    3    3    0    0  0.14584143801E+03 -0.28454515767E+02 -0.11022659773E+04  0.11122363370E+04  0.00000000000E+00 0.  1.
         22    1    1    2    0    0 -0.15906428631E+03  0.56399547165E+02  0.27819602872E+03  0.32538498198E+03  0.00000000000E+00 0. -1.
<mgrwt>
<rscale>  0 0.12609933E+04</rscale>
<asrwt>0</asrwt>
<pdfrwt beam="1">  1        2 0.19838291E+00 0.12609933E+04</pdfrwt>
<pdfrwt beam="2">  1       -2 0.47427977E-01 0.12609933E+04</pdfrwt>
<totfact> 0.69399801E+01</totfact>
</mgrwt>
</event>
<event>
 6    1  0.4630212E-004  0.3593021E+04  0.7818608E-02  0.8092092E-01
         -1   -1    0    0    0  501 -0.00000000000E+00  0.00000000000E+00  0.24535484773E+04  0.24535484773E+04  0.00000000000E+00 0. -1.
          1   -1    0    0  501    0  0.00000000000E+00 -0.00000000000E+00 -0.13154211339E+04  0.13154211339E+04  0.00000000000E+00 0.  1.
         23    2    1    2    0    0  0.17061999089E+04 -0.22380844620E+03  0.31641883334E+02  0.17231156520E+04  0.83174465387E+02 0.  0.
         11    1    3    3    0    0  0.38724013042E+03 -0.17159122910E+02  0.16769380883E+02  0.38798268807E+03  0.00000000000E+00 0.  1.
        -11    1    3    3    0    0  0.13189597784E+04 -0.20664932329E+03  0.14872502450E+02  0.13351329639E+04  0.00000000000E+00 0. -1.
         22    1    1    2    0    0 -0.17061999089E+04  0.22380844620E+03  0.11064854601E+04  0.20458539593E+04  0.00000000000E+00 0. -1.
<mgrwt>
<rscale>  0 0.35930207E+04</rscale>
<asrwt>0</asrwt>
<pdfrwt beam="1">  1        1 0.20237248E+00 0.35930207E+04</pdfrwt>
<pdfrwt beam="2">  1       -1 0.37746900E+00 0.35930207E+04</pdfrwt>
<totfact> 0.72605431E-02</totfact>
</mgrwt>
</event>
<event>
 6    1  0.4630212E-004  0.2058638E+04  0.7818608E-02  0.8579686E-01
          2   -1    0    0  501    0  0.00000000000E+00  0.00000000000E+00  0.20210008933E+04  0.20210008933E+04  0.00000000000E+00 0.  1.
         -2   -1    0    0    0  501 -0.00000000000E+00 -0.00000000000E+00 -0.52424395383E+03  0.52424395383E+03  0.00000000000E+00 0. -1.
         23    2    1    2    0    0  0.69086602716E+03  0.75998658141E+03  0.78149442752E+03  0.12936554846E+04  0.89081429726E+02 0.  0.
         11    1    3    3    0    0  0.48483572113E+03  0.54034050561E+03  0.50058820437E+03  0.88182883194E+03  0.00000000000E+00 0.  1.
        -11    1    3    3    0    0  0.20603030602E+03  0.21964607581E+03  0.28090622315E+03  0.41182665263E+03  0.00000000000E+00 0. -1.
         22    1    1    2    0    0 -0.69086602716E+03 -0.75998658141E+03  0.71526251191E+03  0.12515893625E+04  0.00000000000E+00 0. -1.
<mgrwt>
<rscale>  0 0.20586379E+04</rscale>
<asrwt>0</asrwt>
<pdfrwt beam="1">  1        2 0.31092321E+00 0.20586379E+04</pdfrwt>
<pdfrwt beam="2">  1       -2 0.80652917E-01 0.20586379E+04</pdfrwt>
<totfact> 0.81611412E+00</totfact>
</mgrwt>
</event>
<event>
 6    1  0.4630212E-004  0.2811639E+04  0.7818608E-02  0.8299664E-01
         -2   -1    0    0    0  501 -0.00000000000E+00  0.00000000000E+00  0.10917650763E+04  0.10917650763E+04  0.00000000000E+00 0. -1.
          2   -1    0    0  501    0  0.00000000000E+00 -0.00000000000E+00 -0.18102145567E+04  0.18102145567E+04  0.00000000000E+00 0.  1.
         23    2    1    2    0    0 -0.61066013989E+02 -0.11102547651E+04 -0.12448242941E+04  0.16717499204E+04  0.93624631934E+02 0.  0.
         11    1    3    3    0    0 -0.13132240141E+02 -0.53140051192E+03 -0.52921722742E+03  0.75008655074E+03  0.00000000000E+00 0.  1.
        -11    1    3    3    0    0 -0.47933773848E+02 -0.57885425313E+03 -0.71560706672E+03  0.92166336967E+03  0.00000000000E+00 0. -1.
         22    1    1    2    0    0  0.61066013989E+02  0.11102547651E+04  0.52637481375E+03  0.12302297127E+04  0.00000000000E+00 0. -1.
<mgrwt>
<rscale>  0 0.28116394E+04</rscale>
<asrwt>0</asrwt>
<pdfrwt beam="1">  1        2 0.27849454E+00 0.28116394E+04</pdfrwt>
<pdfrwt beam="2">  1       -2 0.16796386E+00 0.28116394E+04</pdfrwt>
<totfact> 0.16320287E+00</totfact>
</mgrwt>
</event>
<event>
 6    1  0.4630212E-004  0.4513948E+04  0.7818608E-02  0.7908199E-01
         -2   -1    0    0    0  501 -0.00000000000E+00  0.00000000000E+00  0.20192482042E+04  0.20192482042E+04  0.00000000000E+00 0. -1.
          2   -1    0    0  501    0  0.00000000000E+00 -0.00000000000E+00 -0.25226871478E+04  0.25226871478E+04  0.00000000000E+00 0.  1.
         23    2    1    2    0    0 -0.16560961649E+04 -0.93234246054E+03  0.97134036628E+03  0.21363395871E+04  0.92345834978E+02 0.  0.
         11    1    3    3    0    0 -0.41160536461E+03 -0.24966091790E+03  0.20493163904E+03  0.52320791926E+03  0.00000000000E+00 0. -1.
        -11    1    3    3    0    0 -0.12444908003E+04 -0.68268154264E+03  0.76640872724E+03  0.16131316679E+04  0.00000000000E+00 0.  1.
         22    1    1    2    0    0  0.16560961649E+04  0.93234246054E+03 -0.14747793099E+04  0.24055957649E+04  0.00000000000E+00 0.  1.
<mgrwt>
<rscale>  0 0.45139479E+04</rscale>
<asrwt>0</asrwt>
<pdfrwt beam="1">  1        2 0.38810572E+00 0.45139479E+04</pdfrwt>
<pdfrwt beam="2">  1       -2 0.31065357E+00 0.45139479E+04</pdfrwt>
<totfact> 0.69881742E-02</totfact>
</mgrwt>
</event>
<event>
 6    1  0.4630212E-004  0.1111125E+04  0.7818608E-02  0.9194416E-01
         -2   -1    0    0    0  501 -0.00000000000E+00  0.00000000000E+00  0.44081694804E+03  0.44081694804E+03  0.00000000000E+00 0. -1.
          2   -1    0    0  501    0  0.00000000000E+00 -0.00000000000E+00 -0.70017615463E+03  0.70017615463E+03  0.00000000000E+00 0.  1.
         23    2    1    2    0    0 -0.22112475865E+03 -0.16565865968E+03 -0.62108950294E+03  0.68581428317E+03  0.90830115741E+02 0.  0.
         11    1    3    3    0    0 -0.14860133821E+03 -0.55004887456E+02 -0.34671460185E+03  0.38120717530E+03  0.00000000000E+00 0.  1.
        -11    1    3    3    0    0 -0.72523420445E+02 -0.11065377223E+03 -0.27437490108E+03  0.30460710787E+03  0.00000000000E+00 0. -1.
         22    1    1    2    0    0  0.22112475865E+03  0.16565865968E+03  0.36173029635E+03  0.45517881949E+03  0.00000000000E+00 0. -1.
<mgrwt>
<rscale>  0 0.11111247E+04</rscale>
<asrwt>0</asrwt>
<pdfrwt beam="1">  1        2 0.10771941E+00 0.11111247E+04</pdfrwt>
<pdfrwt beam="2">  1       -2 0.67817992E-01 0.11111247E+04</pdfrwt>
<totfact> 0.80991668E+01</totfact>
</mgrwt>
</event>
<event>
 6    1  0.4630212E-004  0.1886705E+04  0.7818608E-02  0.8661503E-01
          2   -1    0    0  501    0  0.00000000000E+00  0.00000000000E+00  0.11696099156E+04  0.11696099156E+04  0.00000000000E+00 0.  1.
         -2   -1    0    0    0  501 -0.00000000000E+00 -0.00000000000E+00 -0.76086386383E+03  0.76086386383E+03  0.00000000000E+00 0. -1.
         23    2    1    2    0    0  0.43210734678E+02 -0.94043867726E+03  0.19892588134E+03  0.96594457965E+03  0.84766452063E+02 0.  0.
         13    1    3    3    0    0  0.42235980097E+02 -0.28923776061E+03  0.34728084114E+02  0.29436100286E+03  0.00000000000E+00 0. -1.
        -13    1    3    3    0    0  0.97475458108E+00 -0.65120091665E+03  0.16419779722E+03  0.67158357678E+03  0.00000000000E+00 0.  1.
         22    1    1    2    0    0 -0.43210734678E+02  0.94043867726E+03  0.20982017042E+03  0.96452919977E+03  0.00000000000E+00 0.  1.
<mgrwt>
<rscale>  0 0.18867050E+04</rscale>
<asrwt>0</asrwt>
<pdfrwt beam="1">  1        2 0.17993999E+00 0.18867050E+04</pdfrwt>
<pdfrwt beam="2">  1       -2 0.11705598E+00 0.18867050E+04</pdfrwt>
<totfact> 0.10458989E+01</totfact>
</mgrwt>
</event>
<event>
 6    1  0.4630212E-004  0.4660089E+04  0.7818608E-02  0.7883194E-01
          2   -1    0    0  501    0  0.00000000000E+00  0.00000000000E+00  0.25098267600E+04  0.25098267600E+04  0.00000000000E+00 0.  1.
         -2   -1    0    0    0  501 -0.00000000000E+00 -0.00000000000E+00 -0.21631402281E+04  0.21631402281E+04  0.00000000000E+00 0. -1.
         23    2    1    2    0    0 -0.15304915318E+04  0.35361169715E+03  0.18982115385E+04  0.24651002785E+04  0.77889518526E+02 0.  0.
         11    1    3    3    0    0 -0.25218664330E+03  0.73086920207E+02  0.27881099708E+03  0.38298220985E+03  0.00000000000E+00 0. -1.
        -11    1    3    3    0    0 -0.12783048885E+04  0.28052477694E+03  0.16194005414E+04  0.20821180687E+04  0.00000000000E+00 0.  1.
         22    1    1    2    0    0  0.15304915318E+04 -0.35361169715E+03 -0.15515250066E+04  0.22078667096E+04  0.00000000000E+00 0. -1.
<mgrwt>
<rscale>  0 0.46600889E+04</rscale>
<asrwt>0</asrwt>
<pdfrwt beam="1">  1        2 0.38612719E+00 0.46600889E+04</pdfrwt>
<pdfrwt beam="2">  1       -2 0.33279080E+00 0.46600889E+04</pdfrwt>
<totfact> 0.51255060E-02</totfact>
</mgrwt>
</event>
<event>
 6    1  0.4630212E-004  0.1175091E+04  0.7818608E-02  0.9134943E-01
         -2   -1    0    0    0  501 -0.00000000000E+00  0.00000000000E+00  0.32270735400E+03  0.32270735400E+03  0.00000000000E+00 0. -1.
          2   -1    0    0  501    0  0.00000000000E+00 -0.00000000000E+00 -0.10697299559E+04  0.10697299559E+04  0.00000000000E+00 0.  1.
         23    2    1    2    0    0 -0.52601224221E+03  0.22247611286E+03 -0.52025185971E+03  0.77793794519E+03  0.91328797624E+02 0.  0.
         11    1    3    3    0    0 -0.36769473076E+03  0.17927818000E+03 -0.41647063845E+03  0.58377039454E+03  0.00000000000E+00 0.  1.
        -11    1    3    3    0    0 -0.15831751146E+03  0.43197932857E+02 -0.10378122126E+03  0.19416755064E+03  0.00000000000E+00 0. -1.
         22    1    1    2    0    0  0.52601224221E+03 -0.22247611286E+03 -0.22677074223E+03  0.61449936475E+03  0.00000000000E+00 0. -1.
<mgrwt>
<rscale>  0 0.11750910E+04</rscale>
<asrwt>0</asrwt>
<pdfrwt beam="1">  1        2 0.16457384E+00 0.11750910E+04</pdfrwt>
<pdfrwt beam="2">  1       -2 0.49647285E-01 0.11750910E+04</pdfrwt>
<totfact> 0.86305795E+01</totfact>
</mgrwt>
</event>
<event>
 6    1  0.4630212E-004  0.2127538E+04  0.7818608E-02  0.8549209E-01
         -2   -1    0    0    0  501 -0.00000000000E+00  0.00000000000E+00  0.41241737136E+03  0.41241737136E+03  0.00000000000E+00 0.  1.
          2   -1    0    0  501    0  0.00000000000E+00 -0.00000000000E+00 -0.27438329831E+04  0.27438329831E+04  0.00000000000E+00 0. -1.
         23    2    1    2    0    0 -0.73642711798E+03  0.52071280408E+03 -0.19992429457E+04  0.21951023926E+04  0.89640581642E+02 0.  0.
         11    1    3    3    0    0 -0.44913548849E+03  0.37014144667E+03 -0.12797862846E+04  0.14059090696E+04  0.00000000000E+00 0.  1.
        -11    1    3    3    0    0 -0.28729162949E+03  0.15057135740E+03 -0.71945666101E+03  0.78919332303E+03  0.00000000000E+00 0. -1.
         22    1    1    2    0    0  0.73642711798E+03 -0.52071280408E+03 -0.33217266605E+03  0.96114796181E+03  0.00000000000E+00 0.  1.
<mgrwt>
<rscale>  0 0.21275379E+04</rscale>
<asrwt>0</asrwt>
<pdfrwt beam="1">  1        2 0.42212814E+00 0.21275379E+04</pdfrwt>
<pdfrwt beam="2">  1       -2 0.63448827E-01 0.21275379E+04</pdfrwt>
<totfact> 0.52895065E+00</totfact>
</mgrwt>
</event>
<event>
 6    1  0.4630212E-004  0.5514453E+04  0.7818608E-02  0.7753704E-01
         -2   -1    0    0    0  501 -0.00000000000E+00  0.00000000000E+00  0.38843725938E+04  0.38843725938E+04  0.00000000000E+00 0.  1.
          2   -1    0    0  501    0  0.00000000000E+00 -0.00000000000E+00 -0.19571498181E+04  0.19571498181E+04  0.00000000000E+00 0. -1.
         23    2    1    2    0    0 -0.24901339736E+04  0.90478929510E+03  0.17693480152E+04  0.31874057387E+04  0.97734689841E+02 0.  0.
         11    1    3    3    0    0 -0.10026291691E+04  0.34356356596E+03  0.76049859504E+03  0.13044766336E+04  0.00000000000E+00 0. -1.
        -11    1    3    3    0    0 -0.14875048045E+04  0.56122572914E+03  0.10088494201E+04  0.18829291051E+04  0.00000000000E+00 0.  1.
         22    1    1    2    0    0  0.24901339736E+04 -0.90478929510E+03  0.15787476048E+03  0.26541166732E+04  0.00000000000E+00 0.  1.
<mgrwt>
<rscale>  0 0.55144534E+04</rscale>
<asrwt>0</asrwt>
<pdfrwt beam="1">  1        2 0.30109997E+00 0.55144534E+04</pdfrwt>
<pdfrwt beam="2">  1       -2 0.59759578E+00 0.55144534E+04</pdfrwt>
<totfact> 0.26018133E-03</totfact>
</mgrwt>
</event>
<event>
 6    1  0.4630212E-004  0.1402353E+04  0.7818608E-02  0.8952117E-01
         -2   -1    0    0    0  501 -0.00000000000E+00  0.00000000000E+00  0.65190889263E+03  0.65190889263E+03  0.00000000000E+00 0. -1.
          2   -1    0    0  501    0  0.00000000000E+00 -0.00000000000E+00 -0.75416704037E+03  0.75416704037E+03  0.00000000000E+00 0.  1.
         23    2    1    2    0    0 -0.11641042578E+03 -0.51288223317E+03  0.40889440442E+03  0.67267528949E+03  0.93262204537E+02 0.  0.
         13    1    3    3    0    0 -0.39631493056E+02 -0.11451582068E+03  0.50267316503E+02  0.13119196445E+03  0.00000000000E+00 0. -1.
        -13    1    3    3    0    0 -0.76778932724E+02 -0.39836641249E+03  0.35862708792E+03  0.54148332504E+03  0.00000000000E+00 0.  1.
         22    1    1    2    0    0  0.11641042578E+03  0.51288223317E+03 -0.51115255216E+03  0.73340064352E+03  0.00000000000E+00 0.  1.
<mgrwt>
<rscale>  0 0.14023526E+04</rscale>
<asrwt>0</asrwt>
<pdfrwt beam="1">  1        2 0.11602570E+00 0.14023526E+04</pdfrwt>
<pdfrwt beam="2">  1       -2 0.10029368E+00 0.14023526E+04</pdfrwt>
<totfact> 0.29725842E+01</totfact>
</mgrwt>
</event>
<event>
 6    1  0.4630212E-004  0.2607583E+04  0.7818608E-02  0.8365630E-01
          2   -1    0    0  501    0  0.00000000000E+00  0.00000000000E+00  0.35961467936E+04  0.35961467936E+04  0.00000000000E+00 0.  1.
         -2   -1    0    0    0  501 -0.00000000000E+00 -0.00000000000E+00 -0.47269280906E+03  0.47269280906E+03  0.00000000000E+00 0. -1.
         23    2    1    2    0    0  0.11413920538E+03 -0.55518960640E+03 -0.26566640082E+03  0.63264981690E+03  0.91672771546E+02 0.  0.
         11    1    3    3    0    0  0.14246412301E+02 -0.28139100351E+03 -0.14890427692E+03  0.31867905611E+03  0.00000000000E+00 0. -1.
        -11    1    3    3    0    0  0.99892793077E+02 -0.27379860288E+03 -0.11676212390E+03  0.31397076079E+03  0.00000000000E+00 0.  1.
         22    1    1    2    0    0 -0.11413920538E+03  0.55518960640E+03  0.33891203853E+04  0.34361897857E+04  0.00000000000E+00 0.  1.
<mgrwt>
<rscale>  0 0.26075833E+04</rscale>
<asrwt>0</asrwt>
<pdfrwt beam="1">  1        2 0.55325333E+00 0.26075833E+04</pdfrwt>
<pdfrwt beam="2">  1       -2 0.72721973E-01 0.26075833E+04</pdfrwt>
<totfact> 0.10510146E+00</totfact>
</mgrwt>
</event>
<event>
 6    1  0.4630212E-004  0.2142645E+04  0.7818608E-02  0.8542687E-01
         -2   -1    0    0    0  501 -0.00000000000E+00  0.00000000000E+00  0.65498529300E+03  0.65498529300E+03  0.00000000000E+00 0. -1.
          2   -1    0    0  501    0  0.00000000000E+00 -0.00000000000E+00 -0.17523025022E+04  0.17523025022E+04  0.00000000000E+00 0.  1.
         23    2    1    2    0    0  0.61060177788E+03  0.51193979843E+03 -0.13509702075E+04  0.15710720743E+04  0.90719748318E+02 0.  0.
         11    1    3    3    0    0  0.17577037234E+03  0.18106118533E+03 -0.49414960660E+03  0.55485332325E+03  0.00000000000E+00 0. -1.
        -11    1    3    3    0    0  0.43483140554E+03  0.33087861310E+03 -0.85682060087E+03  0.10162187510E+04  0.00000000000E+00 0.  1.
         22    1    1    2    0    0 -0.61060177788E+03 -0.51193979843E+03  0.25365299827E+03  0.83621572091E+03  0.00000000000E+00 0. -1.
<mgrwt>
<rscale>  0 0.21426454E+04</rscale>
<asrwt>0</asrwt>
<pdfrwt beam="1">  1        2 0.26958500E+00 0.21426454E+04</pdfrwt>
<pdfrwt beam="2">  1       -2 0.10076697E+00 0.21426454E+04</pdfrwt>
<totfact> 0.68321040E+00</totfact>
</mgrwt>
</event>
<event>
 6    1  0.4630212E-004  0.4369337E+04  0.7818608E-02  0.7933920E-01
         -2   -1    0    0    0  501 -0.00000000000E+00  0.00000000000E+00  0.98068367689E+03  0.98068367689E+03  0.00000000000E+00 0.  1.
          2   -1    0    0  501    0  0.00000000000E+00 -0.00000000000E+00 -0.48667851266E+04  0.48667851266E+04  0.00000000000E+00 0. -1.
         23    2    1    2    0    0  0.30827510497E+03  0.40853155492E+03 -0.47849462982E+04  0.48131315117E+04  0.92694661004E+02 0.  0.
         13    1    3    3    0    0  0.12426531825E+03  0.20287068271E+03 -0.25905033933E+04  0.26014046617E+04  0.00000000000E+00 0. -1.
        -13    1    3    3    0    0  0.18400978672E+03  0.20566087221E+03 -0.21944429049E+04  0.22117268500E+04  0.00000000000E+00 0.  1.
         22    1    1    2    0    0 -0.30827510497E+03 -0.40853155492E+03  0.89884484846E+03  0.10343372919E+04  0.00000000000E+00 0.  1.
<mgrwt>
<rscale>  0 0.43693371E+04</rscale>
<asrwt>0</asrwt>
<pdfrwt beam="1">  1        2 0.74873617E+00 0.43693371E+04</pdfrwt>
<pdfrwt beam="2">  1       -2 0.15087441E+00 0.43693371E+04</pdfrwt>
<totfact> 0.11126208E-02</totfact>
</mgrwt>
</event>
<event>
 6    1  0.4630212E-004  0.2291300E+04  0.7818608E-02  0.8481359E-01
          2   -1    0    0  501    0  0.00000000000E+00  0.00000000000E+00  0.15419598491E+04  0.15419598491E+04  0.00000000000E+00 0. -1.
         -2   -1    0    0    0  501 -0.00000000000E+00 -0.00000000000E+00 -0.85119863229E+03  0.85119863229E+03  0.00000000000E+00 0.  1.
         23    2    1    2    0    0 -0.86048579580E+03  0.70555100937E+03  0.62209013536E+03  0.12782801253E+04  0.93626441422E+02 0.  0.
         11    1    3    3    0    0 -0.78424802537E+03  0.61572168299E+03  0.53320478242E+03  0.11306924852E+04  0.00000000000E+00 0.  1.
        -11    1    3    3    0    0 -0.76237770432E+02  0.89829326372E+02  0.88885352943E+02  0.14758764001E+03  0.00000000000E+00 0. -1.
         22    1    1    2    0    0  0.86048579580E+03 -0.70555100937E+03  0.68671081486E+02  0.11148783562E+04  0.00000000000E+00 0.  1.
<mgrwt>
<rscale>  0 0.22913002E+04</rscale>
<asrwt>0</asrwt>
<pdfrwt beam="1">  1        2 0.23722459E+00 0.22913002E+04</pdfrwt>
<pdfrwt beam="2">  1       -2 0.13095364E+00 0.22913002E+04</pdfrwt>
<totfact> 0.46501993E+00</totfact>
</mgrwt>
</event>
<event>
 6    1  0.4630212E-004  0.1778474E+04  0.7818608E-02  0.8717831E-01
         -2   -1    0    0    0  501 -0.00000000000E+00  0.00000000000E+00  0.54738027050E+03  0.54738027050E+03  0.00000000000E+00 0. -1.
          2   -1    0    0  501    0  0.00000000000E+00 -0.00000000000E+00 -0.14445950236E+04  0.14445950236E+04  0.00000000000E+00 0.  1.
         23    2    1    2    0    0 -0.66146805633E+03  0.57708680850E+03 -0.59254435860E+03  0.10627857422E+04  0.88518601547E+02 0.  0.
         13    1    3    3    0    0 -0.40109533715E+03  0.29309742326E+03 -0.32206222712E+03  0.59203686300E+03  0.00000000000E+00 0.  1.
        -13    1    3    3    0    0 -0.26037271917E+03  0.28398938524E+03 -0.27048213148E+03  0.47074887920E+03  0.00000000000E+00 0. -1.
         22    1    1    2    0    0  0.66146805633E+03 -0.57708680850E+03 -0.30467039450E+03  0.92918955190E+03  0.00000000000E+00 0. -1.
<mgrwt>
<rscale>  0 0.17784744E+04</rscale>
<asrwt>0</asrwt>
<pdfrwt beam="1">  1        2 0.22224539E+00 0.17784744E+04</pdfrwt>
<pdfrwt beam="2">  1       -2 0.84212351E-01 0.17784744E+04</pdfrwt>
<totfact> 0.15883343E+01</totfact>
</mgrwt>
</event>
<event>
 6    1  0.4630212E-004  0.2422581E+04  0.7818608E-02  0.8431098E-01
         -2   -1    0    0    0  501 -0.00000000000E+00  0.00000000000E+00  0.78237033541E+03  0.78237033541E+03  0.00000000000E+00 0. -1.
          2   -1    0    0  501    0  0.00000000000E+00 -0.00000000000E+00 -0.18753575280E+04  0.18753575280E+04  0.00000000000E+00 0.  1.
         23    2    1    2    0    0  0.17325268676E+02 -0.83532402810E+03 -0.15067177816E+04  0.17253977731E+04  0.93448409820E+02 0.  0.
         11    1    3    3    0    0  0.66473215955E+01 -0.36825552210E+03 -0.76051127172E+03  0.84500515434E+03  0.00000000000E+00 0. -1.
        -11    1    3    3    0    0  0.10677947080E+02 -0.46706850599E+03 -0.74620650987E+03  0.88039261879E+03  0.00000000000E+00 0.  1.
         22    1    1    2    0    0 -0.17325268676E+02  0.83532402810E+03  0.41373058905E+03  0.93233009024E+03  0.00000000000E+00 0. -1.
<mgrwt>
<rscale>  0 0.24225805E+04</rscale>
<asrwt>0</asrwt>
<pdfrwt beam="1">  1        2 0.28851654E+00 0.24225805E+04</pdfrwt>
<pdfrwt beam="2">  1       -2 0.12036467E+00 0.24225805E+04</pdfrwt>
<totfact> 0.37070401E+00</totfact>
</mgrwt>
</event>
<event>
 6    1  0.4630212E-004  0.3439530E+04  0.7818608E-02  0.8128272E-01
         -2   -1    0    0    0  501 -0.00000000000E+00  0.00000000000E+00  0.17170591680E+04  0.17170591680E+04  0.00000000000E+00 0. -1.
          2   -1    0    0  501    0  0.00000000000E+00 -0.00000000000E+00 -0.17224752397E+04  0.17224752397E+04  0.00000000000E+00 0.  1.
         23    2    1    2    0    0  0.12689566469E+04  0.88330656864E+02  0.11529066525E+04  0.17191377063E+04  0.90484403314E+02 0.  0.
         13    1    3    3    0    0  0.23240043588E+03 -0.18809801521E+02  0.20950342627E+03  0.31345726479E+03  0.00000000000E+00 0. -1.
        -13    1    3    3    0    0  0.10365562110E+04  0.10714045839E+03  0.94340322623E+03  0.14056804415E+04  0.00000000000E+00 0.  1.
         22    1    1    2    0    0 -0.12689566469E+04 -0.88330656864E+02 -0.11583227243E+04  0.17203967014E+04  0.00000000000E+00 0.  1.
<mgrwt>
<rscale>  0 0.34395301E+04</rscale>
<asrwt>0</asrwt>
<pdfrwt beam="1">  1        2 0.26499619E+00 0.34395301E+04</pdfrwt>
<pdfrwt beam="2">  1       -2 0.26416295E+00 0.34395301E+04</pdfrwt>
<totfact> 0.41401426E-01</totfact>
</mgrwt>
</event>
<event>
 6    1  0.4630212E-004  0.2330283E+04  0.7818608E-02  0.8466076E-01
          2   -1    0    0  501    0  0.00000000000E+00  0.00000000000E+00  0.18816748397E+04  0.18816748397E+04  0.00000000000E+00 0.  1.
         -2   -1    0    0    0  501 -0.00000000000E+00 -0.00000000000E+00 -0.72146054778E+03  0.72146054778E+03  0.00000000000E+00 0. -1.
         23    2    1    2    0    0  0.65345401521E+03 -0.45477374089E+03  0.15285883315E+04  0.17259120759E+04  0.91481698888E+02 0.  0.
         13    1    3    3    0    0  0.54041393216E+02 -0.71051971014E+02  0.15409361814E+03  0.17808340158E+03  0.00000000000E+00 0.  1.
        -13    1    3    3    0    0  0.59941262199E+03 -0.38372176988E+03  0.13744947133E+04  0.15478286743E+04  0.00000000000E+00 0. -1.
         22    1    1    2    0    0 -0.65345401521E+03  0.45477374089E+03 -0.36837403953E+03  0.87722331159E+03  0.00000000000E+00 0. -1.
<mgrwt>
<rscale>  0 0.23302825E+04</rscale>
<asrwt>0</asrwt>
<pdfrwt beam="1">  1        2 0.28948843E+00 0.23302825E+04</pdfrwt>
<pdfrwt beam="2">  1       -2 0.11099393E+00 0.23302825E+04</pdfrwt>
<totfact> 0.45192772E+00</totfact>
</mgrwt>
</event>
<event>
 6    1  0.4630212E-004  0.1323145E+04  0.7818608E-02  0.9011410E-01
          2   -1    0    0  501    0  0.00000000000E+00  0.00000000000E+00  0.28486348325E+04  0.28486348325E+04  0.00000000000E+00 0.  1.
         -2   -1    0    0    0  501 -0.00000000000E+00 -0.00000000000E+00 -0.15364483534E+03  0.15364483534E+03  0.00000000000E+00 0. -1.
         23    2    1    2    0    0  0.15563328902E+03  0.55339991285E+03  0.62669242081E+03  0.85557800051E+03  0.93793072612E+02 0.  0.
         13    1    3    3    0    0  0.11908984329E+03  0.26855061677E+03  0.28606286995E+03  0.41004120537E+03  0.00000000000E+00 0.  1.
        -13    1    3    3    0    0  0.36543445735E+02  0.28484929607E+03  0.34062955086E+03  0.44553679514E+03  0.00000000000E+00 0. -1.
         22    1    1    2    0    0 -0.15563328902E+03 -0.55339991285E+03  0.20682975763E+04  0.21467016673E+04  0.00000000000E+00 0.  1.
<mgrwt>
<rscale>  0 0.13231448E+04</rscale>
<asrwt>0</asrwt>
<pdfrwt beam="1">  1        2 0.43825147E+00 0.13231448E+04</pdfrwt>
<pdfrwt beam="2">  1       -2 0.23637669E-01 0.13231448E+04</pdfrwt>
<totfact> 0.33852957E+01</totfact>
</mgrwt>
</event>
<event>
 6    1  0.4630212E-004  0.2805109E+04  0.7818608E-02  0.8301684E-01
          2   -1    0    0  501    0  0.00000000000E+00  0.00000000000E+00  0.99644867952E+03  0.99644867952E+03  0.00000000000E+00 0.  1.
         -2   -1    0    0    0  501 -0.00000000000E+00 -0.00000000000E+00 -0.19741701246E+04  0.19741701246E+04  0.00000000000E+00 0. -1.
         23    2    1    2    0    0 -0.99413298065E+03  0.23707945852E+03  0.52580296876E+03  0.11526274081E+04  0.87029461318E+02 0.  0.
         11    1    3    3    0    0 -0.93215257367E+03  0.21287977385E+03  0.46824736042E+03  0.10646510270E+04  0.00000000000E+00 0.  1.
        -11    1    3    3    0    0 -0.61980406976E+02  0.24199684674E+02  0.57555608340E+02  0.87976381141E+02  0.00000000000E+00 0. -1.
         22    1    1    2    0    0  0.99413298065E+03 -0.23707945852E+03 -0.15035244138E+04  0.18179913960E+04  0.00000000000E+00 0. -1.
<mgrwt>
<rscale>  0 0.28051091E+04</rscale>
<asrwt>0</asrwt>
<pdfrwt beam="1">  1        2 0.15329980E+00 0.28051091E+04</pdfrwt>
<pdfrwt beam="2">  1       -2 0.30371848E+00 0.28051091E+04</pdfrwt>
<totfact> 0.66422468E-01</totfact>
</mgrwt>
</event>
<event>
 6    1  0.4630212E-004  0.2593116E+04  0.7818608E-02  0.8370543E-01
          2   -1    0    0  501    0  0.00000000000E+00  0.00000000000E+00  0.11714841803E+04  0.11714841803E+04  0.00000000000E+00 0.  1.
         -2   -1    0    0    0  501 -0.00000000000E+00 -0.00000000000E+00 -0.14349856479E+04  0.14349856479E+04  0.00000000000E+00 0. -1.
         23    2    1    2    0    0  0.84089254696E+03  0.19823184429E+03 -0.11014866283E+04  0.14028854859E+04  0.91753771137E+02 0.  0.
         13    1    3    3    0    0  0.62971594393E+03  0.18077323168E+03 -0.79284298013E+03  0.10285043133E+04  0.00000000000E+00 0. -1.
        -13    1    3    3    0    0  0.21117660303E+03  0.17458612615E+02 -0.30864364816E+03  0.37438117256E+03  0.00000000000E+00 0.  1.
         22    1    1    2    0    0 -0.84089254696E+03 -0.19823184429E+03  0.83798516071E+03  0.12035843424E+04  0.00000000000E+00 0.  1.
<mgrwt>
<rscale>  0 0.25931163E+04</rscale>
<asrwt>0</asrwt>
<pdfrwt beam="1">  1        2 0.18022833E+00 0.25931163E+04</pdfrwt>
<pdfrwt beam="2">  1       -2 0.22076702E+00 0.25931163E+04</pdfrwt>
<totfact> 0.17042846E+00</totfact>
</mgrwt>
</event>
<event>
 6    1  0.4630212E-004  0.2066942E+04  0.7818608E-02  0.8575947E-01
          2   -1    0    0  501    0  0.00000000000E+00  0.00000000000E+00  0.17469687932E+04  0.17469687932E+04  0.00000000000E+00 0.  1.
         -2   -1    0    0    0  501 -0.00000000000E+00 -0.00000000000E+00 -0.61138045085E+03  0.61138045085E+03  0.00000000000E+00 0. -1.
         23    2    1    2    0    0 -0.49897415211E+03 -0.19336053496E+03 -0.43720643043E+03  0.69701035680E+03  0.91161799700E+02 0.  0.
         11    1    3    3    0    0 -0.46695999486E+03 -0.15317842179E+03 -0.39403341449E+03  0.62990284762E+03  0.00000000000E+00 0. -1.
        -11    1    3    3    0    0 -0.32014157250E+02 -0.40182113175E+02 -0.43173015941E+02  0.67107509185E+02  0.00000000000E+00 0.  1.
         22    1    1    2    0    0  0.49897415211E+03  0.19336053496E+03  0.15727947728E+04  0.16613388872E+04  0.00000000000E+00 0.  1.
<mgrwt>
<rscale>  0 0.20669423E+04</rscale>
<asrwt>0</asrwt>
<pdfrwt beam="1">  1        2 0.26876443E+00 0.20669423E+04</pdfrwt>
<pdfrwt beam="2">  1       -2 0.94058532E-01 0.20669423E+04</pdfrwt>
<totfact> 0.81399101E+00</totfact>
</mgrwt>
</event>
<event>
 6    1  0.4630212E-004  0.1069541E+04  0.7818608E-02  0.9235399E-01
          2   -1    0    0  501    0  0.00000000000E+00  0.00000000000E+00  0.22987704384E+04  0.22987704384E+04  0.00000000000E+00 0.  1.
         -2   -1    0    0    0  501 -0.00000000000E+00 -0.00000000000E+00 -0.12440532947E+03  0.12440532947E+03  0.00000000000E+00 0. -1.
         23    2    1    2    0    0  0.21930251382E+03 -0.42152534323E+03  0.56040707004E+03  0.74072584028E+03  0.94029137802E+02 0.  0.
         13    1    3    3    0    0  0.20190005455E+03 -0.31390422277E+03  0.46143214181E+03  0.59348050903E+03  0.00000000000E+00 0. -1.
        -13    1    3    3    0    0  0.17402459270E+02 -0.10762112046E+03  0.98974928231E+02  0.14724533125E+03  0.00000000000E+00 0.  1.
         22    1    1    2    0    0 -0.21930251382E+03  0.42152534323E+03  0.16139580389E+04  0.16824499276E+04  0.00000000000E+00 0.  1.
<mgrwt>
<rscale>  0 0.10695406E+04</rscale>
<asrwt>0</asrwt>
<pdfrwt beam="1">  1        2 0.35365696E+00 0.10695406E+04</pdfrwt>
<pdfrwt beam="2">  1       -2 0.19139283E-01 0.10695406E+04</pdfrwt>
<totfact> 0.10495016E+02</totfact>
</mgrwt>
</event>
<event>
 6    1  0.4630212E-004  0.3600157E+04  0.7818608E-02  0.8090456E-01
          2   -1    0    0  501    0  0.00000000000E+00  0.00000000000E+00  0.13418156963E+04  0.13418156963E+04  0.00000000000E+00 0.  1.
         -2   -1    0    0    0  501 -0.00000000000E+00 -0.00000000000E+00 -0.24148498521E+04  0.24148498521E+04  0.00000000000E+00 0. -1.
         23    2    1    2    0    0 -0.31909877021E+03 -0.99388711939E+03 -0.20656437630E+04  0.23162109454E+04  0.91177611261E+02 0.  0.
         11    1    3    3    0    0 -0.21834504879E+03 -0.77157033608E+03 -0.15229545379E+04  0.17211582927E+04  0.00000000000E+00 0. -1.
        -11    1    3    3    0    0 -0.10075372143E+03 -0.22231678331E+03 -0.54268922507E+03  0.59505265274E+03  0.00000000000E+00 0.  1.
         22    1    1    2    0    0  0.31909877021E+03  0.99388711939E+03  0.99260960718E+03  0.14404546031E+04  0.00000000000E+00 0.  1.
<mgrwt>
<rscale>  0 0.36001575E+04</rscale>
<asrwt>0</asrwt>
<pdfrwt beam="1">  1        2 0.20643319E+00 0.36001575E+04</pdfrwt>
<pdfrwt beam="2">  1       -2 0.37151536E+00 0.36001575E+04</pdfrwt>
<totfact> 0.14455330E-01</totfact>
</mgrwt>
</event>
<event>
 6    1  0.4630212E-004  0.1919109E+04  0.7818608E-02  0.8645403E-01
          2   -1    0    0  501    0  0.00000000000E+00  0.00000000000E+00  0.12952498548E+04  0.12952498548E+04  0.00000000000E+00 0.  1.
         -2   -1    0    0    0  501 -0.00000000000E+00 -0.00000000000E+00 -0.71086259687E+03  0.71086259687E+03  0.00000000000E+00 0. -1.
         23    2    1    2    0    0 -0.89587837061E+03  0.32034037350E+03  0.40489706129E+03  0.10379013484E+04  0.89897546698E+02 0.  0.
         11    1    3    3    0    0 -0.65459126601E+03  0.19190523486E+03  0.29823083715E+03  0.74448571305E+03  0.00000000000E+00 0.  1.
        -11    1    3    3    0    0 -0.24128710460E+03  0.12843513865E+03  0.10666622414E+03  0.29341563533E+03  0.00000000000E+00 0. -1.
         22    1    1    2    0    0  0.89587837061E+03 -0.32034037350E+03  0.17949019664E+03  0.96821110328E+03  0.00000000000E+00 0.  1.
<mgrwt>
<rscale>  0 0.19191088E+04</rscale>
<asrwt>0</asrwt>
<pdfrwt beam="1">  1        2 0.19926921E+00 0.19191088E+04</pdfrwt>
<pdfrwt beam="2">  1       -2 0.10936348E+00 0.19191088E+04</pdfrwt>
<totfact> 0.10368550E+01</totfact>
</mgrwt>
</event>
<event>
 6    1  0.4630212E-004  0.2630734E+04  0.7818608E-02  0.8357836E-01
         -2   -1    0    0    0  501 -0.00000000000E+00  0.00000000000E+00  0.93379669774E+03  0.93379669774E+03  0.00000000000E+00 0. -1.
          2   -1    0    0  501    0  0.00000000000E+00 -0.00000000000E+00 -0.18528561303E+04  0.18528561303E+04  0.00000000000E+00 0.  1.
         23    2    1    2    0    0  0.12967834908E+04  0.12508672682E+03 -0.28032385639E+03  0.13356954726E+04  0.90591499547E+02 0.  0.
         11    1    3    3    0    0  0.48268277265E+03  0.48234091448E+02 -0.59780578341E+02  0.48875648756E+03  0.00000000000E+00 0.  1.
        -11    1    3    3    0    0  0.81410071812E+03  0.76852635369E+02 -0.22054327805E+03  0.84693898499E+03  0.00000000000E+00 0. -1.
         22    1    1    2    0    0 -0.12967834908E+04 -0.12508672682E+03 -0.63873557614E+03  0.14509573555E+04  0.00000000000E+00 0.  1.
<mgrwt>
<rscale>  0 0.26307344E+04</rscale>
<asrwt>0</asrwt>
<pdfrwt beam="1">  1        2 0.28505479E+00 0.26307344E+04</pdfrwt>
<pdfrwt beam="2">  1       -2 0.14366103E+00 0.26307344E+04</pdfrwt>
<totfact> 0.23894855E+00</totfact>
</mgrwt>
</event>
<event>
 6    1  0.4630212E-004  0.2038005E+04  0.7818608E-02  0.8589055E-01
          2   -1    0    0  501    0  0.00000000000E+00  0.00000000000E+00  0.31259230995E+04  0.31259230995E+04  0.00000000000E+00 0.  1.
         -2   -1    0    0    0  501 -0.00000000000E+00 -0.00000000000E+00 -0.33217902414E+03  0.33217902414E+03  0.00000000000E+00 0. -1.
         23    2    1    2    0    0  0.32686235762E+03  0.55563208325E+03  0.27341600029E+04  0.28107102219E+04  0.94313398722E+02 0.  0.
         11    1    3    3    0    0  0.16165914286E+03  0.35412555072E+03  0.15382846238E+04  0.15867760296E+04  0.00000000000E+00 0. -1.
        -11    1    3    3    0    0  0.16520321476E+03  0.20150653253E+03  0.11958753791E+04  0.12239341923E+04  0.00000000000E+00 0.  1.
         22    1    1    2    0    0 -0.32686235762E+03 -0.55563208325E+03  0.59584072446E+02  0.64739190175E+03  0.00000000000E+00 0. -1.
<mgrwt>
<rscale>  0 0.20380050E+04</rscale>
<asrwt>0</asrwt>
<pdfrwt beam="1">  1        2 0.48091123E+00 0.20380050E+04</pdfrwt>
<pdfrwt beam="2">  1       -2 0.51104467E-01 0.20380050E+04</pdfrwt>
<totfact> 0.48678682E+00</totfact>
</mgrwt>
</event>
<event>
 6    1  0.4630212E-004  0.2469284E+04  0.7818608E-02  0.8414011E-01
         -2   -1    0    0    0  501 -0.00000000000E+00  0.00000000000E+00  0.51764515507E+03  0.51764515507E+03  0.00000000000E+00 0. -1.
          2   -1    0    0  501    0  0.00000000000E+00 -0.00000000000E+00 -0.29447611218E+04  0.29447611218E+04  0.00000000000E+00 0.  1.
         23    2    1    2    0    0  0.58257066794E+03  0.43361738967E+03 -0.26124286802E+04  0.27129041584E+04  0.87479939479E+02 0.  0.
         13    1    3    3    0    0  0.10787406539E+03  0.41332337033E+02 -0.39309595404E+03  0.40971893433E+03  0.00000000000E+00 0.  1.
        -13    1    3    3    0    0  0.47469660255E+03  0.39228505264E+03 -0.22193327262E+04  0.23031852241E+04  0.00000000000E+00 0. -1.
         22    1    1    2    0    0 -0.58257066794E+03 -0.43361738967E+03  0.18531271349E+03  0.74950211845E+03  0.00000000000E+00 0. -1.
<mgrwt>
<rscale>  0 0.24692844E+04</rscale>
<asrwt>0</asrwt>
<pdfrwt beam="1">  1        2 0.45304018E+00 0.24692844E+04</pdfrwt>
<pdfrwt beam="2">  1       -2 0.79637716E-01 0.24692844E+04</pdfrwt>
<totfact> 0.23541048E+00</totfact>
</mgrwt>
</event>
<event>
 6    1  0.4630212E-004  0.2984223E+04  0.7818608E-02  0.8248251E-01
         -1   -1    0    0    0  501 -0.00000000000E+00  0.00000000000E+00  0.10403929541E+04  0.10403929541E+04  0.00000000000E+00 0. -1.
          1   -1    0    0  501    0  0.00000000000E+00 -0.00000000000E+00 -0.21399570206E+04  0.21399570206E+04  0.00000000000E+00 0.  1.
         23    2    1    2    0    0 -0.13696555110E+04 -0.49575456570E+03 -0.88801339213E+03  0.17084523912E+04  0.92265811320E+02 0.  0.
         11    1    3    3    0    0 -0.24277062712E+03 -0.10894011309E+03 -0.19760936946E+03  0.33144379393E+03  0.00000000000E+00 0. -1.
        -11    1    3    3    0    0 -0.11268848839E+04 -0.38681445260E+03 -0.69040402267E+03  0.13770085972E+04  0.00000000000E+00 0.  1.
         22    1    1    2    0    0  0.13696555110E+04  0.49575456570E+03 -0.21155067439E+03  0.14718975835E+04  0.00000000000E+00 0. -1.
<mgrwt>
<rscale>  0 0.29842226E+04</rscale>
<asrwt>0</asrwt>
<pdfrwt beam="1">  1        1 0.32922415E+00 0.29842226E+04</pdfrwt>
<pdfrwt beam="2">  1       -1 0.16006046E+00 0.29842226E+04</pdfrwt>
<totfact> 0.59547642E-01</totfact>
</mgrwt>
</event>
<event>
 6    1  0.4630212E-004  0.1645159E+04  0.7818608E-02  0.8793275E-01
         -2   -1    0    0    0  501 -0.00000000000E+00  0.00000000000E+00  0.50801528385E+03  0.50801528385E+03  0.00000000000E+00 0. -1.
          2   -1    0    0  501    0  0.00000000000E+00 -0.00000000000E+00 -0.13319227232E+04  0.13319227232E+04  0.00000000000E+00 0.  1.
         23    2    1    2    0    0  0.65600223325E+03 -0.29611624439E+03  0.27261733349E+02  0.72525746055E+03  0.85037766610E+02 0.  0.
         13    1    3    3    0    0  0.26475675606E+03 -0.16071192528E+03 -0.73083193900E+01  0.30980296051E+03  0.00000000000E+00 0.  1.
        -13    1    3    3    0    0  0.39124547719E+03 -0.13540431911E+03  0.34570052739E+02  0.41545450004E+03  0.00000000000E+00 0. -1.
         22    1    1    2    0    0 -0.65600223325E+03  0.29611624439E+03 -0.85116917273E+03  0.11146805465E+04  0.00000000000E+00 0.  1.
<mgrwt>
<rscale>  0 0.16451591E+04</rscale>
<asrwt>0</asrwt>
<pdfrwt beam="1">  1        2 0.20491119E+00 0.16451591E+04</pdfrwt>
<pdfrwt beam="2">  1       -2 0.78156196E-01 0.16451591E+04</pdfrwt>
<totfact> 0.22048345E+01</totfact>
</mgrwt>
</event>
<event>
 6    1  0.4630212E-004  0.1310891E+04  0.7818608E-02  0.9020973E-01
          2   -1    0    0  501    0  0.00000000000E+00  0.00000000000E+00  0.25137298538E+03  0.25137298538E+03  0.00000000000E+00 0.  1.
         -2   -1    0    0    0  501 -0.00000000000E+00 -0.00000000000E+00 -0.17090496134E+04  0.17090496134E+04  0.00000000000E+00 0. -1.
         23    2    1    2    0    0  0.25701378383E+03 -0.22093543385E+03 -0.15657195908E+04  0.16046954101E+04  0.93278996982E+02 0.  0.
         13    1    3    3    0    0  0.48564732296E+02 -0.76385962612E+02 -0.28260818057E+03  0.29675028599E+03  0.00000000000E+00 0. -1.
        -13    1    3    3    0    0  0.20844905154E+03 -0.14454947124E+03 -0.12831114102E+04  0.13079451241E+04  0.00000000000E+00 0.  1.
         22    1    1    2    0    0 -0.25701378383E+03  0.22093543385E+03  0.10804296270E+03  0.35572718872E+03  0.00000000000E+00 0.  1.
<mgrwt>
<rscale>  0 0.13108912E+04</rscale>
<asrwt>0</asrwt>
<pdfrwt beam="1">  1        2 0.38672767E-01 0.13108912E+04</pdfrwt>
<pdfrwt beam="2">  1       -2 0.26293071E+00 0.13108912E+04</pdfrwt>
<totfact> 0.70334763E+00</totfact>
</mgrwt>
</event>
<event>
 6    1  0.4630212E-004  0.2867037E+04  0.7818608E-02  0.8282753E-01
         -1   -1    0    0    0  501 -0.00000000000E+00  0.00000000000E+00  0.88009453268E+03  0.88009453268E+03  0.00000000000E+00 0. -1.
          1   -1    0    0  501    0  0.00000000000E+00 -0.00000000000E+00 -0.23349488207E+04  0.23349488207E+04  0.00000000000E+00 0.  1.
         23    2    1    2    0    0 -0.80624608954E+03  0.35964163774E+03  0.53645475694E+03  0.10368132055E+04  0.88448020917E+02 0.  0.
         13    1    3    3    0    0 -0.65744258955E+03  0.31733732814E+03  0.41194891189E+03  0.83823364546E+03  0.00000000000E+00 0. -1.
        -13    1    3    3    0    0 -0.14880349999E+03  0.42304309608E+02  0.12450584505E+03  0.19857956006E+03  0.00000000000E+00 0.  1.
         22    1    1    2    0    0  0.80624608954E+03 -0.35964163774E+03 -0.19913090450E+04  0.21782301479E+04  0.00000000000E+00 0.  1.
<mgrwt>
<rscale>  0 0.28670373E+04</rscale>
<asrwt>0</asrwt>
<pdfrwt beam="1">  1        1 0.35922289E+00 0.28670373E+04</pdfrwt>
<pdfrwt beam="2">  1       -1 0.13539916E+00 0.28670373E+04</pdfrwt>
<totfact> 0.69284096E-01</totfact>
</mgrwt>
</event>
<event>
 6    1  0.4630212E-004  0.3276886E+04  0.7818608E-02  0.8168802E-01
         -2   -1    0    0    0  501 -0.00000000000E+00  0.00000000000E+00  0.92588926178E+03  0.92588926178E+03  0.00000000000E+00 0. -1.
          2   -1    0    0  501    0  0.00000000000E+00 -0.00000000000E+00 -0.28993707622E+04  0.28993707622E+04  0.00000000000E+00 0.  1.
         23    2    1    2    0    0  0.80320290389E+03 -0.13614845565E+04 -0.14849611258E+04  0.21707427957E+04  0.90772450284E+02 0.  0.
         13    1    3    3    0    0  0.19866862631E+03 -0.26427254320E+03 -0.30791853523E+03  0.45179976152E+03  0.00000000000E+00 0.  1.
        -13    1    3    3    0    0  0.60453427757E+03 -0.10972120133E+04 -0.11770425906E+04  0.17189430342E+04  0.00000000000E+00 0. -1.
         22    1    1    2    0    0 -0.80320290389E+03  0.13614845565E+04 -0.48852037464E+03  0.16545172283E+04  0.00000000000E+00 0. -1.
<mgrwt>
<rscale>  0 0.32768865E+04</rscale>
<asrwt>0</asrwt>
<pdfrwt beam="1">  1        2 0.44605703E+00 0.32768865E+04</pdfrwt>
<pdfrwt beam="2">  1       -2 0.14244451E+00 0.32768865E+04</pdfrwt>
<totfact> 0.57732087E-01</totfact>
</mgrwt>
</event>
<event>
 6    1  0.4630212E-004  0.1813160E+04  0.7818608E-02  0.8699333E-01
          4   -1    0    0  501    0  0.00000000000E+00  0.00000000000E+00  0.12620788745E+04  0.12620788745E+04  0.00000000000E+00 0.  1.
         -4   -1    0    0    0  501 -0.00000000000E+00 -0.00000000000E+00 -0.65121674677E+03  0.65121674677E+03  0.00000000000E+00 0. -1.
         23    2    1    2    0    0 -0.45617966926E+03  0.13422138487E+03 -0.50549447616E+03  0.69988417503E+03  0.90542378079E+02 0.  0.
         11    1    3    3    0    0 -0.18847076853E+03  0.71472056951E+02 -0.27578048627E+03  0.34159092805E+03  0.00000000000E+00 0. -1.
        -11    1    3    3    0    0 -0.26770890073E+03  0.62749327918E+02 -0.22971398989E+03  0.35829324698E+03  0.00000000000E+00 0.  1.
         22    1    1    2    0    0  0.45617966926E+03 -0.13422138487E+03  0.11163566039E+04  0.12134114462E+04  0.00000000000E+00 0.  1.
<mgrwt>
<rscale>  0 0.18131596E+04</rscale>
<asrwt>0</asrwt>
<pdfrwt beam="1">  1        4 0.19416598E+00 0.18131596E+04</pdfrwt>
<pdfrwt beam="2">  1       -4 0.10018719E+00 0.18131596E+04</pdfrwt>
<totfact> 0.22319614E-01</totfact>
</mgrwt>
</event>
<event>
 6    1  0.4630212E-004  0.1364830E+04  0.7818608E-02  0.8979677E-01
         -2   -1    0    0    0  501 -0.00000000000E+00  0.00000000000E+00  0.12012530442E+04  0.12012530442E+04  0.00000000000E+00 0. -1.
          2   -1    0    0  501    0  0.00000000000E+00 -0.00000000000E+00 -0.38767056452E+03  0.38767056452E+03  0.00000000000E+00 0.  1.
         23    2    1    2    0    0 -0.53057178564E+03 -0.15317333636E+03  0.86914572577E+03  0.10338958932E+04  0.92509105968E+02 0.  0.
         13    1    3    3    0    0 -0.20772158442E+03 -0.61167612739E+02  0.25993480109E+03  0.33831321922E+03  0.00000000000E+00 0.  1.
        -13    1    3    3    0    0 -0.32285020122E+03 -0.92005723624E+02  0.60921092468E+03  0.69558267399E+03  0.00000000000E+00 0. -1.
         22    1    1    2    0    0  0.53057178564E+03  0.15317333636E+03 -0.55563246069E+02  0.55502771553E+03  0.00000000000E+00 0.  1.
<mgrwt>
<rscale>  0 0.13648303E+04</rscale>
<asrwt>0</asrwt>
<pdfrwt beam="1">  1        2 0.59641626E-01 0.13648303E+04</pdfrwt>
<pdfrwt beam="2">  1       -2 0.18480816E+00 0.13648303E+04</pdfrwt>
<totfact> 0.13493183E+01</totfact>
</mgrwt>
</event>
<event>
 6    1  0.4630212E-004  0.1490750E+04  0.7818608E-02  0.8890627E-01
          1   -1    0    0  501    0  0.00000000000E+00  0.00000000000E+00  0.89213329966E+03  0.89213329966E+03  0.00000000000E+00 0.  1.
         -1   -1    0    0    0  501 -0.00000000000E+00 -0.00000000000E+00 -0.62275890833E+03  0.62275890833E+03  0.00000000000E+00 0. -1.
         23    2    1    2    0    0 -0.71238231068E+03  0.87418998597E+01 -0.78080471735E+02  0.72224483414E+03  0.89308806890E+02 0.  0.
         13    1    3    3    0    0 -0.37328880706E+03  0.48542299426E+02 -0.33357311769E+02  0.37790686493E+03  0.00000000000E+00 0.  1.
        -13    1    3    3    0    0 -0.33909350362E+03 -0.39800399566E+02 -0.44723159966E+02  0.34433796922E+03  0.00000000000E+00 0. -1.
         22    1    1    2    0    0  0.71238231068E+03 -0.87418998597E+01  0.34745486307E+03  0.79264737384E+03  0.00000000000E+00 0.  1.
<mgrwt>
<rscale>  0 0.14907501E+04</rscale>
<asrwt>0</asrwt>
<pdfrwt beam="1">  1        1 0.13725128E+00 0.14907501E+04</pdfrwt>
<pdfrwt beam="2">  1       -1 0.95809063E-01 0.14907501E+04</pdfrwt>
<totfact> 0.18789407E+01</totfact>
</mgrwt>
</event>
<event>
 6    1  0.4630212E-004  0.1509306E+04  0.7818608E-02  0.8878288E-01
         -2   -1    0    0    0  501 -0.00000000000E+00  0.00000000000E+00  0.35558698788E+03  0.35558698788E+03  0.00000000000E+00 0.  1.
          2   -1    0    0  501    0  0.00000000000E+00 -0.00000000000E+00 -0.16015807484E+04  0.16015807484E+04  0.00000000000E+00 0. -1.
         23    2    1    2    0    0  0.32600567085E+03  0.49104939496E+02 -0.15015644433E+04  0.15400258343E+04  0.91064814103E+02 0.  0.
         11    1    3    3    0    0 -0.45005606582E+01 -0.28399661414E+01 -0.55916310044E+02  0.56168978831E+02  0.00000000000E+00 0. -1.
        -11    1    3    3    0    0  0.33050623151E+03  0.51944905638E+02 -0.14456481333E+04  0.14838568555E+04  0.00000000000E+00 0.  1.
         22    1    1    2    0    0 -0.32600567085E+03 -0.49104939496E+02  0.25557068277E+03  0.41714190200E+03  0.00000000000E+00 0.  1.
<mgrwt>
<rscale>  0 0.15093062E+04</rscale>
<asrwt>0</asrwt>
<pdfrwt beam="1">  1        2 0.24639704E+00 0.15093062E+04</pdfrwt>
<pdfrwt beam="2">  1       -2 0.54705690E-01 0.15093062E+04</pdfrwt>
<totfact> 0.33776984E+01</totfact>
</mgrwt>
</event>
<event>
 6    1  0.4630212E-004  0.3278630E+04  0.7818608E-02  0.8168354E-01
          2   -1    0    0  501    0  0.00000000000E+00  0.00000000000E+00  0.23388397266E+04  0.23388397266E+04  0.00000000000E+00 0.  1.
         -2   -1    0    0    0  501 -0.00000000000E+00 -0.00000000000E+00 -0.11490114847E+04  0.11490114847E+04  0.00000000000E+00 0. -1.
         23    2    1    2    0    0 -0.88251785213E+03  0.11903395168E+04 -0.14724423563E+03  0.14919782858E+04  0.92587341939E+02 0.  0.
         13    1    3    3    0    0 -0.35167641870E+03  0.42069282465E+03 -0.23064188127E+02  0.54880844833E+03  0.00000000000E+00 0. -1.
        -13    1    3    3    0    0 -0.53084143342E+03  0.76964669210E+03 -0.12418004751E+03  0.94316983746E+03  0.00000000000E+00 0.  1.
         22    1    1    2    0    0  0.88251785213E+03 -0.11903395168E+04  0.13370724776E+04  0.19958729255E+04  0.00000000000E+00 0.  1.
<mgrwt>
<rscale>  0 0.32786300E+04</rscale>
<asrwt>0</asrwt>
<pdfrwt beam="1">  1        2 0.35982150E+00 0.32786300E+04</pdfrwt>
<pdfrwt beam="2">  1       -2 0.17677100E+00 0.32786300E+04</pdfrwt>
<totfact> 0.68830866E-01</totfact>
</mgrwt>
</event>
<event>
 6    1  0.4630212E-004  0.1069091E+04  0.7818608E-02  0.9235853E-01
          2   -1    0    0  501    0  0.00000000000E+00  0.00000000000E+00  0.10413895555E+04  0.10413895555E+04  0.00000000000E+00 0.  1.
         -2   -1    0    0    0  501 -0.00000000000E+00 -0.00000000000E+00 -0.27438221077E+03  0.27438221077E+03  0.00000000000E+00 0. -1.
         23    2    1    2    0    0 -0.14915872075E+03 -0.43673301083E+03  0.64175551628E+02  0.47496466824E+03  0.92135161215E+02 0.  0.
         13    1    3    3    0    0 -0.12146207511E+03 -0.28654075398E+03  0.52465824638E+01  0.31126542694E+03  0.00000000000E+00 0. -1.
        -13    1    3    3    0    0 -0.27696645639E+02 -0.15019225684E+03  0.58928969165E+02  0.16369924130E+03  0.00000000000E+00 0.  1.
         22    1    1    2    0    0  0.14915872075E+03  0.43673301083E+03  0.70283179313E+03  0.84080709807E+03  0.00000000000E+00 0.  1.
<mgrwt>
<rscale>  0 0.10690908E+04</rscale>
<asrwt>0</asrwt>
<pdfrwt beam="1">  1        2 0.16021378E+00 0.10690908E+04</pdfrwt>
<pdfrwt beam="2">  1       -2 0.42212648E-01 0.10690908E+04</pdfrwt>
<totfact> 0.12531899E+02</totfact>
</mgrwt>
</event>
<event>
 6    1  0.4630212E-004  0.5620363E+03  0.7818608E-02  0.9987458E-01
          2   -1    0    0  501    0  0.00000000000E+00  0.00000000000E+00  0.14142644679E+04  0.14142644679E+04  0.00000000000E+00 0.  1.
         -2   -1    0    0    0  501 -0.00000000000E+00 -0.00000000000E+00 -0.55839056417E+02  0.55839056417E+02  0.00000000000E+00 0. -1.
         23    2    1    2    0    0 -0.21554063657E+03 -0.13254483054E+03  0.42147284134E+03  0.49958509749E+03  0.88994469084E+02 0.  0.
         11    1    3    3    0    0 -0.66273107784E+02 -0.55436706535E+02  0.22531349324E+03  0.24131208732E+03  0.00000000000E+00 0. -1.
        -11    1    3    3    0    0 -0.14926752879E+03 -0.77108124008E+02  0.19615934810E+03  0.25827301018E+03  0.00000000000E+00 0.  1.
         22    1    1    2    0    0  0.21554063657E+03  0.13254483054E+03  0.93695257012E+03  0.97051842681E+03  0.00000000000E+00 0.  1.
<mgrwt>
<rscale>  0 0.56203627E+03</rscale>
<asrwt>0</asrwt>
<pdfrwt beam="1">  1        2 0.21757912E+00 0.56203627E+03</pdfrwt>
<pdfrwt beam="2">  1       -2 0.85906251E-02 0.56203627E+03</pdfrwt>
<totfact> 0.12677986E+03</totfact>
</mgrwt>
</event>
<event>
 6    1  0.4630212E-004  0.3419058E+04  0.7818608E-02  0.8133245E-01
          2   -1    0    0  501    0  0.00000000000E+00  0.00000000000E+00  0.17109517188E+04  0.17109517188E+04  0.00000000000E+00 0.  1.
         -2   -1    0    0    0  501 -0.00000000000E+00 -0.00000000000E+00 -0.17081074225E+04  0.17081074225E+04  0.00000000000E+00 0. -1.
         23    2    1    2    0    0  0.11614236588E+04  0.38393879839E+03 -0.11906289135E+04  0.17100558590E+04  0.10188186840E+03 0.  0.
         13    1    3    3    0    0  0.30320662965E+03  0.66200025937E+02 -0.34468819194E+03  0.46381747849E+03  0.00000000000E+00 0.  1.
        -13    1    3    3    0    0  0.85821702914E+03  0.31773877245E+03 -0.84594072158E+03  0.12462383805E+04  0.00000000000E+00 0. -1.
         22    1    1    2    0    0 -0.11614236588E+04 -0.38393879839E+03  0.11934732098E+04  0.17090032822E+04  0.00000000000E+00 0.  1.
<mgrwt>
<rscale>  0 0.34190580E+04</rscale>
<asrwt>0</asrwt>
<pdfrwt beam="1">  1        2 0.26322334E+00 0.34190580E+04</pdfrwt>
<pdfrwt beam="2">  1       -2 0.26278576E+00 0.34190580E+04</pdfrwt>
<totfact> 0.42911046E-01</totfact>
</mgrwt>
</event>
<event>
 6    1  0.4630212E-004  0.1441087E+04  0.7818608E-02  0.8924603E-01
         -2   -1    0    0    0  501 -0.00000000000E+00  0.00000000000E+00  0.14382887421E+03  0.14382887421E+03  0.00000000000E+00 0. -1.
          2   -1    0    0  501    0  0.00000000000E+00 -0.00000000000E+00 -0.36097288687E+04  0.36097288687E+04  0.00000000000E+00 0.  1.
         23    2    1    2    0    0  0.60047861882E+03  0.14414563245E+00 -0.71442972749E+03  0.93732564619E+03  0.87148947497E+02 0.  0.
         11    1    3    3    0    0  0.16753439116E+03  0.24228537459E+02 -0.15496729806E+03  0.22949870962E+03  0.00000000000E+00 0. -1.
        -11    1    3    3    0    0  0.43294422766E+03 -0.24084391826E+02 -0.55946242943E+03  0.70782693657E+03  0.00000000000E+00 0.  1.
         22    1    1    2    0    0 -0.60047861882E+03 -0.14414563245E+00 -0.27514702670E+04  0.28162320967E+04  0.00000000000E+00 0.  1.
<mgrwt>
<rscale>  0 0.14410874E+04</rscale>
<asrwt>0</asrwt>
<pdfrwt beam="1">  1        2 0.55534288E+00 0.14410874E+04</pdfrwt>
<pdfrwt beam="2">  1       -2 0.22127520E-01 0.14410874E+04</pdfrwt>
<totfact> 0.11994289E+01</totfact>
</mgrwt>
</event>
<event>
 6    1  0.4630212E-004  0.3572175E+04  0.7818608E-02  0.8096895E-01
         -2   -1    0    0    0  501 -0.00000000000E+00  0.00000000000E+00  0.83082712990E+03  0.83082712990E+03  0.00000000000E+00 0. -1.
          2   -1    0    0  501    0  0.00000000000E+00 -0.00000000000E+00 -0.38396771498E+04  0.38396771498E+04  0.00000000000E+00 0.  1.
         23    2    1    2    0    0 -0.96977079774E+03 -0.13262713981E+04 -0.24172839645E+04  0.29242506843E+04  0.92353007382E+02 0.  0.
         11    1    3    3    0    0 -0.33890067455E+03 -0.44018339930E+03 -0.74461627031E+03  0.92901479118E+03  0.00000000000E+00 0.  1.
        -11    1    3    3    0    0 -0.63087012319E+03 -0.88608799885E+03 -0.16726676941E+04  0.19952358931E+04  0.00000000000E+00 0. -1.
         22    1    1    2    0    0  0.96977079774E+03  0.13262713981E+04 -0.59156605550E+03  0.17462535955E+04  0.00000000000E+00 0. -1.
<mgrwt>
<rscale>  0 0.35721747E+04</rscale>
<asrwt>0</asrwt>
<pdfrwt beam="1">  1        2 0.59071957E+00 0.35721747E+04</pdfrwt>
<pdfrwt beam="2">  1       -2 0.12781956E+00 0.35721747E+04</pdfrwt>
<totfact> 0.16915601E-01</totfact>
</mgrwt>
</event>
<event>
 6    1  0.4630212E-004  0.1324482E+04  0.7818608E-02  0.9010373E-01
         -2   -1    0    0    0  501 -0.00000000000E+00  0.00000000000E+00  0.50475405815E+03  0.50475405815E+03  0.00000000000E+00 0. -1.
          2   -1    0    0  501    0  0.00000000000E+00 -0.00000000000E+00 -0.86886479286E+03  0.86886479286E+03  0.00000000000E+00 0.  1.
         23    2    1    2    0    0  0.29118290770E+03  0.40566935956E+02  0.42883469868E+03  0.52792645873E+03  0.91509480374E+02 0.  0.
         13    1    3    3    0    0  0.24720614111E+03  0.71554855345E+01  0.38420092092E+03  0.45691621203E+03  0.00000000000E+00 0. -1.
        -13    1    3    3    0    0  0.43976766594E+02  0.33411450422E+02  0.44633777764E+02  0.71010246703E+02  0.00000000000E+00 0.  1.
         22    1    1    2    0    0 -0.29118290770E+03 -0.40566935956E+02 -0.79294543339E+03  0.84569239228E+03  0.00000000000E+00 0.  1.
<mgrwt>
<rscale>  0 0.13244818E+04</rscale>
<asrwt>0</asrwt>
<pdfrwt beam="1">  1        2 0.13367150E+00 0.13244818E+04</pdfrwt>
<pdfrwt beam="2">  1       -2 0.77654472E-01 0.13244818E+04</pdfrwt>
<totfact> 0.44546465E+01</totfact>
</mgrwt>
</event>
<event>
 6    1  0.4630212E-004  0.1341999E+04  0.7818608E-02  0.8996907E-01
         -2   -1    0    0    0  501 -0.00000000000E+00  0.00000000000E+00  0.61034317507E+03  0.61034317507E+03  0.00000000000E+00 0. -1.
          2   -1    0    0  501    0  0.00000000000E+00 -0.00000000000E+00 -0.73768408939E+03  0.73768408939E+03  0.00000000000E+00 0.  1.
         23    2    1    2    0    0 -0.65761228793E+03 -0.39929388142E+02  0.46385327211E+02  0.66668367692E+03  0.90924414832E+02 0.  0.
         11    1    3    3    0    0 -0.27182491458E+03 -0.36837409763E+02 -0.20720964276E+02  0.27509114363E+03  0.00000000000E+00 0. -1.
        -11    1    3    3    0    0 -0.38578737335E+03 -0.30919783786E+01  0.67106291487E+02  0.39159253329E+03  0.00000000000E+00 0.  1.
         22    1    1    2    0    0  0.65761228793E+03  0.39929388142E+02 -0.17372624153E+03  0.68134358754E+03  0.00000000000E+00 0.  1.
<mgrwt>
<rscale>  0 0.13419992E+04</rscale>
<asrwt>0</asrwt>
<pdfrwt beam="1">  1        2 0.11348986E+00 0.13419992E+04</pdfrwt>
<pdfrwt beam="2">  1       -2 0.93898949E-01 0.13419992E+04</pdfrwt>
<totfact> 0.35873419E+01</totfact>
</mgrwt>
</event>
<event>
 6    1  0.4630212E-004  0.4461054E+04  0.7818608E-02  0.7917491E-01
          2   -1    0    0  501    0  0.00000000000E+00  0.00000000000E+00  0.33534472431E+04  0.33534472431E+04  0.00000000000E+00 0.  1.
         -2   -1    0    0    0  501 -0.00000000000E+00 -0.00000000000E+00 -0.14836224481E+04  0.14836224481E+04  0.00000000000E+00 0. -1.
         23    2    1    2    0    0 -0.12162128329E+04 -0.12882822920E+04 -0.53244358564E+03  0.18521512180E+04  0.90127929018E+02 0.  0.
         11    1    3    3    0    0 -0.36521678171E+03 -0.43282691850E+03 -0.14120988913E+03  0.58366314927E+03  0.00000000000E+00 0.  1.
        -11    1    3    3    0    0 -0.85099605122E+03 -0.85545537351E+03 -0.39123369652E+03  0.12684880687E+04  0.00000000000E+00 0. -1.
         22    1    1    2    0    0  0.12162128329E+04  0.12882822920E+04  0.24022683807E+04  0.29849184732E+04  0.00000000000E+00 0.  1.
<mgrwt>
<rscale>  0 0.44610535E+04</rscale>
<asrwt>0</asrwt>
<pdfrwt beam="1">  1        2 0.51591496E+00 0.44610535E+04</pdfrwt>
<pdfrwt beam="2">  1       -2 0.22824961E+00 0.44610535E+04</pdfrwt>
<totfact> 0.68250478E-02</totfact>
</mgrwt>
</event>
<event>
 6    1  0.4630212E-004  0.5764726E+04  0.7818608E-02  0.7720277E-01
          2   -1    0    0  501    0  0.00000000000E+00  0.00000000000E+00  0.27161238123E+04  0.27161238123E+04  0.00000000000E+00 0.  1.
         -2   -1    0    0    0  501 -0.00000000000E+00 -0.00000000000E+00 -0.30587770385E+04  0.30587770385E+04  0.00000000000E+00 0. -1.
         23    2    1    2    0    0  0.71088866618E+03 -0.63952463529E+03 -0.28945154329E+04  0.30497668768E+04  0.92216898804E+02 0.  0.
         11    1    3    3    0    0  0.59532872204E+03 -0.49124156775E+03 -0.23761734695E+04  0.24983864638E+04  0.00000000000E+00 0. -1.
        -11    1    3    3    0    0  0.11555994413E+03 -0.14828306754E+03 -0.51834196336E+03  0.55138041295E+03  0.00000000000E+00 0.  1.
         22    1    1    2    0    0 -0.71088866618E+03  0.63952463529E+03  0.25518622066E+04  0.27251339740E+04  0.00000000000E+00 0.  1.
<mgrwt>
<rscale>  0 0.57647262E+04</rscale>
<asrwt>0</asrwt>
<pdfrwt beam="1">  1        2 0.41786520E+00 0.57647262E+04</pdfrwt>
<pdfrwt beam="2">  1       -2 0.47058108E+00 0.57647262E+04</pdfrwt>
<totfact> 0.45547332E-03</totfact>
</mgrwt>
</event>
<event>
 6    1  0.4630212E-004  0.3030771E+04  0.7818608E-02  0.8234998E-01
          2   -1    0    0  501    0  0.00000000000E+00  0.00000000000E+00  0.38386643107E+04  0.38386643107E+04  0.00000000000E+00 0.  1.
         -2   -1    0    0    0  501 -0.00000000000E+00 -0.00000000000E+00 -0.59822708236E+03  0.59822708236E+03  0.00000000000E+00 0. -1.
         23    2    1    2    0    0 -0.27630820541E+03 -0.13361570894E+04  0.66104462703E+03  0.15188564064E+04  0.91009848032E+02 0.  0.
         13    1    3    3    0    0 -0.21048733377E+03 -0.10337565021E+04  0.55253426659E+03  0.11909036649E+04  0.00000000000E+00 0.  1.
        -13    1    3    3    0    0 -0.65820871638E+02 -0.30240058729E+03  0.10851036044E+03  0.32795274150E+03  0.00000000000E+00 0. -1.
         22    1    1    2    0    0  0.27630820541E+03  0.13361570894E+04  0.25793926013E+04  0.29180349866E+04  0.00000000000E+00 0.  1.
<mgrwt>
<rscale>  0 0.30307708E+04</rscale>
<asrwt>0</asrwt>
<pdfrwt beam="1">  1        2 0.59056372E+00 0.30307708E+04</pdfrwt>
<pdfrwt beam="2">  1       -2 0.92034938E-01 0.30307708E+04</pdfrwt>
<totfact> 0.39275684E-01</totfact>
</mgrwt>
</event>
<event>
 6    1  0.4630212E-004  0.2858974E+04  0.7818608E-02  0.8285190E-01
         -2   -1    0    0    0  501 -0.00000000000E+00  0.00000000000E+00  0.97033977687E+03  0.97033977687E+03  0.00000000000E+00 0. -1.
          2   -1    0    0  501    0  0.00000000000E+00 -0.00000000000E+00 -0.21058945240E+04  0.21058945240E+04  0.00000000000E+00 0.  1.
         23    2    1    2    0    0 -0.27442212142E+03  0.37545441365E+03 -0.20211555826E+04  0.20759531617E+04  0.90764106774E+02 0.  0.
         11    1    3    3    0    0 -0.23999282269E+03  0.36505375408E+03 -0.18282181712E+04  0.18796921236E+04  0.00000000000E+00 0.  1.
        -11    1    3    3    0    0 -0.34429298733E+02  0.10400659565E+02 -0.19293741147E+03  0.19626103810E+03  0.00000000000E+00 0. -1.
         22    1    1    2    0    0  0.27442212142E+03 -0.37545441365E+03  0.88560083551E+03  0.10002811391E+04  0.00000000000E+00 0. -1.
<mgrwt>
<rscale>  0 0.28589741E+04</rscale>
<asrwt>0</asrwt>
<pdfrwt beam="1">  1        2 0.32398377E+00 0.28589741E+04</pdfrwt>
<pdfrwt beam="2">  1       -2 0.14928304E+00 0.28589741E+04</pdfrwt>
<totfact> 0.15323968E+00</totfact>
</mgrwt>
</event>
<event>
 6    1  0.4630212E-004  0.2154111E+04  0.7818608E-02  0.8537775E-01
         -2   -1    0    0    0  501 -0.00000000000E+00  0.00000000000E+00  0.89641476270E+03  0.89641476270E+03  0.00000000000E+00 0. -1.
          2   -1    0    0  501    0  0.00000000000E+00 -0.00000000000E+00 -0.12940978207E+04  0.12940978207E+04  0.00000000000E+00 0.  1.
         23    2    1    2    0    0  0.71321757797E+03 -0.58874845096E+03  0.35815576499E+03  0.99611048260E+03  0.93040257531E+02 0.  0.
         13    1    3    3    0    0  0.30536165037E+03 -0.30460665336E+03  0.14218089195E+03  0.45414354209E+03  0.00000000000E+00 0. -1.
        -13    1    3    3    0    0  0.40785592760E+03 -0.28414179760E+03  0.21597487304E+03  0.54196694051E+03  0.00000000000E+00 0.  1.
         22    1    1    2    0    0 -0.71321757797E+03  0.58874845096E+03 -0.75583882295E+03  0.11944021008E+04  0.00000000000E+00 0. -1.
<mgrwt>
<rscale>  0 0.21541109E+04</rscale>
<asrwt>0</asrwt>
<pdfrwt beam="1">  1        2 0.19909197E+00 0.21541109E+04</pdfrwt>
<pdfrwt beam="2">  1       -2 0.13790996E+00 0.21541109E+04</pdfrwt>
<totfact> 0.57104275E+00</totfact>
</mgrwt>
</event>
<event>
 6    1  0.4630212E-004  0.3072164E+04  0.7818608E-02  0.8223419E-01
          2   -1    0    0  501    0  0.00000000000E+00  0.00000000000E+00  0.39417066400E+04  0.39417066400E+04  0.00000000000E+00 0.  1.
         -2   -1    0    0    0  501 -0.00000000000E+00 -0.00000000000E+00 -0.59861089065E+03  0.59861089065E+03  0.00000000000E+00 0. -1.
         23    2    1    2    0    0 -0.10819444801E+04 -0.48473332515E+02  0.32798383652E+04  0.34554419531E+04  0.98923545008E+02 0.  0.
         11    1    3    3    0    0 -0.50426754992E+03 -0.50222248912E+02  0.16632899442E+04  0.17387758552E+04  0.00000000000E+00 0. -1.
        -11    1    3    3    0    0 -0.57767693017E+03  0.17489163968E+01  0.16165484210E+04  0.17166660979E+04  0.00000000000E+00 0.  1.
         22    1    1    2    0    0  0.10819444801E+04  0.48473332515E+02  0.63257384126E+02  0.10848755775E+04  0.00000000000E+00 0. -1.
<mgrwt>
<rscale>  0 0.30721644E+04</rscale>
<asrwt>0</asrwt>
<pdfrwt beam="1">  1        2 0.60641639E+00 0.30721644E+04</pdfrwt>
<pdfrwt beam="2">  1       -2 0.92093986E-01 0.30721644E+04</pdfrwt>
<totfact> 0.32456795E-01</totfact>
</mgrwt>
</event>
<event>
 6    1  0.4630212E-004  0.2167206E+04  0.7818608E-02  0.8532203E-01
         -2   -1    0    0    0  501 -0.00000000000E+00  0.00000000000E+00  0.80341271585E+03  0.80341271585E+03  0.00000000000E+00 0. -1.
          2   -1    0    0  501    0  0.00000000000E+00 -0.00000000000E+00 -0.14615093573E+04  0.14615093573E+04  0.00000000000E+00 0.  1.
         23    2    1    2    0    0 -0.16446211719E+03  0.61515409416E+03  0.58413823841E+03  0.86899591312E+03  0.92054700554E+02 0.  0.
         11    1    3    3    0    0 -0.11779847337E+03  0.29133052219E+03  0.32014956801E+03  0.44860416782E+03  0.00000000000E+00 0.  1.
        -11    1    3    3    0    0 -0.46663643822E+02  0.32382357197E+03  0.26398867040E+03  0.42039174530E+03  0.00000000000E+00 0. -1.
         22    1    1    2    0    0  0.16446211719E+03 -0.61515409416E+03 -0.12422348799E+04  0.13959261601E+04  0.00000000000E+00 0.  1.
<mgrwt>
<rscale>  0 0.21672058E+04</rscale>
<asrwt>0</asrwt>
<pdfrwt beam="1">  1        2 0.22484759E+00 0.21672058E+04</pdfrwt>
<pdfrwt beam="2">  1       -2 0.12360196E+00 0.21672058E+04</pdfrwt>
<totfact> 0.60344447E+00</totfact>
</mgrwt>
</event>
<event>
 6    1  0.4630212E-004  0.2670505E+04  0.7818608E-02  0.8344639E-01
         -4   -1    0    0    0  501 -0.00000000000E+00  0.00000000000E+00  0.13257220437E+04  0.13257220437E+04  0.00000000000E+00 0. -1.
          4   -1    0    0  501    0  0.00000000000E+00 -0.00000000000E+00 -0.13448515176E+04  0.13448515176E+04  0.00000000000E+00 0.  1.
         23    2    1    2    0    0  0.79138787749E+03  0.76209560249E+03  0.74673211217E+03  0.13313094166E+04  0.87700829509E+02 0.  0.
         11    1    3    3    0    0  0.46569617401E+03  0.50398209727E+03  0.48237912029E+03  0.83878513133E+03  0.00000000000E+00 0.  1.
        -11    1    3    3    0    0  0.32569170348E+03  0.25811350522E+03  0.26435299188E+03  0.49252428530E+03  0.00000000000E+00 0. -1.
         22    1    1    2    0    0 -0.79138787749E+03 -0.76209560249E+03 -0.76586158611E+03  0.13392641446E+04  0.00000000000E+00 0.  1.
<mgrwt>
<rscale>  0 0.26705050E+04</rscale>
<asrwt>0</asrwt>
<pdfrwt beam="1">  1        4 0.20690023E+00 0.26705050E+04</pdfrwt>
<pdfrwt beam="2">  1       -4 0.20395724E+00 0.26705050E+04</pdfrwt>
<totfact> 0.25722986E-02</totfact>
</mgrwt>
</event>
<event>
 6    1  0.4630212E-004  0.1906077E+04  0.7818608E-02  0.8651837E-01
         -2   -1    0    0    0  501 -0.00000000000E+00  0.00000000000E+00  0.10915946517E+04  0.10915946517E+04  0.00000000000E+00 0. -1.
          2   -1    0    0  501    0  0.00000000000E+00 -0.00000000000E+00 -0.83206962149E+03  0.83206962149E+03  0.00000000000E+00 0.  1.
         23    2    1    2    0    0 -0.16992208646E+03  0.35330979751E+03 -0.74419894556E+03  0.84609146915E+03  0.91309227956E+02 0.  0.
         13    1    3    3    0    0 -0.14299495477E+03  0.32955762917E+03 -0.71356393035E+03  0.79889252765E+03  0.00000000000E+00 0.  1.
        -13    1    3    3    0    0 -0.26927131689E+02  0.23752168339E+02 -0.30635015206E+02  0.47198941497E+02  0.00000000000E+00 0. -1.
         22    1    1    2    0    0  0.16992208646E+03 -0.35330979751E+03  0.10037239758E+04  0.10775728041E+04  0.00000000000E+00 0. -1.
<mgrwt>
<rscale>  0 0.19060774E+04</rscale>
<asrwt>0</asrwt>
<pdfrwt beam="1">  1        2 0.12801071E+00 0.19060774E+04</pdfrwt>
<pdfrwt beam="2">  1       -2 0.16793764E+00 0.19060774E+04</pdfrwt>
<totfact> 0.67410355E+00</totfact>
</mgrwt>
</event>
<event>
 6    1  0.4630212E-004  0.1352820E+04  0.7818608E-02  0.8988696E-01
         -2   -1    0    0    0  501 -0.00000000000E+00  0.00000000000E+00  0.35230689927E+03  0.35230689927E+03  0.00000000000E+00 0. -1.
          2   -1    0    0  501    0  0.00000000000E+00 -0.00000000000E+00 -0.12986699031E+04  0.12986699031E+04  0.00000000000E+00 0.  1.
         23    2    1    2    0    0 -0.64787392700E+03 -0.17153877662E+03 -0.55683669529E+03  0.87580138856E+03  0.88288106888E+02 0.  0.
         13    1    3    3    0    0 -0.22056897210E+03 -0.27548656945E+02 -0.22206403042E+03  0.31420062629E+03  0.00000000000E+00 0.  1.
        -13    1    3    3    0    0 -0.42730495489E+03 -0.14399011968E+03 -0.33477266487E+03  0.56160076227E+03  0.00000000000E+00 0. -1.
         22    1    1    2    0    0  0.64787392700E+03  0.17153877662E+03 -0.38952630858E+03  0.77517541385E+03  0.00000000000E+00 0.  1.
<mgrwt>
<rscale>  0 0.13528198E+04</rscale>
<asrwt>0</asrwt>
<pdfrwt beam="1">  1        2 0.19979537E+00 0.13528198E+04</pdfrwt>
<pdfrwt beam="2">  1       -2 0.54201061E-01 0.13528198E+04</pdfrwt>
<totfact> 0.51826598E+01</totfact>
</mgrwt>
</event>
<event>
 6    1  0.4630212E-004  0.6912543E+04  0.7818608E-02  0.7586523E-01
         -2   -1    0    0    0  501 -0.00000000000E+00  0.00000000000E+00  0.37994063222E+04  0.37994063222E+04  0.00000000000E+00 0. -1.
          2   -1    0    0  501    0  0.00000000000E+00 -0.00000000000E+00 -0.31441265780E+04  0.31441265780E+04  0.00000000000E+00 0.  1.
         23    2    1    2    0    0 -0.97110013303E+03 -0.91230852061E+03  0.35302105897E+04  0.37748471046E+04  0.10835843567E+03 0.  0.
         11    1    3    3    0    0 -0.73042732249E+03 -0.68418582276E+03  0.27781837952E+04  0.29529543704E+04  0.00000000000E+00 0.  1.
        -11    1    3    3    0    0 -0.24067281054E+03 -0.22812269785E+03  0.75202679447E+03  0.82189273425E+03  0.00000000000E+00 0. -1.
         22    1    1    2    0    0  0.97110013303E+03  0.91230852061E+03 -0.28749308454E+04  0.31686857956E+04  0.00000000000E+00 0.  1.
<mgrwt>
<rscale>  0 0.69125435E+04</rscale>
<asrwt>0</asrwt>
<pdfrwt beam="1">  1        2 0.48371178E+00 0.69125435E+04</pdfrwt>
<pdfrwt beam="2">  1       -2 0.58452405E+00 0.69125435E+04</pdfrwt>
<totfact> 0.53409194E-04</totfact>
</mgrwt>
</event>
<event>
 6    1  0.4630212E-004  0.3303323E+04  0.7818608E-02  0.8162050E-01
          2   -1    0    0  501    0  0.00000000000E+00  0.00000000000E+00  0.12311401964E+04  0.12311401964E+04  0.00000000000E+00 0.  1.
         -2   -1    0    0    0  501 -0.00000000000E+00 -0.00000000000E+00 -0.22158206943E+04  0.22158206943E+04  0.00000000000E+00 0. -1.
         23    2    1    2    0    0 -0.97948243388E+03 -0.29019675075E+03 -0.18452897239E+04  0.21112033407E+04  0.92116166771E+02 0.  0.
         13    1    3    3    0    0 -0.56444803985E+03 -0.19306197039E+03 -0.99703976254E+03  0.11618789964E+04  0.00000000000E+00 0. -1.
        -13    1    3    3    0    0 -0.41503439403E+03 -0.97134780358E+02 -0.84824996139E+03  0.94932434435E+03  0.00000000000E+00 0.  1.
         22    1    1    2    0    0  0.97948243388E+03  0.29019675075E+03  0.86060922608E+03  0.13357575500E+04  0.00000000000E+00 0.  1.
<mgrwt>
<rscale>  0 0.33033231E+04</rscale>
<asrwt>0</asrwt>
<pdfrwt beam="1">  1        2 0.18940619E+00 0.33033231E+04</pdfrwt>
<pdfrwt beam="2">  1       -2 0.34089549E+00 0.33033231E+04</pdfrwt>
<totfact> 0.26888257E-01</totfact>
</mgrwt>
</event>
<event>
 6    1  0.4630212E-004  0.3605939E+04  0.7818608E-02  0.8089133E-01
         -2   -1    0    0    0  501 -0.00000000000E+00  0.00000000000E+00  0.18574075372E+04  0.18574075372E+04  0.00000000000E+00 0. -1.
          2   -1    0    0  501    0  0.00000000000E+00 -0.00000000000E+00 -0.17501271879E+04  0.17501271879E+04  0.00000000000E+00 0.  1.
         23    2    1    2    0    0  0.17365773682E+04 -0.13977196273E+03 -0.40614438177E+03  0.17912632389E+04  0.91834496349E+02 0.  0.
         13    1    3    3    0    0  0.11139306029E+04 -0.12788613976E+03 -0.28366040475E+03  0.11565722970E+04  0.00000000000E+00 0.  1.
        -13    1    3    3    0    0  0.62264676528E+03 -0.11885822967E+02 -0.12248397703E+03  0.63469094190E+03  0.00000000000E+00 0. -1.
         22    1    1    2    0    0 -0.17365773682E+04  0.13977196273E+03  0.51342473105E+03  0.18162714863E+04  0.00000000000E+00 0. -1.
<mgrwt>
<rscale>  0 0.36059392E+04</rscale>
<asrwt>0</asrwt>
<pdfrwt beam="1">  1        2 0.26925034E+00 0.36059392E+04</pdfrwt>
<pdfrwt beam="2">  1       -2 0.28575500E+00 0.36059392E+04</pdfrwt>
<totfact> 0.29100599E-01</totfact>
</mgrwt>
</event>
<event>
 6    1  0.4630212E-004  0.1659461E+04  0.7818608E-02  0.8784829E-01
         -2   -1    0    0    0  501 -0.00000000000E+00  0.00000000000E+00  0.67693429007E+03  0.67693429007E+03  0.00000000000E+00 0. -1.
          2   -1    0    0  501    0  0.00000000000E+00 -0.00000000000E+00 -0.10170155994E+04  0.10170155994E+04  0.00000000000E+00 0.  1.
         23    2    1    2    0    0 -0.25974039865E+03 -0.78447607184E+03 -0.12860307327E+03  0.84096054232E+03  0.88363461354E+02 0.  0.
         13    1    3    3    0    0 -0.19141051412E+03 -0.43921989134E+03 -0.74507156532E+02  0.48487463766E+03  0.00000000000E+00 0.  1.
        -13    1    3    3    0    0 -0.68329884521E+02 -0.34525618050E+03 -0.54095916738E+02  0.35608590466E+03  0.00000000000E+00 0. -1.
         22    1    1    2    0    0  0.25974039865E+03  0.78447607184E+03 -0.21147823601E+03  0.85298934711E+03  0.00000000000E+00 0.  1.
<mgrwt>
<rscale>  0 0.16594610E+04</rscale>
<asrwt>0</asrwt>
<pdfrwt beam="1">  1        2 0.15646394E+00 0.16594610E+04</pdfrwt>
<pdfrwt beam="2">  1       -2 0.10414374E+00 0.16594610E+04</pdfrwt>
<totfact> 0.17580901E+01</totfact>
</mgrwt>
</event>
<event>
 6    1  0.4630212E-004  0.1708365E+04  0.7818608E-02  0.8756608E-01
         -2   -1    0    0    0  501 -0.00000000000E+00  0.00000000000E+00  0.25692218799E+03  0.25692218799E+03  0.00000000000E+00 0.  1.
          2   -1    0    0  501    0  0.00000000000E+00 -0.00000000000E+00 -0.28398773386E+04  0.28398773386E+04  0.00000000000E+00 0. -1.
         23    2    1    2    0    0  0.25422621407E+03 -0.10412071338E+03 -0.27565535327E+04  0.27718249289E+04  0.94625402079E+02 0.  0.
         11    1    3    3    0    0  0.97458731376E+02 -0.39564418571E+02 -0.15297667606E+04  0.15333785864E+04  0.00000000000E+00 0.  1.
        -11    1    3    3    0    0  0.15676748269E+03 -0.64556294805E+02 -0.12267867721E+04  0.12384463424E+04  0.00000000000E+00 0. -1.
         22    1    1    2    0    0 -0.25422621407E+03  0.10412071338E+03  0.17359838213E+03  0.32497459770E+03  0.00000000000E+00 0.  1.
<mgrwt>
<rscale>  0 0.17083647E+04</rscale>
<asrwt>0</asrwt>
<pdfrwt beam="1">  1        2 0.43690423E+00 0.17083647E+04</pdfrwt>
<pdfrwt beam="2">  1       -2 0.39526488E-01 0.17083647E+04</pdfrwt>
<totfact> 0.12634478E+01</totfact>
</mgrwt>
</event>
<event>
 6    1  0.4630212E-004  0.2400600E+04  0.7818608E-02  0.8439279E-01
          2   -1    0    0  501    0  0.00000000000E+00  0.00000000000E+00  0.34786904465E+04  0.34786904465E+04  0.00000000000E+00 0.  1.
         -2   -1    0    0    0  501 -0.00000000000E+00 -0.00000000000E+00 -0.41415583281E+03  0.41415583281E+03  0.00000000000E+00 0. -1.
         23    2    1    2    0    0  0.33290179800E+03  0.54846078931E+03 -0.10740156333E+03  0.65667385566E+03  0.89736349239E+02 0.  0.
         11    1    3    3    0    0  0.22787506561E+03  0.43210267165E+03 -0.55967521592E+02  0.49170329249E+03  0.00000000000E+00 0.  1.
        -11    1    3    3    0    0  0.10502673239E+03  0.11635811766E+03 -0.51434041734E+02  0.16497056317E+03  0.00000000000E+00 0. -1.
         22    1    1    2    0    0 -0.33290179800E+03 -0.54846078931E+03  0.31719361770E+04  0.32361724236E+04  0.00000000000E+00 0.  1.
<mgrwt>
<rscale>  0 0.24005999E+04</rscale>
<asrwt>0</asrwt>
<pdfrwt beam="1">  1        2 0.53518313E+00 0.24005999E+04</pdfrwt>
<pdfrwt beam="2">  1       -2 0.63716284E-01 0.24005999E+04</pdfrwt>
<totfact> 0.17271254E+00</totfact>
</mgrwt>
</event>
<event>
 6    1  0.4630212E-004  0.4006411E+04  0.7818608E-02  0.8003254E-01
          2   -1    0    0  501    0  0.00000000000E+00  0.00000000000E+00  0.42145391078E+04  0.42145391078E+04  0.00000000000E+00 0. -1.
         -2   -1    0    0    0  501 -0.00000000000E+00 -0.00000000000E+00 -0.95214043206E+03  0.95214043206E+03  0.00000000000E+00 0.  1.
         23    2    1    2    0    0 -0.15050025730E+04  0.86449063485E+03  0.34475175367E+03  0.17718245556E+04  0.90175837015E+02 0.  0.
         11    1    3    3    0    0 -0.92748725936E+03  0.55841403360E+03  0.25322044013E+03  0.11118360673E+04  0.00000000000E+00 0.  1.
        -11    1    3    3    0    0 -0.57751531365E+03  0.30607660125E+03  0.91531313541E+02  0.65998848830E+03  0.00000000000E+00 0. -1.
         22    1    1    2    0    0  0.15050025730E+04 -0.86449063485E+03  0.29176469221E+04  0.33948549843E+04  0.00000000000E+00 0.  1.
<mgrwt>
<rscale>  0 0.40064114E+04</rscale>
<asrwt>0</asrwt>
<pdfrwt beam="1">  1        2 0.64839062E+00 0.40064114E+04</pdfrwt>
<pdfrwt beam="2">  1       -2 0.14648315E+00 0.40064114E+04</pdfrwt>
<totfact> 0.56530474E-02</totfact>
</mgrwt>
</event>
<event>
 6    1  0.4630212E-004  0.1779191E+04  0.7818608E-02  0.8717445E-01
          2   -1    0    0  501    0  0.00000000000E+00  0.00000000000E+00  0.10918591069E+04  0.10918591069E+04  0.00000000000E+00 0.  1.
         -2   -1    0    0    0  501 -0.00000000000E+00 -0.00000000000E+00 -0.72480024939E+03  0.72480024939E+03  0.00000000000E+00 0. -1.
         23    2    1    2    0    0  0.62550536553E+03  0.61848182783E+02 -0.45541006541E+03  0.78150850294E+03  0.90967315401E+02 0.  0.
         13    1    3    3    0    0  0.25865705468E+03  0.70694847717E+02 -0.19073508209E+03  0.32906094416E+03  0.00000000000E+00 0. -1.
        -13    1    3    3    0    0  0.36684831085E+03 -0.88466649342E+01 -0.26467498332E+03  0.45244755878E+03  0.00000000000E+00 0.  1.
         22    1    1    2    0    0 -0.62550536553E+03 -0.61848182783E+02  0.82246892297E+03  0.10351508534E+04  0.00000000000E+00 0.  1.
<mgrwt>
<rscale>  0 0.17791905E+04</rscale>
<asrwt>0</asrwt>
<pdfrwt beam="1">  1        2 0.16797832E+00 0.17791905E+04</pdfrwt>
<pdfrwt beam="2">  1       -2 0.11150773E+00 0.17791905E+04</pdfrwt>
<totfact> 0.13250629E+01</totfact>
</mgrwt>
</event>
<event>
 6    1  0.4630212E-004  0.6135866E+03  0.7818608E-02  0.9877612E-01
         -2   -1    0    0    0  501 -0.00000000000E+00  0.00000000000E+00  0.67644646627E+02  0.67644646627E+02  0.00000000000E+00 0. -1.
          2   -1    0    0  501    0  0.00000000000E+00 -0.00000000000E+00 -0.13914200806E+04  0.13914200806E+04  0.00000000000E+00 0.  1.
         23    2    1    2    0    0 -0.17262589194E+03  0.12433808512E+03 -0.11797483963E+04  0.12021533698E+04  0.90037703792E+02 0.  0.
         11    1    3    3    0    0 -0.41747277096E+02  0.36831614161E+01 -0.11033841541E+03  0.11802951638E+03  0.00000000000E+00 0.  1.
        -11    1    3    3    0    0 -0.13087861485E+03  0.12065492370E+03 -0.10694099809E+04  0.10841238535E+04  0.00000000000E+00 0. -1.
         22    1    1    2    0    0  0.17262589194E+03 -0.12433808512E+03 -0.14402703774E+03  0.25691135744E+03  0.00000000000E+00 0. -1.
<mgrwt>
<rscale>  0 0.61358657E+03</rscale>
<asrwt>0</asrwt>
<pdfrwt beam="1">  1        2 0.21406463E+00 0.61358657E+03</pdfrwt>
<pdfrwt beam="2">  1       -2 0.10406869E-01 0.61358657E+03</pdfrwt>
<totfact> 0.95611523E+02</totfact>
</mgrwt>
</event>
<event>
 6    1  0.4630212E-004  0.4030778E+04  0.7818608E-02  0.7998366E-01
          2   -1    0    0  501    0  0.00000000000E+00  0.00000000000E+00  0.18022120518E+04  0.18022120518E+04  0.00000000000E+00 0.  1.
         -2   -1    0    0    0  501 -0.00000000000E+00 -0.00000000000E+00 -0.22537817775E+04  0.22537817775E+04  0.00000000000E+00 0. -1.
         23    2    1    2    0    0  0.17336781061E+04  0.86951829855E+03 -0.77325423957E+03  0.20899870202E+04  0.91770247461E+02 0.  0.
         13    1    3    3    0    0  0.10034997055E+04  0.45447271822E+03 -0.45244221181E+03  0.11909076646E+04  0.00000000000E+00 0.  1.
        -13    1    3    3    0    0  0.73017840063E+03  0.41504558033E+03 -0.32081202776E+03  0.89907935559E+03  0.00000000000E+00 0. -1.
         22    1    1    2    0    0 -0.17336781061E+04 -0.86951829855E+03  0.32168451389E+03  0.19660068092E+04  0.00000000000E+00 0. -1.
<mgrwt>
<rscale>  0 0.40307779E+04</rscale>
<asrwt>0</asrwt>
<pdfrwt beam="1">  1        2 0.27726339E+00 0.40307779E+04</pdfrwt>
<pdfrwt beam="2">  1       -2 0.34673566E+00 0.40307779E+04</pdfrwt>
<totfact> 0.11043002E-01</totfact>
</mgrwt>
</event>
<event>
 6    1  0.4630212E-004  0.2226783E+04  0.7818608E-02  0.8507362E-01
          2   -1    0    0  501    0  0.00000000000E+00  0.00000000000E+00  0.31221546715E+04  0.31221546715E+04  0.00000000000E+00 0.  1.
         -2   -1    0    0    0  501 -0.00000000000E+00 -0.00000000000E+00 -0.39704654035E+03  0.39704654035E+03  0.00000000000E+00 0. -1.
         23    2    1    2    0    0 -0.52707161402E+03 -0.58467705531E+03  0.26048766578E+04  0.27228926332E+04  0.95447074469E+02 0.  0.
         13    1    3    3    0    0 -0.23083268246E+03 -0.28907648795E+03  0.13680148236E+04  0.14171497806E+04  0.00000000000E+00 0. -1.
        -13    1    3    3    0    0 -0.29623893155E+03 -0.29560056736E+03  0.12368618342E+04  0.13057428525E+04  0.00000000000E+00 0.  1.
         22    1    1    2    0    0  0.52707161402E+03  0.58467705531E+03  0.12023147335E+03  0.79630857869E+03  0.00000000000E+00 0. -1.
<mgrwt>
<rscale>  0 0.22267831E+04</rscale>
<asrwt>0</asrwt>
<pdfrwt beam="1">  1        2 0.48033147E+00 0.22267831E+04</pdfrwt>
<pdfrwt beam="2">  1       -2 0.61084085E-01 0.22267831E+04</pdfrwt>
<totfact> 0.33170751E+00</totfact>
</mgrwt>
</event>
<event>
 6    1  0.4630212E-004  0.1152538E+04  0.7818608E-02  0.9155445E-01
         -4   -1    0    0    0  501 -0.00000000000E+00  0.00000000000E+00  0.16195938033E+04  0.16195938033E+04  0.00000000000E+00 0. -1.
          4   -1    0    0  501    0  0.00000000000E+00 -0.00000000000E+00 -0.20504279866E+03  0.20504279866E+03  0.00000000000E+00 0.  1.
         23    2    1    2    0    0 -0.63874588042E+01  0.50884041258E+03  0.11232530236E+04  0.12382801584E+04  0.11261008238E+03 0.  0.
         11    1    3    3    0    0  0.31832733248E+02  0.20527203747E+03  0.56007527071E+03  0.59735604219E+03  0.00000000000E+00 0.  1.
        -11    1    3    3    0    0 -0.38220192053E+02  0.30356837511E+03  0.56317775289E+03  0.64092411625E+03  0.00000000000E+00 0. -1.
         22    1    1    2    0    0  0.63874588042E+01 -0.50884041258E+03  0.29129798102E+03  0.58635644351E+03  0.00000000000E+00 0.  1.
<mgrwt>
<rscale>  0 0.11525381E+04</rscale>
<asrwt>0</asrwt>
<pdfrwt beam="1">  1        4 0.31545047E-01 0.11525381E+04</pdfrwt>
<pdfrwt beam="2">  1       -4 0.24916827E+00 0.11525381E+04</pdfrwt>
<totfact> 0.12398823E+00</totfact>
</mgrwt>
</event>
<event>
 6    1  0.4630212E-004  0.6982252E+04  0.7818608E-02  0.7579269E-01
         -2   -1    0    0    0  501 -0.00000000000E+00  0.00000000000E+00  0.42221370872E+04  0.42221370872E+04  0.00000000000E+00 0. -1.
          2   -1    0    0  501    0  0.00000000000E+00 -0.00000000000E+00 -0.28866802468E+04  0.28866802468E+04  0.00000000000E+00 0.  1.
         23    2    1    2    0    0 -0.27965001299E+04  0.58750140767E+03  0.27087313696E+04  0.39384145499E+04  0.91173755323E+02 0.  0.
         11    1    3    3    0    0 -0.20695907423E+04  0.45939007416E+03  0.19649231337E+04  0.28905307475E+04  0.00000000000E+00 0. -1.
        -11    1    3    3    0    0 -0.72690938765E+03  0.12811133351E+03  0.74380823591E+03  0.10478838024E+04  0.00000000000E+00 0.  1.
         22    1    1    2    0    0  0.27965001299E+04 -0.58750140767E+03 -0.13732745293E+04  0.31704027841E+04  0.00000000000E+00 0.  1.
<mgrwt>
<rscale>  0 0.69822517E+04</rscale>
<asrwt>0</asrwt>
<pdfrwt beam="1">  1        2 0.44410465E+00 0.69822517E+04</pdfrwt>
<pdfrwt beam="2">  1       -2 0.64955955E+00 0.69822517E+04</pdfrwt>
<totfact> 0.44382677E-04</totfact>
</mgrwt>
</event>
<event>
 6    1  0.4630212E-004  0.1880221E+04  0.7818608E-02  0.8664765E-01
         -2   -1    0    0    0  501 -0.00000000000E+00  0.00000000000E+00  0.12025502154E+04  0.12025502154E+04  0.00000000000E+00 0. -1.
          2   -1    0    0  501    0  0.00000000000E+00 -0.00000000000E+00 -0.73494453322E+03  0.73494453322E+03  0.00000000000E+00 0.  1.
         23    2    1    2    0    0 -0.20257399826E+03  0.82171035324E+03  0.64929357879E+03  0.10718997965E+04  0.10555990205E+03 0.  0.
         13    1    3    3    0    0 -0.12338471864E+03  0.57148471113E+03  0.38888693142E+03  0.70217633773E+03  0.00000000000E+00 0. -1.
        -13    1    3    3    0    0 -0.79189279621E+02  0.25022564211E+03  0.26040664737E+03  0.36972345878E+03  0.00000000000E+00 0.  1.
         22    1    1    2    0    0  0.20257399826E+03 -0.82171035324E+03 -0.18168789659E+03  0.86559495213E+03  0.00000000000E+00 0.  1.
<mgrwt>
<rscale>  0 0.18802210E+04</rscale>
<asrwt>0</asrwt>
<pdfrwt beam="1">  1        2 0.11306839E+00 0.18802210E+04</pdfrwt>
<pdfrwt beam="2">  1       -2 0.18500773E+00 0.18802210E+04</pdfrwt>
<totfact> 0.60460739E+00</totfact>
</mgrwt>
</event>
<event>
 6    1  0.4630212E-004  0.3512912E+04  0.7818608E-02  0.8110737E-01
          2   -1    0    0  501    0  0.00000000000E+00  0.00000000000E+00  0.19205627971E+04  0.19205627971E+04  0.00000000000E+00 0.  1.
         -2   -1    0    0    0  501 -0.00000000000E+00 -0.00000000000E+00 -0.16063715577E+04  0.16063715577E+04  0.00000000000E+00 0. -1.
         23    2    1    2    0    0  0.87246632873E+03  0.64686319499E+03  0.15415402403E+04  0.18880276895E+04  0.93127632645E+02 0.  0.
         11    1    3    3    0    0  0.20178190108E+03  0.15351586714E+03  0.29471751376E+03  0.38876917314E+03  0.00000000000E+00 0. -1.
        -11    1    3    3    0    0  0.67068442765E+03  0.49334732786E+03  0.12468227265E+04  0.14992585163E+04  0.00000000000E+00 0.  1.
         22    1    1    2    0    0 -0.87246632873E+03 -0.64686319499E+03 -0.12273490009E+04  0.16389066654E+04  0.00000000000E+00 0. -1.
<mgrwt>
<rscale>  0 0.35129119E+04</rscale>
<asrwt>0</asrwt>
<pdfrwt beam="1">  1        2 0.29547120E+00 0.35129119E+04</pdfrwt>
<pdfrwt beam="2">  1       -2 0.24713409E+00 0.35129119E+04</pdfrwt>
<totfact> 0.40636896E-01</totfact>
</mgrwt>
</event>
<event>
 6    1  0.4630212E-004  0.2659526E+04  0.7818608E-02  0.8348258E-01
          2   -1    0    0  501    0  0.00000000000E+00  0.00000000000E+00  0.22648194965E+04  0.22648194965E+04  0.00000000000E+00 0.  1.
         -2   -1    0    0    0  501 -0.00000000000E+00 -0.00000000000E+00 -0.78075519238E+03  0.78075519238E+03  0.00000000000E+00 0. -1.
         23    2    1    2    0    0 -0.46029726459E+03  0.11380273873E+04  0.16225256279E+03  0.12416439293E+04  0.91508725987E+02 0.  0.
         11    1    3    3    0    0 -0.41891368545E+03  0.99246440309E+03  0.11642734731E+03  0.10835264623E+04  0.00000000000E+00 0. -1.
        -11    1    3    3    0    0 -0.41383579142E+02  0.14556298419E+03  0.45825215478E+02  0.15811746698E+03  0.00000000000E+00 0.  1.
         22    1    1    2    0    0  0.46029726459E+03 -0.11380273873E+04  0.13218117414E+04  0.18039307596E+04  0.00000000000E+00 0.  1.
<mgrwt>
<rscale>  0 0.26595260E+04</rscale>
<asrwt>0</asrwt>
<pdfrwt beam="1">  1        2 0.34843377E+00 0.26595260E+04</pdfrwt>
<pdfrwt beam="2">  1       -2 0.12011618E+00 0.26595260E+04</pdfrwt>
<totfact> 0.22129729E+00</totfact>
</mgrwt>
</event>
<event>
 6    1  0.4630212E-004  0.1779605E+04  0.7818608E-02  0.8717221E-01
          2   -1    0    0  501    0  0.00000000000E+00  0.00000000000E+00  0.15347422087E+04  0.15347422087E+04  0.00000000000E+00 0.  1.
         -2   -1    0    0    0  501 -0.00000000000E+00 -0.00000000000E+00 -0.51588367701E+03  0.51588367701E+03  0.00000000000E+00 0. -1.
         23    2    1    2    0    0 -0.59986864826E+03 -0.51653057989E+03  0.48398328558E+02  0.79825244260E+03  0.90654998652E+02 0.  0.
         13    1    3    3    0    0 -0.54806394827E+02 -0.53955489264E+02  0.31647840799E+02  0.83165627292E+02  0.00000000000E+00 0. -1.
        -13    1    3    3    0    0 -0.54506225343E+03 -0.46257509063E+03  0.16750487759E+02  0.71508681531E+03  0.00000000000E+00 0.  1.
         22    1    1    2    0    0  0.59986864826E+03  0.51653057989E+03  0.97046020310E+03  0.12523734431E+04  0.00000000000E+00 0.  1.
<mgrwt>
<rscale>  0 0.17796050E+04</rscale>
<asrwt>0</asrwt>
<pdfrwt beam="1">  1        2 0.23611418E+00 0.17796050E+04</pdfrwt>
<pdfrwt beam="2">  1       -2 0.79366720E-01 0.17796050E+04</pdfrwt>
<totfact> 0.16145525E+01</totfact>
</mgrwt>
</event>
<event>
 6    1  0.4630212E-004  0.1926284E+04  0.7818608E-02  0.8641883E-01
         -2   -1    0    0    0  501 -0.00000000000E+00  0.00000000000E+00  0.11909697037E+04  0.11909697037E+04  0.00000000000E+00 0. -1.
          2   -1    0    0  501    0  0.00000000000E+00 -0.00000000000E+00 -0.77889700056E+03  0.77889700056E+03  0.00000000000E+00 0.  1.
         23    2    1    2    0    0 -0.82013124919E+03 -0.48604238887E+03  0.82117816210E+02  0.96104427334E+03  0.89500222869E+02 0.  0.
         11    1    3    3    0    0 -0.54358531377E+03 -0.27831978195E+03  0.31673062860E+02  0.61151457651E+03  0.00000000000E+00 0. -1.
        -11    1    3    3    0    0 -0.27654593542E+03 -0.20772260692E+03  0.50444753350E+02  0.34952969683E+03  0.00000000000E+00 0.  1.
         22    1    1    2    0    0  0.82013124919E+03  0.48604238887E+03  0.32995488690E+03  0.10088224309E+04  0.00000000000E+00 0.  1.
<mgrwt>
<rscale>  0 0.19262842E+04</rscale>
<asrwt>0</asrwt>
<pdfrwt beam="1">  1        2 0.11983031E+00 0.19262842E+04</pdfrwt>
<pdfrwt beam="2">  1       -2 0.18322611E+00 0.19262842E+04</pdfrwt>
<totfact> 0.57435260E+00</totfact>
</mgrwt>
</event>
<event>
 6    1  0.4630212E-004  0.4791768E+04  0.7818608E-02  0.7861457E-01
          2   -1    0    0  501    0  0.00000000000E+00  0.00000000000E+00  0.21520535014E+04  0.21520535014E+04  0.00000000000E+00 0.  1.
         -2   -1    0    0    0  501 -0.00000000000E+00 -0.00000000000E+00 -0.26673407999E+04  0.26673407999E+04  0.00000000000E+00 0. -1.
         23    2    1    2    0    0 -0.83491445192E+03  0.16117039689E+04  0.13137652805E+04  0.22425541507E+04  0.91641046780E+02 0.  0.
         13    1    3    3    0    0 -0.37995729655E+03  0.79627988906E+03  0.68214431249E+03  0.11152354334E+04  0.00000000000E+00 0.  1.
        -13    1    3    3    0    0 -0.45495715537E+03  0.81542407980E+03  0.63162096798E+03  0.11273187173E+04  0.00000000000E+00 0. -1.
         22    1    1    2    0    0  0.83491445192E+03 -0.16117039689E+04 -0.18290525790E+04  0.25768401506E+04  0.00000000000E+00 0. -1.
<mgrwt>
<rscale>  0 0.47917680E+04</rscale>
<asrwt>0</asrwt>
<pdfrwt beam="1">  1        2 0.33108516E+00 0.47917680E+04</pdfrwt>
<pdfrwt beam="2">  1       -2 0.41036012E+00 0.47917680E+04</pdfrwt>
<totfact> 0.25829318E-02</totfact>
</mgrwt>
</event>
<event>
 6    1  0.4630212E-004  0.2660186E+04  0.7818608E-02  0.8348040E-01
         -2   -1    0    0    0  501 -0.00000000000E+00  0.00000000000E+00  0.83455477616E+03  0.83455477616E+03  0.00000000000E+00 0. -1.
          2   -1    0    0  501    0  0.00000000000E+00 -0.00000000000E+00 -0.21198696156E+04  0.21198696156E+04  0.00000000000E+00 0.  1.
         23    2    1    2    0    0 -0.42708714232E+03  0.25544427851E+03 -0.20113477675E+04  0.20742090662E+04  0.95750727666E+02 0.  0.
         11    1    3    3    0    0 -0.40329982991E+03  0.20882848579E+03 -0.18238030200E+04  0.18794992804E+04  0.00000000000E+00 0. -1.
        -11    1    3    3    0    0 -0.23787312406E+02  0.46615792721E+02 -0.18754474756E+03  0.19470978583E+03  0.00000000000E+00 0.  1.
         22    1    1    2    0    0  0.42708714232E+03 -0.25544427851E+03  0.72603292812E+03  0.88021532551E+03  0.00000000000E+00 0. -1.
<mgrwt>
<rscale>  0 0.26601859E+04</rscale>
<asrwt>0</asrwt>
<pdfrwt beam="1">  1        2 0.32613379E+00 0.26601859E+04</pdfrwt>
<pdfrwt beam="2">  1       -2 0.12839304E+00 0.26601859E+04</pdfrwt>
<totfact> 0.22592896E+00</totfact>
</mgrwt>
</event>
<event>
 6    1  0.4630212E-004  0.2416415E+04  0.7818608E-02  0.8433383E-01
         -2   -1    0    0    0  501 -0.00000000000E+00  0.00000000000E+00  0.80626727485E+03  0.80626727485E+03  0.00000000000E+00 0. -1.
          2   -1    0    0  501    0  0.00000000000E+00 -0.00000000000E+00 -0.18105234506E+04  0.18105234506E+04  0.00000000000E+00 0.  1.
         23    2    1    2    0    0 -0.36592836748E+03  0.80453262022E+03  0.38646042294E+03  0.96898340511E+03  0.91656280520E+02 0.  0.
         13    1    3    3    0    0 -0.12821042501E+03  0.21450386921E+03  0.76351749867E+02  0.26130329637E+03  0.00000000000E+00 0.  1.
        -13    1    3    3    0    0 -0.23771794247E+03  0.59002875101E+03  0.31010867307E+03  0.70768010874E+03  0.00000000000E+00 0. -1.
         22    1    1    2    0    0  0.36592836748E+03 -0.80453262022E+03 -0.13907165987E+04  0.16478073204E+04  0.00000000000E+00 0.  1.
<mgrwt>
<rscale>  0 0.24164154E+04</rscale>
<asrwt>0</asrwt>
<pdfrwt beam="1">  1        2 0.27854207E+00 0.24164154E+04</pdfrwt>
<pdfrwt beam="2">  1       -2 0.12404112E+00 0.24164154E+04</pdfrwt>
<totfact> 0.37376465E+00</totfact>
</mgrwt>
</event>
<event>
 6    1  0.4630212E-004  0.4150785E+04  0.7818608E-02  0.7974800E-01
         -2   -1    0    0    0  501 -0.00000000000E+00  0.00000000000E+00  0.17392474340E+04  0.17392474340E+04  0.00000000000E+00 0. -1.
          2   -1    0    0  501    0  0.00000000000E+00 -0.00000000000E+00 -0.24765048893E+04  0.24765048893E+04  0.00000000000E+00 0.  1.
         23    2    1    2    0    0  0.36791638785E+03  0.16208310394E+04 -0.16294268863E+04  0.23293743070E+04  0.92178943317E+02 0.  0.
         11    1    3    3    0    0  0.27006642386E+03  0.13404272177E+04 -0.13224769248E+04  0.19022687023E+04  0.00000000000E+00 0. -1.
        -11    1    3    3    0    0  0.97849963989E+02  0.28040382173E+03 -0.30694996146E+03  0.42710560467E+03  0.00000000000E+00 0.  1.
         22    1    1    2    0    0 -0.36791638785E+03 -0.16208310394E+04  0.89216943102E+03  0.18863780163E+04  0.00000000000E+00 0. -1.
<mgrwt>
<rscale>  0 0.41507854E+04</rscale>
<asrwt>0</asrwt>
<pdfrwt beam="1">  1        2 0.38100075E+00 0.41507854E+04</pdfrwt>
<pdfrwt beam="2">  1       -2 0.26757653E+00 0.41507854E+04</pdfrwt>
<totfact> 0.14038673E-01</totfact>
</mgrwt>
</event>
<event>
 6    1  0.4630212E-004  0.1546736E+04  0.7818608E-02  0.8853956E-01
         -2   -1    0    0    0  501 -0.00000000000E+00  0.00000000000E+00  0.32693026609E+03  0.32693026609E+03  0.00000000000E+00 0. -1.
          2   -1    0    0  501    0  0.00000000000E+00 -0.00000000000E+00 -0.18294353537E+04  0.18294353537E+04  0.00000000000E+00 0.  1.
         23    2    1    2    0    0 -0.58076036782E+03  0.49692419188E+03 -0.88302717370E+03  0.11725113912E+04  0.10406591992E+03 0.  0.
         11    1    3    3    0    0 -0.30965171473E+03  0.27967130561E+03 -0.55804481505E+03  0.69678851829E+03  0.00000000000E+00 0. -1.
        -11    1    3    3    0    0 -0.27110865309E+03  0.21725288627E+03 -0.32498235865E+03  0.47572287291E+03  0.00000000000E+00 0.  1.
         22    1    1    2    0    0  0.58076036782E+03 -0.49692419188E+03 -0.61947791392E+03  0.98385422860E+03  0.00000000000E+00 0. -1.
<mgrwt>
<rscale>  0 0.15467356E+04</rscale>
<asrwt>0</asrwt>
<pdfrwt beam="1">  1        2 0.28145159E+00 0.15467356E+04</pdfrwt>
<pdfrwt beam="2">  1       -2 0.50296965E-01 0.15467356E+04</pdfrwt>
<totfact> 0.29913476E+01</totfact>
</mgrwt>
</event>
<event>
 6    1  0.4630212E-004  0.1650696E+04  0.7818608E-02  0.8789995E-01
          2   -1    0    0  501    0  0.00000000000E+00  0.00000000000E+00  0.68744643466E+03  0.68744643466E+03  0.00000000000E+00 0.  1.
         -2   -1    0    0    0  501 -0.00000000000E+00 -0.00000000000E+00 -0.99091209739E+03  0.99091209739E+03  0.00000000000E+00 0. -1.
         23    2    1    2    0    0  0.40461453852E+03  0.14462195925E+03 -0.86586946326E+03  0.97059694031E+03  0.87749970134E+02 0.  0.
         13    1    3    3    0    0  0.20255503026E+03  0.11403510451E+03 -0.50367897071E+03  0.55472970975E+03  0.00000000000E+00 0. -1.
        -13    1    3    3    0    0  0.20205950826E+03  0.30586854734E+02 -0.36219049255E+03  0.41586723056E+03  0.00000000000E+00 0.  1.
         22    1    1    2    0    0 -0.40461453852E+03 -0.14462195925E+03  0.56240380053E+03  0.70776159173E+03  0.00000000000E+00 0.  1.
<mgrwt>
<rscale>  0 0.16506956E+04</rscale>
<asrwt>0</asrwt>
<pdfrwt beam="1">  1        2 0.10576099E+00 0.16506956E+04</pdfrwt>
<pdfrwt beam="2">  1       -2 0.15244801E+00 0.16506956E+04</pdfrwt>
<totfact> 0.11485118E+01</totfact>
</mgrwt>
</event>
<event>
 6    1  0.4630212E-004  0.2149422E+04  0.7818608E-02  0.8539780E-01
         -2   -1    0    0    0  501 -0.00000000000E+00  0.00000000000E+00  0.10210073018E+04  0.10210073018E+04  0.00000000000E+00 0. -1.
          2   -1    0    0  501    0  0.00000000000E+00 -0.00000000000E+00 -0.11312393747E+04  0.11312393747E+04  0.00000000000E+00 0.  1.
         23    2    1    2    0    0  0.98965642078E+03  0.36727295063E+03  0.13621441075E+03  0.10682516946E+04  0.91093719960E+02 0.  0.
         13    1    3    3    0    0  0.66041824681E+03  0.25542003891E+03  0.49126467330E+02  0.70979227017E+03  0.00000000000E+00 0.  1.
        -13    1    3    3    0    0  0.32923817397E+03  0.11185291172E+03  0.87087943424E+02  0.35845942441E+03  0.00000000000E+00 0. -1.
         22    1    1    2    0    0 -0.98965642078E+03 -0.36727295063E+03 -0.24644648370E+03  0.10839949819E+04  0.00000000000E+00 0.  1.
<mgrwt>
<rscale>  0 0.21494219E+04</rscale>
<asrwt>0</asrwt>
<pdfrwt beam="1">  1        2 0.17403683E+00 0.21494219E+04</pdfrwt>
<pdfrwt beam="2">  1       -2 0.15707805E+00 0.21494219E+04</pdfrwt>
<totfact> 0.50665156E+00</totfact>
</mgrwt>
</event>
<event>
 6    1  0.4630212E-004  0.2825691E+04  0.7818608E-02  0.8295336E-01
          2   -1    0    0  501    0  0.00000000000E+00  0.00000000000E+00  0.10143639676E+04  0.10143639676E+04  0.00000000000E+00 0.  1.
         -2   -1    0    0    0  501 -0.00000000000E+00 -0.00000000000E+00 -0.19678662189E+04  0.19678662189E+04  0.00000000000E+00 0. -1.
         23    2    1    2    0    0  0.13240143278E+04 -0.14372994632E+03 -0.97041207317E+03  0.16503299727E+04  0.90648714906E+02 0.  0.
         13    1    3    3    0    0  0.75906157645E+03 -0.37630666043E+02 -0.55967079982E+03  0.94383364427E+03  0.00000000000E+00 0. -1.
        -13    1    3    3    0    0  0.56495275130E+03 -0.10609928028E+03 -0.41074127334E+03  0.70649632844E+03  0.00000000000E+00 0.  1.
         22    1    1    2    0    0 -0.13240143278E+04  0.14372994632E+03  0.16909821823E+02  0.13319002138E+04  0.00000000000E+00 0.  1.
<mgrwt>
<rscale>  0 0.28256911E+04</rscale>
<asrwt>0</asrwt>
<pdfrwt beam="1">  1        2 0.15605600E+00 0.28256911E+04</pdfrwt>
<pdfrwt beam="2">  1       -2 0.30274865E+00 0.28256911E+04</pdfrwt>
<totfact> 0.65467572E-01</totfact>
</mgrwt>
</event>
<event>
 6    1  0.4630212E-004  0.2037568E+04  0.7818608E-02  0.8589255E-01
         -2   -1    0    0    0  501 -0.00000000000E+00  0.00000000000E+00  0.33394391566E+03  0.33394391566E+03  0.00000000000E+00 0. -1.
          2   -1    0    0  501    0  0.00000000000E+00 -0.00000000000E+00 -0.31080705791E+04  0.31080705791E+04  0.00000000000E+00 0.  1.
         23    2    1    2    0    0  0.69842880088E+03 -0.58114948385E+03 -0.61904247047E+03  0.11032273323E+04  0.91430049875E+02 0.  0.
         13    1    3    3    0    0  0.47176041420E+03 -0.39037779758E+03 -0.36433893134E+03  0.71252759255E+03  0.00000000000E+00 0. -1.
        -13    1    3    3    0    0  0.22666838668E+03 -0.19077168627E+03 -0.25470353912E+03  0.39069973975E+03  0.00000000000E+00 0.  1.
         22    1    1    2    0    0 -0.69842880088E+03  0.58114948385E+03 -0.21550841929E+04  0.23387871624E+04  0.00000000000E+00 0.  1.
<mgrwt>
<rscale>  0 0.20375684E+04</rscale>
<asrwt>0</asrwt>
<pdfrwt beam="1">  1        2 0.47816469E+00 0.20375684E+04</pdfrwt>
<pdfrwt beam="2">  1       -2 0.51375988E-01 0.20375684E+04</pdfrwt>
<totfact> 0.49436716E+00</totfact>
</mgrwt>
</event>
<event>
 6    1  0.4630212E-004  0.2095671E+04  0.7818608E-02  0.8563153E-01
         -2   -1    0    0    0  501 -0.00000000000E+00  0.00000000000E+00  0.19262875217E+04  0.19262875217E+04  0.00000000000E+00 0. -1.
          2   -1    0    0  501    0  0.00000000000E+00 -0.00000000000E+00 -0.56998722048E+03  0.56998722048E+03  0.00000000000E+00 0.  1.
         23    2    1    2    0    0 -0.37080347769E+03  0.82324553760E+03  0.49938558764E+02  0.90825413891E+03  0.84872180132E+02 0.  0.
         11    1    3    3    0    0 -0.32616693326E+03  0.64832794647E+03  0.26701717335E+02  0.72624167894E+03  0.00000000000E+00 0.  1.
        -11    1    3    3    0    0 -0.44636544430E+02  0.17491759113E+03  0.23236841429E+02  0.18201245997E+03  0.00000000000E+00 0. -1.
         22    1    1    2    0    0  0.37080347769E+03 -0.82324553760E+03  0.13063617425E+04  0.15880206033E+04  0.00000000000E+00 0. -1.
<mgrwt>
<rscale>  0 0.20956710E+04</rscale>
<asrwt>0</asrwt>
<pdfrwt beam="1">  1        2 0.87690342E-01 0.20956710E+04</pdfrwt>
<pdfrwt beam="2">  1       -2 0.29635192E+00 0.20956710E+04</pdfrwt>
<totfact> 0.16285334E+00</totfact>
</mgrwt>
</event>
<event>
 6    1  0.4630212E-004  0.2760126E+04  0.7818608E-02  0.8315756E-01
          2   -1    0    0  501    0  0.00000000000E+00  0.00000000000E+00  0.27556319628E+04  0.27556319628E+04  0.00000000000E+00 0. -1.
         -2   -1    0    0    0  501 -0.00000000000E+00 -0.00000000000E+00 -0.69115687079E+03  0.69115687079E+03  0.00000000000E+00 0.  1.
         23    2    1    2    0    0 -0.11643967770E+04  0.67379657909E+03  0.66712217207E+03  0.15070937887E+04  0.12828878014E+03 0.  0.
         11    1    3    3    0    0 -0.92601492643E+03  0.49618288227E+03  0.47367496179E+03  0.11524187893E+04  0.00000000000E+00 0. -1.
        -11    1    3    3    0    0 -0.23838185060E+03  0.17761369683E+03  0.19344721028E+03  0.35467499935E+03  0.00000000000E+00 0.  1.
         22    1    1    2    0    0  0.11643967770E+04 -0.67379657909E+03  0.13973529200E+04  0.19396950449E+04  0.00000000000E+00 0. -1.
<mgrwt>
<rscale>  0 0.27601261E+04</rscale>
<asrwt>0</asrwt>
<pdfrwt beam="1">  1        2 0.42394337E+00 0.27601261E+04</pdfrwt>
<pdfrwt beam="2">  1       -2 0.10633183E+00 0.27601261E+04</pdfrwt>
<totfact> 0.15306311E+00</totfact>
</mgrwt>
</event>
<event>
 6    1  0.4630212E-004  0.7198659E+03  0.7818608E-02  0.9683849E-01
          2   -1    0    0  501    0  0.00000000000E+00  0.00000000000E+00  0.36253668428E+03  0.36253668428E+03  0.00000000000E+00 0.  1.
         -2   -1    0    0    0  501 -0.00000000000E+00 -0.00000000000E+00 -0.35734787593E+03  0.35734787593E+03  0.00000000000E+00 0. -1.
         23    2    1    2    0    0  0.68417769191E+02 -0.29845404991E+03 -0.17426097806E+03  0.36497888697E+03  0.95325171977E+02 0.  0.
         13    1    3    3    0    0 -0.29970690775E+01 -0.88681681118E+02 -0.10316583186E+02  0.89330033458E+02  0.00000000000E+00 0. -1.
        -13    1    3    3    0    0  0.71414838268E+02 -0.20977236880E+03 -0.16394439487E+03  0.27564885352E+03  0.00000000000E+00 0.  1.
         22    1    1    2    0    0 -0.68417769191E+02  0.29845404991E+03  0.17944978641E+03  0.35490567323E+03  0.00000000000E+00 0.  1.
<mgrwt>
<rscale>  0 0.71986586E+03</rscale>
<asrwt>0</asrwt>
<pdfrwt beam="1">  1        2 0.55774874E-01 0.71986586E+03</pdfrwt>
<pdfrwt beam="2">  1       -2 0.54976596E-01 0.71986586E+03</pdfrwt>
<totfact> 0.27898504E+02</totfact>
</mgrwt>
</event>
<event>
 6    1  0.4630212E-004  0.2409775E+04  0.7818608E-02  0.8435853E-01
          2   -1    0    0  501    0  0.00000000000E+00  0.00000000000E+00  0.15010964037E+04  0.15010964037E+04  0.00000000000E+00 0.  1.
         -2   -1    0    0    0  501 -0.00000000000E+00 -0.00000000000E+00 -0.96712906031E+03  0.96712906031E+03  0.00000000000E+00 0. -1.
         23    2    1    2    0    0  0.55718413077E+03 -0.10089127486E+04 -0.86253362373E+02  0.11593966693E+04  0.91661902851E+02 0.  0.
         11    1    3    3    0    0  0.18763307713E+03 -0.28139344050E+03  0.54866146336E+01  0.33825810105E+03  0.00000000000E+00 0. -1.
        -11    1    3    3    0    0  0.36955105364E+03 -0.72751930814E+03 -0.91739977006E+02  0.82113856829E+03  0.00000000000E+00 0.  1.
         22    1    1    2    0    0 -0.55718413077E+03  0.10089127486E+04  0.62022070579E+03  0.13088287947E+04  0.00000000000E+00 0.  1.
<mgrwt>
<rscale>  0 0.24097751E+04</rscale>
<asrwt>0</asrwt>
<pdfrwt beam="1">  1        2 0.23093791E+00 0.24097751E+04</pdfrwt>
<pdfrwt beam="2">  1       -2 0.14878909E+00 0.24097751E+04</pdfrwt>
<totfact> 0.34871326E+00</totfact>
</mgrwt>
</event>
<event>
 6    1  0.4630212E-004  0.2811012E+04  0.7818608E-02  0.8299858E-01
         -2   -1    0    0    0  501 -0.00000000000E+00  0.00000000000E+00  0.74656742315E+03  0.74656742315E+03  0.00000000000E+00 0. -1.
          2   -1    0    0  501    0  0.00000000000E+00 -0.00000000000E+00 -0.26460390570E+04  0.26460390570E+04  0.00000000000E+00 0.  1.
         23    2    1    2    0    0  0.13488763461E+04 -0.36047892636E+03 -0.11285824627E+04  0.17977138294E+04  0.93081597991E+02 0.  0.
         13    1    3    3    0    0  0.67428453944E+03 -0.21699361274E+03 -0.61039280865E+03  0.93505360753E+03  0.00000000000E+00 0. -1.
        -13    1    3    3    0    0  0.67459180663E+03 -0.14348531362E+03 -0.51818965403E+03  0.86266022183E+03  0.00000000000E+00 0.  1.
         22    1    1    2    0    0 -0.13488763461E+04  0.36047892636E+03 -0.77088917118E+03  0.15948926508E+04  0.00000000000E+00 0. -1.
<mgrwt>
<rscale>  0 0.28110116E+04</rscale>
<asrwt>0</asrwt>
<pdfrwt beam="1">  1        2 0.40708293E+00 0.28110116E+04</pdfrwt>
<pdfrwt beam="2">  1       -2 0.11485653E+00 0.28110116E+04</pdfrwt>
<totfact> 0.14695364E+00</totfact>
</mgrwt>
</event>
<event>
 6    1  0.4630212E-004  0.3222979E+04  0.7818608E-02  0.8182775E-01
         -2   -1    0    0    0  501 -0.00000000000E+00  0.00000000000E+00  0.12571242401E+04  0.12571242401E+04  0.00000000000E+00 0.  1.
          2   -1    0    0  501    0  0.00000000000E+00 -0.00000000000E+00 -0.20657453353E+04  0.20657453353E+04  0.00000000000E+00 0. -1.
         23    2    1    2    0    0  0.13921911116E+04 -0.74674600835E+03 -0.72565610046E+03  0.17408743534E+04  0.90780208154E+02 0.  0.
         13    1    3    3    0    0  0.11453546101E+04 -0.65265972042E+03 -0.60647716847E+03  0.14510742398E+04  0.00000000000E+00 0.  1.
        -13    1    3    3    0    0  0.24683650141E+03 -0.94086287927E+02 -0.11917893199E+03  0.28980011359E+03  0.00000000000E+00 0. -1.
         22    1    1    2    0    0 -0.13921911116E+04  0.74674600835E+03 -0.82964994701E+02  0.15819952220E+04  0.00000000000E+00 0.  1.
<mgrwt>
<rscale>  0 0.32229791E+04</rscale>
<asrwt>0</asrwt>
<pdfrwt beam="1">  1        2 0.31780697E+00 0.32229791E+04</pdfrwt>
<pdfrwt beam="2">  1       -2 0.19340373E+00 0.32229791E+04</pdfrwt>
<totfact> 0.75910615E-01</totfact>
</mgrwt>
</event>
<event>
 6    1  0.4630212E-004  0.7578789E+03  0.7818608E-02  0.9623070E-01
         -2   -1    0    0    0  501 -0.00000000000E+00  0.00000000000E+00  0.60790939806E+03  0.60790939806E+03  0.00000000000E+00 0. -1.
          2   -1    0    0  501    0  0.00000000000E+00 -0.00000000000E+00 -0.23621137140E+03  0.23621137140E+03  0.00000000000E+00 0.  1.
         23    2    1    2    0    0  0.29019261659E+03 -0.23127723517E+03  0.14544820305E+03  0.40950611610E+03  0.94016834201E+02 0.  0.
         11    1    3    3    0    0  0.15791292643E+03 -0.85757250002E+02  0.32158763708E+02  0.18255131976E+03  0.00000000000E+00 0.  1.
        -11    1    3    3    0    0  0.13227969016E+03 -0.14551998517E+03  0.11328943934E+03  0.22695479634E+03  0.00000000000E+00 0. -1.
         22    1    1    2    0    0 -0.29019261659E+03  0.23127723517E+03  0.22624982360E+03  0.43461465336E+03  0.00000000000E+00 0.  1.
<mgrwt>
<rscale>  0 0.75787892E+03</rscale>
<asrwt>0</asrwt>
<pdfrwt beam="1">  1        2 0.36340211E-01 0.75787892E+03</pdfrwt>
<pdfrwt beam="2">  1       -2 0.93524522E-01 0.75787892E+03</pdfrwt>
<totfact> 0.13982528E+02</totfact>
</mgrwt>
</event>
<event>
 6    1  0.4630212E-004  0.1049513E+04  0.7818608E-02  0.9255847E-01
         -2   -1    0    0    0  501 -0.00000000000E+00  0.00000000000E+00  0.12574671235E+03  0.12574671235E+03  0.00000000000E+00 0. -1.
          2   -1    0    0  501    0  0.00000000000E+00 -0.00000000000E+00 -0.21898737351E+04  0.21898737351E+04  0.00000000000E+00 0.  1.
         23    2    1    2    0    0  0.19307802865E+03  0.31788318241E+03 -0.23405788291E+03  0.44814035401E+03  0.87851246638E+02 0.  0.
         13    1    3    3    0    0  0.94161487443E+02  0.23278167631E+03 -0.16550908050E+03  0.30074399457E+03  0.00000000000E+00 0. -1.
        -13    1    3    3    0    0  0.98916541204E+02  0.85101506100E+02 -0.68548802410E+02  0.14739635944E+03  0.00000000000E+00 0.  1.
         22    1    1    2    0    0 -0.19307802865E+03 -0.31788318241E+03 -0.18300691398E+04  0.18674800934E+04  0.00000000000E+00 0.  1.
<mgrwt>
<rscale>  0 0.10495131E+04</rscale>
<asrwt>0</asrwt>
<pdfrwt beam="1">  1        2 0.33690364E+00 0.10495131E+04</pdfrwt>
<pdfrwt beam="2">  1       -2 0.19345649E-01 0.10495131E+04</pdfrwt>
<totfact> 0.11867285E+02</totfact>
</mgrwt>
</event>
<event>
 6    1  0.4630212E-004  0.1305628E+04  0.7818608E-02  0.9025114E-01
          2   -1    0    0  501    0  0.00000000000E+00  0.00000000000E+00  0.81088813057E+03  0.81088813057E+03  0.00000000000E+00 0.  1.
         -2   -1    0    0    0  501 -0.00000000000E+00 -0.00000000000E+00 -0.52555477488E+03  0.52555477488E+03  0.00000000000E+00 0. -1.
         23    2    1    2    0    0 -0.20088931805E+03  0.60977923930E+03  0.40999133502E+02  0.64950298746E+03  0.89364215319E+02 0.  0.
         13    1    3    3    0    0 -0.15665987242E+03  0.36350559668E+03 -0.76714171106E+00  0.39582726403E+03  0.00000000000E+00 0.  1.
        -13    1    3    3    0    0 -0.44229445630E+02  0.24627364262E+03  0.41766275213E+02  0.25367572343E+03  0.00000000000E+00 0. -1.
         22    1    1    2    0    0  0.20088931805E+03 -0.60977923930E+03  0.24433422219E+03  0.68693991799E+03  0.00000000000E+00 0.  1.
<mgrwt>
<rscale>  0 0.13056280E+04</rscale>
<asrwt>0</asrwt>
<pdfrwt beam="1">  1        2 0.12475202E+00 0.13056280E+04</pdfrwt>
<pdfrwt beam="2">  1       -2 0.80854581E-01 0.13056280E+04</pdfrwt>
<totfact> 0.44751260E+01</totfact>
</mgrwt>
</event>
<event>
 6    1  0.4630212E-004  0.2583209E+04  0.7818608E-02  0.8373927E-01
          2   -1    0    0  501    0  0.00000000000E+00  0.00000000000E+00  0.15872390557E+04  0.15872390557E+04  0.00000000000E+00 0.  1.
         -2   -1    0    0    0  501 -0.00000000000E+00 -0.00000000000E+00 -0.10510339297E+04  0.10510339297E+04  0.00000000000E+00 0. -1.
         23    2    1    2    0    0 -0.66647775605E+03 -0.10821987482E+04  0.43068919013E+02  0.12749938325E+04  0.91693027857E+02 0.  0.
         13    1    3    3    0    0 -0.19246495461E+03 -0.38190613692E+03  0.37961136729E+02  0.42934380637E+03  0.00000000000E+00 0.  1.
        -13    1    3    3    0    0 -0.47401280144E+03 -0.70029261127E+03  0.51077822833E+01  0.84565002617E+03  0.00000000000E+00 0. -1.
         22    1    1    2    0    0  0.66647775605E+03  0.10821987482E+04  0.49313620697E+03  0.13632791528E+04  0.00000000000E+00 0.  1.
<mgrwt>
<rscale>  0 0.25832089E+04</rscale>
<asrwt>0</asrwt>
<pdfrwt beam="1">  1        2 0.24419062E+00 0.25832089E+04</pdfrwt>
<pdfrwt beam="2">  1       -2 0.16169753E+00 0.25832089E+04</pdfrwt>
<totfact> 0.24580882E+00</totfact>
</mgrwt>
</event>
<event>
 6    1  0.4630212E-004  0.1178082E+04  0.7818608E-02  0.9132260E-01
          2   -1    0    0  501    0  0.00000000000E+00  0.00000000000E+00  0.75344057491E+03  0.75344057491E+03  0.00000000000E+00 0.  1.
         -2   -1    0    0    0  501 -0.00000000000E+00 -0.00000000000E+00 -0.46051353718E+03  0.46051353718E+03  0.00000000000E+00 0. -1.
         23    2    1    2    0    0 -0.36922989093E+03  0.41747254175E+03  0.33170987606E+03  0.65527876448E+03  0.93513538250E+02 0.  0.
         11    1    3    3    0    0 -0.14391262631E+03  0.11102734977E+03  0.13939616388E+03  0.22906157887E+03  0.00000000000E+00 0.  1.
        -11    1    3    3    0    0 -0.22531726462E+03  0.30644519198E+03  0.19231371218E+03  0.42621718562E+03  0.00000000000E+00 0. -1.
         22    1    1    2    0    0  0.36922989093E+03 -0.41747254175E+03 -0.38782838327E+02  0.55867534761E+03  0.00000000000E+00 0. -1.
<mgrwt>
<rscale>  0 0.11780825E+04</rscale>
<asrwt>0</asrwt>
<pdfrwt beam="1">  1        2 0.11591393E+00 0.11780825E+04</pdfrwt>
<pdfrwt beam="2">  1       -2 0.70848236E-01 0.11780825E+04</pdfrwt>
<totfact> 0.66724019E+01</totfact>
</mgrwt>
</event>
<event>
 6    1  0.4630212E-004  0.1804411E+04  0.7818608E-02  0.8703957E-01
         -2   -1    0    0    0  501 -0.00000000000E+00  0.00000000000E+00  0.47421247858E+03  0.47421247858E+03  0.00000000000E+00 0. -1.
          2   -1    0    0  501    0  0.00000000000E+00 -0.00000000000E+00 -0.17164762654E+04  0.17164762654E+04  0.00000000000E+00 0.  1.
         23    2    1    2    0    0 -0.86955973343E+03 -0.16463702889E+03 -0.42266120909E+03  0.98445996521E+03  0.85319658587E+02 0.  0.
         11    1    3    3    0    0 -0.18449674362E+03 -0.68647579115E+02 -0.10750473827E+03  0.22429624891E+03  0.00000000000E+00 0.  1.
        -11    1    3    3    0    0 -0.68506298981E+03 -0.95989449780E+02 -0.31515647082E+03  0.76016371629E+03  0.00000000000E+00 0. -1.
         22    1    1    2    0    0  0.86955973343E+03  0.16463702889E+03 -0.81960257771E+03  0.12062287787E+04  0.00000000000E+00 0.  1.
<mgrwt>
<rscale>  0 0.18044107E+04</rscale>
<asrwt>0</asrwt>
<pdfrwt beam="1">  1        2 0.26407327E+00 0.18044107E+04</pdfrwt>
<pdfrwt beam="2">  1       -2 0.72955767E-01 0.18044107E+04</pdfrwt>
<totfact> 0.15380854E+01</totfact>
</mgrwt>
</event>
<event>
 6    1  0.4630212E-004  0.1443616E+04  0.7818608E-02  0.8922838E-01
         -2   -1    0    0    0  501 -0.00000000000E+00  0.00000000000E+00  0.18222405017E+03  0.18222405017E+03  0.00000000000E+00 0. -1.
          2   -1    0    0  501    0  0.00000000000E+00 -0.00000000000E+00 -0.28591561607E+04  0.28591561607E+04  0.00000000000E+00 0.  1.
         23    2    1    2    0    0  0.55049736885E+03 -0.16481720364E+03 -0.22540428638E+04  0.23279046481E+04  0.90657348646E+02 0.  0.
         13    1    3    3    0    0  0.11111282817E+03 -0.49769191410E+01 -0.53305631313E+03  0.54453637462E+03  0.00000000000E+00 0. -1.
        -13    1    3    3    0    0  0.43938454067E+03 -0.15984028450E+03 -0.17209865507E+04  0.17833682735E+04  0.00000000000E+00 0.  1.
         22    1    1    2    0    0 -0.55049736885E+03  0.16481720364E+03 -0.42288924669E+03  0.71347556278E+03  0.00000000000E+00 0. -1.
<mgrwt>
<rscale>  0 0.14436163E+04</rscale>
<asrwt>0</asrwt>
<pdfrwt beam="1">  1        2 0.43987015E+00 0.14436163E+04</pdfrwt>
<pdfrwt beam="2">  1       -2 0.28034471E-01 0.14436163E+04</pdfrwt>
<totfact> 0.24178684E+01</totfact>
</mgrwt>
</event>
<event>
 6    1  0.4630212E-004  0.3565797E+04  0.7818608E-02  0.8098371E-01
         -2   -1    0    0    0  501 -0.00000000000E+00  0.00000000000E+00  0.14851855579E+04  0.14851855579E+04  0.00000000000E+00 0. -1.
          2   -1    0    0  501    0  0.00000000000E+00 -0.00000000000E+00 -0.21402900376E+04  0.21402900376E+04  0.00000000000E+00 0.  1.
         23    2    1    2    0    0  0.85734541111E+03  0.67495878216E+03 -0.17598717421E+04  0.20726970486E+04  0.91181111472E+02 0.  0.
         13    1    3    3    0    0  0.61670425295E+03  0.51527848562E+03 -0.13546683286E+04  0.15751070865E+04  0.00000000000E+00 0. -1.
        -13    1    3    3    0    0  0.24064115816E+03  0.15968029654E+03 -0.40520341356E+03  0.49758996218E+03  0.00000000000E+00 0.  1.
         22    1    1    2    0    0 -0.85734541111E+03 -0.67495878216E+03  0.11047672624E+04  0.15527785469E+04  0.00000000000E+00 0. -1.
<mgrwt>
<rscale>  0 0.35657974E+04</rscale>
<asrwt>0</asrwt>
<pdfrwt beam="1">  1        2 0.32927539E+00 0.35657974E+04</pdfrwt>
<pdfrwt beam="2">  1       -2 0.22849008E+00 0.35657974E+04</pdfrwt>
<totfact> 0.39842863E-01</totfact>
</mgrwt>
</event>
<event>
 6    1  0.4630212E-004  0.2947938E+04  0.7818608E-02  0.8258756E-01
          2   -1    0    0  501    0  0.00000000000E+00  0.00000000000E+00  0.14440705539E+04  0.14440705539E+04  0.00000000000E+00 0.  1.
         -2   -1    0    0    0  501 -0.00000000000E+00 -0.00000000000E+00 -0.15044860092E+04  0.15044860092E+04  0.00000000000E+00 0. -1.
         23    2    1    2    0    0  0.80379239523E+02  0.12763834991E+04 -0.76030249444E+03  0.14906616676E+04  0.91633320049E+02 0.  0.
         11    1    3    3    0    0  0.33519093172E+02  0.56171157342E+03 -0.28191896752E+03  0.62938201879E+03  0.00000000000E+00 0.  1.
        -11    1    3    3    0    0  0.46860146351E+02  0.71467192567E+03 -0.47838352693E+03  0.86127964883E+03  0.00000000000E+00 0. -1.
         22    1    1    2    0    0 -0.80379239523E+02 -0.12763834991E+04  0.69988703916E+03  0.14578948956E+04  0.00000000000E+00 0.  1.
<mgrwt>
<rscale>  0 0.29479375E+04</rscale>
<asrwt>0</asrwt>
<pdfrwt beam="1">  1        2 0.22216470E+00 0.29479375E+04</pdfrwt>
<pdfrwt beam="2">  1       -2 0.23145939E+00 0.29479375E+04</pdfrwt>
<totfact> 0.98288075E-01</totfact>
</mgrwt>
</event>
<event>
 6    1  0.4630212E-004  0.7298684E+03  0.7818608E-02  0.9667474E-01
         -2   -1    0    0    0  501 -0.00000000000E+00  0.00000000000E+00  0.17875164602E+03  0.17875164602E+03  0.00000000000E+00 0. -1.
          2   -1    0    0  501    0  0.00000000000E+00 -0.00000000000E+00 -0.74503902986E+03  0.74503902986E+03  0.00000000000E+00 0.  1.
         23    2    1    2    0    0 -0.15307649327E+03  0.32296390226E+03 -0.24476762918E+03  0.44304849177E+03  0.92966008895E+02 0.  0.
         13    1    3    3    0    0 -0.14640984560E+03  0.24433238125E+03 -0.22134466646E+03  0.36073205677E+03  0.00000000000E+00 0. -1.
        -13    1    3    3    0    0 -0.66666476716E+01  0.78631521011E+02 -0.23422962724E+02  0.82316434996E+02  0.00000000000E+00 0.  1.
         22    1    1    2    0    0  0.15307649327E+03 -0.32296390226E+03 -0.32151975465E+03  0.48074218411E+03  0.00000000000E+00 0. -1.
<mgrwt>
<rscale>  0 0.72986835E+03</rscale>
<asrwt>0</asrwt>
<pdfrwt beam="1">  1        2 0.11462139E+00 0.72986835E+03</pdfrwt>
<pdfrwt beam="2">  1       -2 0.27500253E-01 0.72986835E+03</pdfrwt>
<totfact> 0.45819524E+02</totfact>
</mgrwt>
</event>
<event>
 6    1  0.4630212E-004  0.1053623E+04  0.7818608E-02  0.9251611E-01
         -2   -1    0    0    0  501 -0.00000000000E+00  0.00000000000E+00  0.29510318961E+03  0.29510318961E+03  0.00000000000E+00 0. -1.
          2   -1    0    0  501    0  0.00000000000E+00 -0.00000000000E+00 -0.94045263742E+03  0.94045263742E+03  0.00000000000E+00 0.  1.
         23    2    1    2    0    0 -0.32135272582E+03  0.33852412031E+03 -0.60307974665E+03  0.76688442609E+03  0.80872663738E+02 0.  0.
         11    1    3    3    0    0 -0.94192614377E+02  0.13566782736E+03 -0.26109718234E+03  0.30894942403E+03  0.00000000000E+00 0.  1.
        -11    1    3    3    0    0 -0.22716011144E+03  0.20285629294E+03 -0.34198256431E+03  0.45793500206E+03  0.00000000000E+00 0. -1.
         22    1    1    2    0    0  0.32135272582E+03 -0.33852412031E+03 -0.42269701165E+02  0.46867140094E+03  0.00000000000E+00 0. -1.
<mgrwt>
<rscale>  0 0.10536234E+04</rscale>
<asrwt>0</asrwt>
<pdfrwt beam="1">  1        2 0.14468502E+00 0.10536234E+04</pdfrwt>
<pdfrwt beam="2">  1       -2 0.45400491E-01 0.10536234E+04</pdfrwt>
<totfact> 0.12611665E+02</totfact>
</mgrwt>
</event>
<event>
 6    1  0.4630212E-004  0.2930218E+04  0.7818608E-02  0.8263943E-01
          2   -1    0    0  501    0  0.00000000000E+00  0.00000000000E+00  0.33292568417E+04  0.33292568417E+04  0.00000000000E+00 0.  1.
         -2   -1    0    0    0  501 -0.00000000000E+00 -0.00000000000E+00 -0.64475166891E+03  0.64475166891E+03  0.00000000000E+00 0. -1.
         23    2    1    2    0    0  0.66098788531E+03  0.12731780908E+04  0.94860769297E+03  0.17220699023E+04  0.88208604295E+02 0.  0.
         11    1    3    3    0    0  0.36636312632E+03  0.62615034782E+03  0.50849074516E+03  0.88591705950E+03  0.00000000000E+00 0.  1.
        -11    1    3    3    0    0  0.29462475899E+03  0.64702774293E+03  0.44011694781E+03  0.83615284278E+03  0.00000000000E+00 0. -1.
         22    1    1    2    0    0 -0.66098788531E+03 -0.12731780908E+04  0.17358974798E+04  0.22519386083E+04  0.00000000000E+00 0. -1.
<mgrwt>
<rscale>  0 0.29302177E+04</rscale>
<asrwt>0</asrwt>
<pdfrwt beam="1">  1        2 0.51219335E+00 0.29302177E+04</pdfrwt>
<pdfrwt beam="2">  1       -2 0.99192567E-01 0.29302177E+04</pdfrwt>
<totfact> 0.77133880E-01</totfact>
</mgrwt>
</event>
<event>
 6    1  0.4630212E-004  0.3709267E+04  0.7818608E-02  0.8065911E-01
         -2   -1    0    0    0  501 -0.00000000000E+00  0.00000000000E+00  0.20311292387E+04  0.20311292387E+04  0.00000000000E+00 0.  1.
          2   -1    0    0  501    0  0.00000000000E+00 -0.00000000000E+00 -0.16934742733E+04  0.16934742733E+04  0.00000000000E+00 0. -1.
         23    2    1    2    0    0  0.80037058694E+03  0.11445043968E+04  0.13924861705E+04  0.19744171613E+04  0.93925508450E+02 0.  0.
         13    1    3    3    0    0  0.49491968315E+03  0.63059259058E+03  0.77739391443E+03  0.11166619033E+04  0.00000000000E+00 0.  1.
        -13    1    3    3    0    0  0.30545090379E+03  0.51391180619E+03  0.61509225612E+03  0.85775525804E+03  0.00000000000E+00 0. -1.
         22    1    1    2    0    0 -0.80037058694E+03 -0.11445043968E+04 -0.10548312052E+04  0.17501863507E+04  0.00000000000E+00 0. -1.
<mgrwt>
<rscale>  0 0.37092668E+04</rscale>
<asrwt>0</asrwt>
<pdfrwt beam="1">  1        2 0.26053450E+00 0.37092668E+04</pdfrwt>
<pdfrwt beam="2">  1       -2 0.31248142E+00 0.37092668E+04</pdfrwt>
<totfact> 0.21280355E-01</totfact>
</mgrwt>
</event>
<event>
 6    1  0.4630212E-004  0.8841216E+03  0.7818608E-02  0.9445651E-01
         -1   -1    0    0    0  501 -0.00000000000E+00  0.00000000000E+00  0.40556820112E+03  0.40556820112E+03  0.00000000000E+00 0.  1.
          1   -1    0    0  501    0  0.00000000000E+00 -0.00000000000E+00 -0.48183692504E+03  0.48183692504E+03  0.00000000000E+00 0. -1.
         23    2    1    2    0    0 -0.16399827144E+03 -0.98564961789E+02  0.35598793295E+03  0.41469347817E+03  0.92912796251E+02 0.  0.
         13    1    3    3    0    0 -0.17077212186E+03 -0.87926721504E+02  0.29225357272E+03  0.34972328594E+03  0.00000000000E+00 0. -1.
        -13    1    3    3    0    0  0.67738504157E+01 -0.10638240285E+02  0.63734360228E+02  0.64970192238E+02  0.00000000000E+00 0.  1.
         22    1    1    2    0    0  0.16399827144E+03  0.98564961789E+02 -0.43225665688E+03  0.47271164799E+03  0.00000000000E+00 0. -1.
<mgrwt>
<rscale>  0 0.88412156E+03</rscale>
<asrwt>0</asrwt>
<pdfrwt beam="1">  1        1 0.74128758E-01 0.88412156E+03</pdfrwt>
<pdfrwt beam="2">  1       -1 0.62395108E-01 0.88412156E+03</pdfrwt>
<totfact> 0.12259926E+02</totfact>
</mgrwt>
</event>
<event>
 6    1  0.4630212E-004  0.5595646E+03  0.7818608E-02  0.9993040E-01
         -2   -1    0    0    0  501 -0.00000000000E+00  0.00000000000E+00  0.27684861280E+02  0.27684861280E+02  0.00000000000E+00 0. -1.
          2   -1    0    0  501    0  0.00000000000E+00 -0.00000000000E+00 -0.28274704003E+04  0.28274704003E+04  0.00000000000E+00 0.  1.
         23    2    1    2    0    0 -0.26402099054E+02  0.25398338094E+03 -0.19247227806E+04  0.19435964540E+04  0.88344580715E+02 0.  0.
         13    1    3    3    0    0 -0.43268089715E+02  0.10111742683E+03 -0.10178890522E+04  0.10238139402E+04  0.00000000000E+00 0.  1.
        -13    1    3    3    0    0  0.16865990661E+02  0.15286595411E+03 -0.90683372843E+03  0.91978251374E+03  0.00000000000E+00 0. -1.
         22    1    1    2    0    0  0.26402099054E+02 -0.25398338094E+03 -0.87506275839E+03  0.91155880762E+03  0.00000000000E+00 0. -1.
<mgrwt>
<rscale>  0 0.55956457E+03</rscale>
<asrwt>0</asrwt>
<pdfrwt beam="1">  1        2 0.43499567E+00 0.55956457E+03</pdfrwt>
<pdfrwt beam="2">  1       -2 0.42592072E-02 0.55956457E+03</pdfrwt>
<totfact> 0.62948736E+02</totfact>
</mgrwt>
</event>
<event>
 6    1  0.4630212E-004  0.2236160E+04  0.7818608E-02  0.8503526E-01
          2   -1    0    0  501    0  0.00000000000E+00  0.00000000000E+00  0.17357242995E+04  0.17357242995E+04  0.00000000000E+00 0.  1.
         -2   -1    0    0    0  501 -0.00000000000E+00 -0.00000000000E+00 -0.72021993119E+03  0.72021993119E+03  0.00000000000E+00 0. -1.
         23    2    1    2    0    0  0.78261855755E+03  0.78917689494E+03  0.39578170346E+03  0.11834081175E+04  0.92301882956E+02 0.  0.
         13    1    3    3    0    0  0.51769455335E+03  0.46065865304E+03  0.25831728823E+03  0.73955518156E+03  0.00000000000E+00 0. -1.
        -13    1    3    3    0    0  0.26492400421E+03  0.32851824190E+03  0.13746441524E+03  0.44385293592E+03  0.00000000000E+00 0.  1.
         22    1    1    2    0    0 -0.78261855755E+03 -0.78917689494E+03  0.61972266486E+03  0.12725361132E+04  0.00000000000E+00 0.  1.
<mgrwt>
<rscale>  0 0.22361603E+04</rscale>
<asrwt>0</asrwt>
<pdfrwt beam="1">  1        2 0.26703451E+00 0.22361603E+04</pdfrwt>
<pdfrwt beam="2">  1       -2 0.11080307E+00 0.22361603E+04</pdfrwt>
<totfact> 0.55116715E+00</totfact>
</mgrwt>
</event>
<event>
 6    1  0.4630212E-004  0.9115987E+03  0.7818608E-02  0.9411197E-01
         -2   -1    0    0    0  501 -0.00000000000E+00  0.00000000000E+00  0.23947776409E+03  0.23947776409E+03  0.00000000000E+00 0. -1.
          2   -1    0    0  501    0  0.00000000000E+00 -0.00000000000E+00 -0.86752549626E+03  0.86752549626E+03  0.00000000000E+00 0.  1.
         23    2    1    2    0    0 -0.41887187407E+03  0.37450134752E+02 -0.51526847515E+03  0.67160077954E+03  0.93219344140E+02 0.  0.
         11    1    3    3    0    0 -0.34770458853E+03  0.73359592660E+01 -0.45963048857E+03  0.57637876713E+03  0.00000000000E+00 0.  1.
        -11    1    3    3    0    0 -0.71167285542E+02  0.30114175486E+02 -0.55637986581E+02  0.95222012410E+02  0.00000000000E+00 0. -1.
         22    1    1    2    0    0  0.41887187407E+03 -0.37450134752E+02 -0.11277925702E+03  0.43540248081E+03  0.00000000000E+00 0. -1.
<mgrwt>
<rscale>  0 0.91159874E+03</rscale>
<asrwt>0</asrwt>
<pdfrwt beam="1">  1        2 0.13346546E+00 0.91159874E+03</pdfrwt>
<pdfrwt beam="2">  1       -2 0.36842733E-01 0.91159874E+03</pdfrwt>
<totfact> 0.21448944E+02</totfact>
</mgrwt>
</event>
<event>
 6    1  0.4630212E-004  0.1395199E+04  0.7818608E-02  0.8957301E-01
          2   -1    0    0  501    0  0.00000000000E+00  0.00000000000E+00  0.17754759025E+04  0.17754759025E+04  0.00000000000E+00 0.  1.
         -2   -1    0    0    0  501 -0.00000000000E+00 -0.00000000000E+00 -0.27409266080E+03  0.27409266080E+03  0.00000000000E+00 0. -1.
         23    2    1    2    0    0 -0.55100408776E+03  0.18444370078E+03  0.13127718079E+04  0.14386681979E+04  0.93655648513E+02 0.  0.
         11    1    3    3    0    0 -0.14856081668E+03  0.17263945695E+02  0.40444465485E+03  0.43121205793E+03  0.00000000000E+00 0. -1.
        -11    1    3    3    0    0 -0.40244327109E+03  0.16717975508E+03  0.90832715307E+03  0.10074561400E+04  0.00000000000E+00 0.  1.
         22    1    1    2    0    0  0.55100408776E+03 -0.18444370078E+03  0.18861143377E+03  0.61090036539E+03  0.00000000000E+00 0.  1.
<mgrwt>
<rscale>  0 0.13951988E+04</rscale>
<asrwt>0</asrwt>
<pdfrwt beam="1">  1        2 0.27315013E+00 0.13951988E+04</pdfrwt>
<pdfrwt beam="2">  1       -2 0.42168103E-01 0.13951988E+04</pdfrwt>
<totfact> 0.46207007E+01</totfact>
</mgrwt>
</event>
<event>
 6    1  0.4630212E-004  0.1016994E+04  0.7818608E-02  0.9290100E-01
         -2   -1    0    0    0  501 -0.00000000000E+00  0.00000000000E+00  0.21592868942E+03  0.21592868942E+03  0.00000000000E+00 0. -1.
          2   -1    0    0  501    0  0.00000000000E+00 -0.00000000000E+00 -0.11974749333E+04  0.11974749333E+04  0.00000000000E+00 0.  1.
         23    2    1    2    0    0  0.32937867234E+02 -0.24291887093E+03  0.11790118177E+03  0.28695827441E+03  0.91377686755E+02 0.  0.
         13    1    3    3    0    0 -0.10314485461E+02 -0.18711440177E+03  0.63630768181E+02  0.19790670180E+03  0.00000000000E+00 0. -1.
        -13    1    3    3    0    0  0.43252352696E+02 -0.55804469161E+02  0.54270413591E+02  0.89051572605E+02  0.00000000000E+00 0.  1.
         22    1    1    2    0    0 -0.32937867234E+02  0.24291887093E+03 -0.10994474257E+04  0.11264453483E+04  0.00000000000E+00 0.  1.
<mgrwt>
<rscale>  0 0.10169940E+04</rscale>
<asrwt>0</asrwt>
<pdfrwt beam="1">  1        2 0.18422692E+00 0.10169940E+04</pdfrwt>
<pdfrwt beam="2">  1       -2 0.33219798E-01 0.10169940E+04</pdfrwt>
<totfact> 0.16023996E+02</totfact>
</mgrwt>
</event>
<event>
 6    1  0.4630212E-004  0.3261179E+04  0.7818608E-02  0.8172844E-01
          2   -1    0    0  501    0  0.00000000000E+00  0.00000000000E+00  0.10470036295E+04  0.10470036295E+04  0.00000000000E+00 0.  1.
         -2   -1    0    0    0  501 -0.00000000000E+00 -0.00000000000E+00 -0.25394578172E+04  0.25394578172E+04  0.00000000000E+00 0. -1.
         23    2    1    2    0    0 -0.16964059521E+03  0.15975781557E+04 -0.44991787372E+03  0.16712810738E+04  0.98592288862E+02 0.  0.
         13    1    3    3    0    0 -0.17044692281E+03  0.12362673853E+04 -0.33520479458E+03  0.12921963688E+04  0.00000000000E+00 0.  1.
        -13    1    3    3    0    0  0.80632759954E+00  0.36131077040E+03 -0.11471307914E+03  0.37908470491E+03  0.00000000000E+00 0. -1.
         22    1    1    2    0    0  0.16964059521E+03 -0.15975781557E+04 -0.10425363140E+04  0.19151803730E+04  0.00000000000E+00 0.  1.
<mgrwt>
<rscale>  0 0.32611787E+04</rscale>
<asrwt>0</asrwt>
<pdfrwt beam="1">  1        2 0.16107748E+00 0.32611787E+04</pdfrwt>
<pdfrwt beam="2">  1       -2 0.39068582E+00 0.32611787E+04</pdfrwt>
<totfact> 0.16802496E-01</totfact>
</mgrwt>
</event>
<event>
 6    1  0.4630212E-004  0.1401838E+04  0.7818608E-02  0.8952489E-01
         -2   -1    0    0    0  501 -0.00000000000E+00  0.00000000000E+00  0.21956173259E+03  0.21956173259E+03  0.00000000000E+00 0. -1.
          2   -1    0    0  501    0  0.00000000000E+00 -0.00000000000E+00 -0.22375835437E+04  0.22375835437E+04  0.00000000000E+00 0.  1.
         23    2    1    2    0    0 -0.15273687053E+03  0.59288133623E+03 -0.16011715372E+04  0.17164692463E+04  0.87633051197E+02 0.  0.
         13    1    3    3    0    0 -0.21856216050E+02  0.20428109899E+03 -0.45756221992E+03  0.50156918435E+03  0.00000000000E+00 0. -1.
        -13    1    3    3    0    0 -0.13088065448E+03  0.38860023725E+03 -0.11436093172E+04  0.12149000620E+04  0.00000000000E+00 0.  1.
         22    1    1    2    0    0  0.15273687053E+03 -0.59288133623E+03 -0.41685027393E+03  0.74067602995E+03  0.00000000000E+00 0. -1.
<mgrwt>
<rscale>  0 0.14018384E+04</rscale>
<asrwt>0</asrwt>
<pdfrwt beam="1">  1        2 0.34424361E+00 0.14018384E+04</pdfrwt>
<pdfrwt beam="2">  1       -2 0.33778729E-01 0.14018384E+04</pdfrwt>
<totfact> 0.39307163E+01</totfact>
</mgrwt>
</event>
<event>
 6    1  0.4630212E-004  0.1794481E+04  0.7818608E-02  0.8709240E-01
         -2   -1    0    0    0  501 -0.00000000000E+00  0.00000000000E+00  0.41356535278E+03  0.41356535278E+03  0.00000000000E+00 0. -1.
          2   -1    0    0  501    0  0.00000000000E+00 -0.00000000000E+00 -0.19465861114E+04  0.19465861114E+04  0.00000000000E+00 0.  1.
         23    2    1    2    0    0 -0.63672306409E+03  0.58070019345E+03 -0.44943961260E+03  0.97567427945E+03  0.85529873110E+02 0.  0.
         11    1    3    3    0    0 -0.10176434955E+03  0.63568895939E+02 -0.40409138659E+02  0.12660918551E+03  0.00000000000E+00 0.  1.
        -11    1    3    3    0    0 -0.53495871454E+03  0.51713129751E+03 -0.40903047394E+03  0.84906509394E+03  0.00000000000E+00 0. -1.
         22    1    1    2    0    0  0.63672306409E+03 -0.58070019345E+03 -0.10835811460E+04  0.13844771847E+04  0.00000000000E+00 0.  1.
<mgrwt>
<rscale>  0 0.17944811E+04</rscale>
<asrwt>0</asrwt>
<pdfrwt beam="1">  1        2 0.29947479E+00 0.17944811E+04</pdfrwt>
<pdfrwt beam="2">  1       -2 0.63625439E-01 0.17944811E+04</pdfrwt>
<totfact> 0.15443886E+01</totfact>
</mgrwt>
</event>
<event>
 6    1  0.4630212E-004  0.2359868E+04  0.7818608E-02  0.8454683E-01
          2   -1    0    0  501    0  0.00000000000E+00  0.00000000000E+00  0.13285449553E+04  0.13285449553E+04  0.00000000000E+00 0.  1.
         -2   -1    0    0    0  501 -0.00000000000E+00 -0.00000000000E+00 -0.10479462130E+04  0.10479462130E+04  0.00000000000E+00 0. -1.
         23    2    1    2    0    0  0.88642050270E+03  0.55977272860E+02  0.92028012055E+03  0.12819286857E+04  0.86895869920E+02 0.  0.
         11    1    3    3    0    0  0.44092093592E+03 -0.40482135337E+01  0.49820092385E+03  0.66530580960E+03  0.00000000000E+00 0. -1.
        -11    1    3    3    0    0  0.44549956677E+03  0.60025486394E+02  0.42207919671E+03  0.61662287608E+03  0.00000000000E+00 0.  1.
         22    1    1    2    0    0 -0.88642050270E+03 -0.55977272860E+02 -0.63968137831E+03  0.10945624827E+04  0.00000000000E+00 0. -1.
<mgrwt>
<rscale>  0 0.23598675E+04</rscale>
<asrwt>0</asrwt>
<pdfrwt beam="1">  1        2 0.20439153E+00 0.23598675E+04</pdfrwt>
<pdfrwt beam="2">  1       -2 0.16122249E+00 0.23598675E+04</pdfrwt>
<totfact> 0.35418679E+00</totfact>
</mgrwt>
</event>
<event>
 6    1  0.4630212E-004  0.1486424E+04  0.7818608E-02  0.8893532E-01
          2   -1    0    0  501    0  0.00000000000E+00  0.00000000000E+00  0.11732137989E+04  0.11732137989E+04  0.00000000000E+00 0.  1.
         -2   -1    0    0    0  501 -0.00000000000E+00 -0.00000000000E+00 -0.47081258503E+03  0.47081258503E+03  0.00000000000E+00 0. -1.
         23    2    1    2    0    0 -0.48269586990E+03 -0.26681680131E+03 -0.19367219041E+03  0.59182200541E+03  0.92508704823E+02 0.  0.
         13    1    3    3    0    0 -0.18703415887E+03 -0.15373163686E+03 -0.70611419128E+02  0.25219271454E+03  0.00000000000E+00 0. -1.
        -13    1    3    3    0    0 -0.29566171103E+03 -0.11308516446E+03 -0.12306077128E+03  0.33962929088E+03  0.00000000000E+00 0.  1.
         22    1    1    2    0    0  0.48269586990E+03  0.26681680131E+03  0.89607340425E+03  0.10522043785E+04  0.00000000000E+00 0.  1.
<mgrwt>
<rscale>  0 0.14864237E+04</rscale>
<asrwt>0</asrwt>
<pdfrwt beam="1">  1        2 0.18049443E+00 0.14864237E+04</pdfrwt>
<pdfrwt beam="2">  1       -2 0.72432706E-01 0.14864237E+04</pdfrwt>
<totfact> 0.32790527E+01</totfact>
</mgrwt>
</event>
<event>
 6    1  0.4630212E-004  0.2012571E+04  0.7818608E-02  0.8600766E-01
          2   -1    0    0  501    0  0.00000000000E+00  0.00000000000E+00  0.34420992412E+04  0.34420992412E+04  0.00000000000E+00 0.  1.
         -2   -1    0    0    0  501 -0.00000000000E+00 -0.00000000000E+00 -0.29418393354E+03  0.29418393354E+03  0.00000000000E+00 0. -1.
         23    2    1    2    0    0 -0.10794223122E+03  0.72545935071E+03  0.30378419667E+03  0.79910347793E+03  0.91316676977E+02 0.  0.
         13    1    3    3    0    0 -0.85287225012E+02  0.30598135594E+03  0.15499503535E+03  0.35344301085E+03  0.00000000000E+00 0. -1.
        -13    1    3    3    0    0 -0.22655006211E+02  0.41947799477E+03  0.14878916131E+03  0.44566046709E+03  0.00000000000E+00 0.  1.
         22    1    1    2    0    0  0.10794223122E+03 -0.72545935071E+03  0.28441311110E+04  0.29371796968E+04  0.00000000000E+00 0.  1.
<mgrwt>
<rscale>  0 0.20125708E+04</rscale>
<asrwt>0</asrwt>
<pdfrwt beam="1">  1        2 0.52955370E+00 0.20125708E+04</pdfrwt>
<pdfrwt beam="2">  1       -2 0.45259069E-01 0.20125708E+04</pdfrwt>
<totfact> 0.38520716E+00</totfact>
</mgrwt>
</event>
<event>
 6    1  0.4630212E-004  0.2596533E+04  0.7818608E-02  0.8369380E-01
          2   -1    0    0  501    0  0.00000000000E+00  0.00000000000E+00  0.17591965471E+04  0.17591965471E+04  0.00000000000E+00 0. -1.
         -2   -1    0    0    0  501 -0.00000000000E+00 -0.00000000000E+00 -0.95810538236E+03  0.95810538236E+03  0.00000000000E+00 0.  1.
         23    2    1    2    0    0 -0.10159727160E+04 -0.76763745939E+03  0.14483492710E+03  0.12847726704E+04  0.90530822143E+02 0.  0.
         13    1    3    3    0    0 -0.60985688502E+03 -0.40551098090E+03  0.90826277997E+02  0.73797966680E+03  0.00000000000E+00 0.  1.
        -13    1    3    3    0    0 -0.40611583098E+03 -0.36212647849E+03  0.54008649106E+02  0.54679300359E+03  0.00000000000E+00 0. -1.
         22    1    1    2    0    0  0.10159727160E+04  0.76763745939E+03  0.65625623767E+03  0.14325292591E+04  0.00000000000E+00 0. -1.
<mgrwt>
<rscale>  0 0.25965328E+04</rscale>
<asrwt>0</asrwt>
<pdfrwt beam="1">  1        2 0.27064562E+00 0.25965328E+04</pdfrwt>
<pdfrwt beam="2">  1       -2 0.14740083E+00 0.25965328E+04</pdfrwt>
<totfact> 0.25245818E+00</totfact>
</mgrwt>
</event>
<event>
 6    1  0.4630212E-004  0.6249628E+03  0.7818608E-02  0.9854928E-01
         -4   -1    0    0    0  501 -0.00000000000E+00  0.00000000000E+00  0.12683804310E+03  0.12683804310E+03  0.00000000000E+00 0. -1.
          4   -1    0    0  501    0  0.00000000000E+00 -0.00000000000E+00 -0.76983695042E+03  0.76983695042E+03  0.00000000000E+00 0.  1.
         23    2    1    2    0    0  0.10723400992E+03 -0.28322527854E+03 -0.39817019177E+03  0.50724362441E+03  0.83910080483E+02 0.  0.
         11    1    3    3    0    0  0.84750441353E+02 -0.20090276396E+03 -0.22030537046E+03  0.30996614998E+03  0.00000000000E+00 0. -1.
        -11    1    3    3    0    0  0.22483568570E+02 -0.82322514579E+02 -0.17786482130E+03  0.19727747443E+03  0.00000000000E+00 0.  1.
         22    1    1    2    0    0 -0.10723400992E+03  0.28322527854E+03 -0.24482871555E+03  0.38943136911E+03  0.00000000000E+00 0.  1.
<mgrwt>
<rscale>  0 0.62496276E+03</rscale>
<asrwt>0</asrwt>
<pdfrwt beam="1">  1        4 0.11843645E+00 0.62496276E+03</pdfrwt>
<pdfrwt beam="2">  1       -4 0.19513545E-01 0.62496276E+03</pdfrwt>
<totfact> 0.26196789E+01</totfact>
</mgrwt>
</event>
<event>
 6    1  0.4630212E-004  0.1397451E+04  0.7818608E-02  0.8955666E-01
          2   -1    0    0  501    0  0.00000000000E+00  0.00000000000E+00  0.10582502430E+04  0.10582502430E+04  0.00000000000E+00 0.  1.
         -2   -1    0    0    0  501 -0.00000000000E+00 -0.00000000000E+00 -0.46134386987E+03  0.46134386987E+03  0.00000000000E+00 0. -1.
         23    2    1    2    0    0  0.24814814948E+03 -0.22992842582E+03  0.96084070443E+03  0.10227110455E+04  0.90985922927E+02 0.  0.
         11    1    3    3    0    0  0.23038911123E+02 -0.66215059165E+02  0.23873405000E+03  0.24881553834E+03  0.00000000000E+00 0. -1.
        -11    1    3    3    0    0  0.22510923836E+03 -0.16371336666E+03  0.72210665443E+03  0.77389550715E+03  0.00000000000E+00 0.  1.
         22    1    1    2    0    0 -0.24814814948E+03  0.22992842582E+03 -0.36393433134E+03  0.49688306735E+03  0.00000000000E+00 0. -1.
<mgrwt>
<rscale>  0 0.13974509E+04</rscale>
<asrwt>0</asrwt>
<pdfrwt beam="1">  1        2 0.16280773E+00 0.13974509E+04</pdfrwt>
<pdfrwt beam="2">  1       -2 0.70975980E-01 0.13974509E+04</pdfrwt>
<totfact> 0.40615275E+01</totfact>
</mgrwt>
</event>
<event>
 6    1  0.4630212E-004  0.2489926E+04  0.7818608E-02  0.8406583E-01
          2   -1    0    0  501    0  0.00000000000E+00  0.00000000000E+00  0.17740700970E+04  0.17740700970E+04  0.00000000000E+00 0.  1.
         -2   -1    0    0    0  501 -0.00000000000E+00 -0.00000000000E+00 -0.87365933540E+03  0.87365933540E+03  0.00000000000E+00 0. -1.
         23    2    1    2    0    0  0.99834396128E+03 -0.58675283469E+03  0.93157451330E+03  0.14893077762E+04  0.96109439901E+02 0.  0.
         13    1    3    3    0    0  0.67742894810E+03 -0.41488882373E+03  0.69189697944E+03  0.10534534380E+04  0.00000000000E+00 0. -1.
        -13    1    3    3    0    0  0.32091501318E+03 -0.17186401096E+03  0.23967753386E+03  0.43585433827E+03  0.00000000000E+00 0.  1.
         22    1    1    2    0    0 -0.99834396128E+03  0.58675283469E+03 -0.31163751718E+02  0.11584216562E+04  0.00000000000E+00 0. -1.
<mgrwt>
<rscale>  0 0.24899260E+04</rscale>
<asrwt>0</asrwt>
<pdfrwt beam="1">  1        2 0.27293386E+00 0.24899260E+04</pdfrwt>
<pdfrwt beam="2">  1       -2 0.13440913E+00 0.24899260E+04</pdfrwt>
<totfact> 0.31768855E+00</totfact>
</mgrwt>
</event>
<event>
 6    1  0.4630212E-004  0.1439940E+04  0.7818608E-02  0.8925405E-01
         -2   -1    0    0    0  501 -0.00000000000E+00  0.00000000000E+00  0.40202158232E+03  0.40202158232E+03  0.00000000000E+00 0. -1.
          2   -1    0    0  501    0  0.00000000000E+00 -0.00000000000E+00 -0.12893758338E+04  0.12893758338E+04  0.00000000000E+00 0.  1.
         23    2    1    2    0    0 -0.46785367916E+03  0.26238140079E+02 -0.10836309363E+04  0.11833619428E+04  0.80709210313E+02 0.  0.
         11    1    3    3    0    0 -0.10943789016E+03 -0.16006659226E+02 -0.32403174829E+03  0.34238784856E+03  0.00000000000E+00 0. -1.
        -11    1    3    3    0    0 -0.35841578901E+03  0.42244799305E+02 -0.75959918797E+03  0.84097409427E+03  0.00000000000E+00 0.  1.
         22    1    1    2    0    0  0.46785367916E+03 -0.26238140079E+02  0.19627668480E+03  0.50803547327E+03  0.00000000000E+00 0. -1.
<mgrwt>
<rscale>  0 0.14399402E+04</rscale>
<asrwt>0</asrwt>
<pdfrwt beam="1">  1        2 0.19836551E+00 0.14399402E+04</pdfrwt>
<pdfrwt beam="2">  1       -2 0.61849475E-01 0.14399402E+04</pdfrwt>
<totfact> 0.39517135E+01</totfact>
</mgrwt>
</event>
<event>
 6    1  0.4630212E-004  0.4486334E+03  0.7818608E-02  0.1028130E+00
         -2   -1    0    0    0  501 -0.00000000000E+00  0.00000000000E+00  0.36130909182E+02  0.36130909182E+02  0.00000000000E+00 0. -1.
          2   -1    0    0  501    0  0.00000000000E+00 -0.00000000000E+00 -0.13926575670E+04  0.13926575670E+04  0.00000000000E+00 0.  1.
         23    2    1    2    0    0  0.27348738694E+01 -0.10999234652E+03 -0.12942405679E+04  0.13023552811E+04  0.94682811147E+02 0.  0.
         13    1    3    3    0    0 -0.18181011126E+01 -0.40992836349E+02 -0.96787980658E+03  0.96874921322E+03  0.00000000000E+00 0. -1.
        -13    1    3    3    0    0  0.45529749820E+01 -0.68999510168E+02 -0.32636076135E+03  0.33360606789E+03  0.00000000000E+00 0.  1.
         22    1    1    2    0    0 -0.27348738694E+01  0.10999234652E+03 -0.62286089922E+02  0.12643319511E+03  0.00000000000E+00 0. -1.
<mgrwt>
<rscale>  0 0.44863341E+03</rscale>
<asrwt>0</asrwt>
<pdfrwt beam="1">  1        2 0.21425499E+00 0.44863341E+03</pdfrwt>
<pdfrwt beam="2">  1       -2 0.55586019E-02 0.44863341E+03</pdfrwt>
<totfact> 0.25942107E+03</totfact>
</mgrwt>
</event>
<event>
 6    1  0.4630212E-004  0.3374299E+04  0.7818608E-02  0.8144243E-01
          2   -1    0    0  501    0  0.00000000000E+00  0.00000000000E+00  0.23570448550E+04  0.23570448550E+04  0.00000000000E+00 0.  1.
         -2   -1    0    0    0  501 -0.00000000000E+00 -0.00000000000E+00 -0.12076447560E+04  0.12076447560E+04  0.00000000000E+00 0. -1.
         23    2    1    2    0    0  0.16615813738E+03  0.13015517842E+04  0.16936337532E+04  0.21441841221E+04  0.86514080150E+02 0.  0.
         13    1    3    3    0    0  0.84331594436E+02  0.41311687484E+03  0.50250954660E+03  0.65596738830E+03  0.00000000000E+00 0. -1.
        -13    1    3    3    0    0  0.81826542941E+02  0.88843490940E+03  0.11911242066E+04  0.14882167338E+04  0.00000000000E+00 0.  1.
         22    1    1    2    0    0 -0.16615813738E+03 -0.13015517842E+04 -0.54423365417E+03  0.14205054889E+04  0.00000000000E+00 0. -1.
<mgrwt>
<rscale>  0 0.33742987E+04</rscale>
<asrwt>0</asrwt>
<pdfrwt beam="1">  1        2 0.36262228E+00 0.33742987E+04</pdfrwt>
<pdfrwt beam="2">  1       -2 0.18579150E+00 0.33742987E+04</pdfrwt>
<totfact> 0.57793435E-01</totfact>
</mgrwt>
</event>
<event>
 6    1  0.4630212E-004  0.2693053E+04  0.7818608E-02  0.8337262E-01
         -2   -1    0    0    0  501 -0.00000000000E+00  0.00000000000E+00  0.13241393046E+04  0.13241393046E+04  0.00000000000E+00 0. -1.
          2   -1    0    0  501    0  0.00000000000E+00 -0.00000000000E+00 -0.13692924713E+04  0.13692924713E+04  0.00000000000E+00 0.  1.
         23    2    1    2    0    0  0.75097645316E+03 -0.49919764187E+03  0.97550262164E+03  0.13314838484E+04  0.89888569039E+02 0.  0.
         13    1    3    3    0    0  0.50366695483E+03 -0.29922429732E+03  0.67715512819E+03  0.89540753243E+03  0.00000000000E+00 0. -1.
        -13    1    3    3    0    0  0.24730949833E+03 -0.19997334454E+03  0.29834749345E+03  0.43607631596E+03  0.00000000000E+00 0.  1.
         22    1    1    2    0    0 -0.75097645316E+03  0.49919764187E+03 -0.10206557884E+04  0.13619479275E+04  0.00000000000E+00 0.  1.
<mgrwt>
<rscale>  0 0.26930533E+04</rscale>
<asrwt>0</asrwt>
<pdfrwt beam="1">  1        2 0.21066038E+00 0.26930533E+04</pdfrwt>
<pdfrwt beam="2">  1       -2 0.20371374E+00 0.26930533E+04</pdfrwt>
<totfact> 0.16637916E+00</totfact>
</mgrwt>
</event>
<event>
 6    1  0.4630212E-004  0.1987005E+04  0.7818608E-02  0.8612721E-01
         -2   -1    0    0    0  501 -0.00000000000E+00  0.00000000000E+00  0.88027502906E+03  0.88027502906E+03  0.00000000000E+00 0. -1.
          2   -1    0    0  501    0  0.00000000000E+00 -0.00000000000E+00 -0.11212937591E+04  0.11212937591E+04  0.00000000000E+00 0.  1.
         23    2    1    2    0    0  0.22325777061E+03 -0.54344893853E+03 -0.92516470333E+03  0.10997725286E+04  0.91592060391E+02 0.  0.
         11    1    3    3    0    0  0.14436777004E+02 -0.49295224886E+02 -0.13741854027E+03  0.14670478839E+03  0.00000000000E+00 0.  1.
        -11    1    3    3    0    0  0.20882099361E+03 -0.49415371365E+03 -0.78774616305E+03  0.95306774024E+03  0.00000000000E+00 0. -1.
         22    1    1    2    0    0 -0.22325777061E+03  0.54344893853E+03  0.68414597329E+03  0.90179625953E+03  0.00000000000E+00 0. -1.
<mgrwt>
<rscale>  0 0.19870047E+04</rscale>
<asrwt>0</asrwt>
<pdfrwt beam="1">  1        2 0.17250673E+00 0.19870047E+04</pdfrwt>
<pdfrwt beam="2">  1       -2 0.13542693E+00 0.19870047E+04</pdfrwt>
<totfact> 0.76940817E+00</totfact>
</mgrwt>
</event>
<event>
 6    1  0.4630212E-004  0.1136534E+04  0.7818608E-02  0.9170298E-01
         -2   -1    0    0    0  501 -0.00000000000E+00  0.00000000000E+00  0.21528073147E+04  0.21528073147E+04  0.00000000000E+00 0. -1.
          2   -1    0    0  501    0  0.00000000000E+00 -0.00000000000E+00 -0.15000280161E+03  0.15000280161E+03  0.00000000000E+00 0.  1.
         23    2    1    2    0    0  0.12554748486E+03  0.51350255234E+03  0.14098794566E+04  0.15084505222E+04  0.90641345029E+02 0.  0.
         11    1    3    3    0    0  0.11572506058E+03  0.30848313978E+03  0.92456212053E+03  0.98151375532E+03  0.00000000000E+00 0.  1.
        -11    1    3    3    0    0  0.98224242791E+01  0.20501941256E+03  0.48531733610E+03  0.52693676685E+03  0.00000000000E+00 0. -1.
         22    1    1    2    0    0 -0.12554748486E+03 -0.51350255234E+03  0.59292505648E+03  0.79435959415E+03  0.00000000000E+00 0.  1.
<mgrwt>
<rscale>  0 0.11365336E+04</rscale>
<asrwt>0</asrwt>
<pdfrwt beam="1">  1        2 0.23077356E-01 0.11365336E+04</pdfrwt>
<pdfrwt beam="2">  1       -2 0.33120110E+00 0.11365336E+04</pdfrwt>
<totfact> 0.49359636E+00</totfact>
</mgrwt>
</event>
<event>
 6    1  0.4630212E-004  0.1235319E+04  0.7818608E-02  0.9082492E-01
         -2   -1    0    0    0  501 -0.00000000000E+00  0.00000000000E+00  0.20545826647E+03  0.20545826647E+03  0.00000000000E+00 0. -1.
          2   -1    0    0  501    0  0.00000000000E+00 -0.00000000000E+00 -0.18568403853E+04  0.18568403853E+04  0.00000000000E+00 0.  1.
         23    2    1    2    0    0  0.88673510503E+02  0.58711102852E+03 -0.56730765513E+03  0.82626475494E+03  0.91176304058E+02 0.  0.
         13    1    3    3    0    0 -0.17877086440E+02  0.13554373054E+03 -0.13332770922E+03  0.19096589002E+03  0.00000000000E+00 0.  1.
        -13    1    3    3    0    0  0.10655059694E+03  0.45156729798E+03 -0.43397994591E+03  0.63529886492E+03  0.00000000000E+00 0. -1.
         22    1    1    2    0    0 -0.88673510503E+02 -0.58711102852E+03 -0.10840744637E+04  0.12360338968E+04  0.00000000000E+00 0.  1.
<mgrwt>
<rscale>  0 0.12353189E+04</rscale>
<asrwt>0</asrwt>
<pdfrwt beam="1">  1        2 0.28566776E+00 0.12353189E+04</pdfrwt>
<pdfrwt beam="2">  1       -2 0.31608963E-01 0.12353189E+04</pdfrwt>
<totfact> 0.73471627E+01</totfact>
</mgrwt>
</event>
<event>
 6    1  0.4630212E-004  0.2384757E+04  0.7818608E-02  0.8445232E-01
         -2   -1    0    0    0  501 -0.00000000000E+00  0.00000000000E+00  0.38542458805E+03  0.38542458805E+03  0.00000000000E+00 0. -1.
          2   -1    0    0  501    0  0.00000000000E+00 -0.00000000000E+00 -0.36888313164E+04  0.36888313164E+04  0.00000000000E+00 0.  1.
         23    2    1    2    0    0  0.13690370783E+02 -0.34782593672E+03 -0.35994033988E+04  0.36173266567E+04  0.90426798972E+02 0.  0.
         11    1    3    3    0    0 -0.31356694106E+02 -0.59467911725E+02 -0.59828355549E+03  0.60204890794E+03  0.00000000000E+00 0.  1.
        -11    1    3    3    0    0  0.45047064889E+02 -0.28835802499E+03 -0.30011198433E+04  0.30152777488E+04  0.00000000000E+00 0. -1.
         22    1    1    2    0    0 -0.13690370783E+02  0.34782593672E+03  0.29599667043E+03  0.45692924771E+03  0.00000000000E+00 0. -1.
<mgrwt>
<rscale>  0 0.23847568E+04</rscale>
<asrwt>0</asrwt>
<pdfrwt beam="1">  1        2 0.56751250E+00 0.23847568E+04</pdfrwt>
<pdfrwt beam="2">  1       -2 0.59296091E-01 0.23847568E+04</pdfrwt>
<totfact> 0.14264490E+00</totfact>
</mgrwt>
</event>
<event>
 6    1  0.4630212E-004  0.2816942E+04  0.7818608E-02  0.8298028E-01
         -2   -1    0    0    0  501 -0.00000000000E+00  0.00000000000E+00  0.99130439075E+03  0.99130439075E+03  0.00000000000E+00 0. -1.
          2   -1    0    0  501    0  0.00000000000E+00 -0.00000000000E+00 -0.20011926488E+04  0.20011926488E+04  0.00000000000E+00 0.  1.
         23    2    1    2    0    0 -0.94392815779E+03 -0.91711882988E+03  0.23041072864E+02  0.13194607824E+04  0.91315661373E+02 0.  0.
         11    1    3    3    0    0 -0.78917858099E+03 -0.80281178880E+03  0.38890469933E+02  0.11264200236E+04  0.00000000000E+00 0.  1.
        -11    1    3    3    0    0 -0.15474957681E+03 -0.11430704108E+03 -0.15849397069E+02  0.19304075878E+03  0.00000000000E+00 0. -1.
         22    1    1    2    0    0  0.94392815779E+03  0.91711882988E+03 -0.10329293309E+04  0.16730362572E+04  0.00000000000E+00 0.  1.
<mgrwt>
<rscale>  0 0.28169424E+04</rscale>
<asrwt>0</asrwt>
<pdfrwt beam="1">  1        2 0.30787579E+00 0.28169424E+04</pdfrwt>
<pdfrwt beam="2">  1       -2 0.15250837E+00 0.28169424E+04</pdfrwt>
<totfact> 0.16619726E+00</totfact>
</mgrwt>
</event>
<event>
 6    1  0.4630212E-004  0.1649846E+04  0.7818608E-02  0.8790498E-01
          2   -1    0    0  501    0  0.00000000000E+00  0.00000000000E+00  0.64525335970E+03  0.64525335970E+03  0.00000000000E+00 0.  1.
         -2   -1    0    0    0  501 -0.00000000000E+00 -0.00000000000E+00 -0.10546209476E+04  0.10546209476E+04  0.00000000000E+00 0. -1.
         23    2    1    2    0    0 -0.53952610847E+03 -0.47488764763E+03 -0.61705330052E+03  0.95171653332E+03  0.91667248859E+02 0.  0.
         11    1    3    3    0    0 -0.41016216577E+03 -0.40066091820E+03 -0.51766123910E+03  0.77248646077E+03  0.00000000000E+00 0.  1.
        -11    1    3    3    0    0 -0.12936394270E+03 -0.74226729423E+02 -0.99392061425E+02  0.17923007255E+03  0.00000000000E+00 0. -1.
         22    1    1    2    0    0  0.53952610847E+03  0.47488764763E+03  0.20768571260E+03  0.74815777401E+03  0.00000000000E+00 0.  1.
<mgrwt>
<rscale>  0 0.16498457E+04</rscale>
<asrwt>0</asrwt>
<pdfrwt beam="1">  1        2 0.99269748E-01 0.16498457E+04</pdfrwt>
<pdfrwt beam="2">  1       -2 0.16224938E+00 0.16498457E+04</pdfrwt>
<totfact> 0.10501003E+01</totfact>
</mgrwt>
</event>
<event>
 6    1  0.4630212E-004  0.8745207E+03  0.7818608E-02  0.9458005E-01
          1   -1    0    0  501    0  0.00000000000E+00  0.00000000000E+00  0.98411929474E+03  0.98411929474E+03  0.00000000000E+00 0.  1.
         -1   -1    0    0    0  501 -0.00000000000E+00 -0.00000000000E+00 -0.19428192703E+03  0.19428192703E+03  0.00000000000E+00 0. -1.
         23    2    1    2    0    0  0.42100212020E+03  0.67034260774E+02  0.29925108078E+03  0.52846946977E+03  0.89400189017E+02 0.  0.
         11    1    3    3    0    0  0.29208531409E+03  0.82365062070E+02  0.23371148835E+03  0.38303902405E+03  0.00000000000E+00 0.  1.
        -11    1    3    3    0    0  0.12891680611E+03 -0.15330801296E+02  0.65539592433E+02  0.14543044572E+03  0.00000000000E+00 0. -1.
         22    1    1    2    0    0 -0.42100212020E+03 -0.67034260774E+02  0.49058628694E+03  0.64993175200E+03  0.00000000000E+00 0. -1.
<mgrwt>
<rscale>  0 0.87452065E+03</rscale>
<asrwt>0</asrwt>
<pdfrwt beam="1">  1        1 0.15140297E+00 0.87452065E+03</pdfrwt>
<pdfrwt beam="2">  1       -1 0.29889528E-01 0.87452065E+03</pdfrwt>
<totfact> 0.16108414E+02</totfact>
</mgrwt>
</event>
<event>
 6    1  0.4630212E-004  0.2207161E+04  0.7818608E-02  0.8515454E-01
          2   -1    0    0  501    0  0.00000000000E+00  0.00000000000E+00  0.52646745893E+03  0.52646745893E+03  0.00000000000E+00 0.  1.
         -2   -1    0    0    0  501 -0.00000000000E+00 -0.00000000000E+00 -0.23133236331E+04  0.23133236331E+04  0.00000000000E+00 0. -1.
         23    2    1    2    0    0 -0.18391491414E+03  0.10063412984E+04 -0.14209152076E+04  0.17533011953E+04  0.92290571932E+02 0.  0.
         11    1    3    3    0    0 -0.40250831401E+02  0.10880990903E+03 -0.12679709518E+03  0.17186398424E+03  0.00000000000E+00 0.  1.
        -11    1    3    3    0    0 -0.14366408273E+03  0.89753138941E+03 -0.12941181125E+04  0.15814372111E+04  0.00000000000E+00 0. -1.
         22    1    1    2    0    0  0.18391491414E+03 -0.10063412984E+04 -0.36594096648E+03  0.10864898967E+04  0.00000000000E+00 0.  1.
<mgrwt>
<rscale>  0 0.22071607E+04</rscale>
<asrwt>0</asrwt>
<pdfrwt beam="1">  1        2 0.80994995E-01 0.22071607E+04</pdfrwt>
<pdfrwt beam="2">  1       -2 0.35589594E+00 0.22071607E+04</pdfrwt>
<totfact> 0.75726094E-01</totfact>
</mgrwt>
</event>
<event>
 6    1  0.4630212E-004  0.1160490E+04  0.7818608E-02  0.9148160E-01
         -2   -1    0    0    0  501 -0.00000000000E+00  0.00000000000E+00  0.65811212304E+03  0.65811212304E+03  0.00000000000E+00 0. -1.
          2   -1    0    0  501    0  0.00000000000E+00 -0.00000000000E+00 -0.51159144795E+03  0.51159144795E+03  0.00000000000E+00 0.  1.
         23    2    1    2    0    0 -0.38024835676E+03  0.13778638379E+03 -0.34052963657E+03  0.53662229147E+03  0.91810402172E+02 0.  0.
         13    1    3    3    0    0 -0.65420570692E+02  0.61088193381E+02 -0.91002960297E+02  0.12764465215E+03  0.00000000000E+00 0. -1.
        -13    1    3    3    0    0 -0.31482778607E+03  0.76698190406E+02 -0.24952667627E+03  0.40897763932E+03  0.00000000000E+00 0.  1.
         22    1    1    2    0    0  0.38024835676E+03 -0.13778638379E+03  0.48705031166E+03  0.63308127951E+03  0.00000000000E+00 0. -1.
<mgrwt>
<rscale>  0 0.11604905E+04</rscale>
<asrwt>0</asrwt>
<pdfrwt beam="1">  1        2 0.78706376E-01 0.11604905E+04</pdfrwt>
<pdfrwt beam="2">  1       -2 0.10124802E+00 0.11604905E+04</pdfrwt>
<totfact> 0.47573667E+01</totfact>
</mgrwt>
</event>
<event>
 6    1  0.4630212E-004  0.3358647E+04  0.7818608E-02  0.8148131E-01
         -2   -1    0    0    0  501 -0.00000000000E+00  0.00000000000E+00  0.11036264386E+04  0.11036264386E+04  0.00000000000E+00 0. -1.
          2   -1    0    0  501    0  0.00000000000E+00 -0.00000000000E+00 -0.25553274028E+04  0.25553274028E+04  0.00000000000E+00 0.  1.
         23    2    1    2    0    0 -0.45323351761E+03 -0.12472986482E+04  0.39260203118E+03  0.13868121033E+04  0.89089368726E+02 0.  0.
         11    1    3    3    0    0 -0.15719918286E+03 -0.55123370844E+03  0.15105846426E+03  0.59278060362E+03  0.00000000000E+00 0. -1.
        -11    1    3    3    0    0 -0.29603433476E+03 -0.69606493978E+03  0.24154356692E+03  0.79403149967E+03  0.00000000000E+00 0.  1.
         22    1    1    2    0    0  0.45323351761E+03  0.12472986482E+04 -0.18443029954E+04  0.22721417381E+04  0.00000000000E+00 0. -1.
<mgrwt>
<rscale>  0 0.33586467E+04</rscale>
<asrwt>0</asrwt>
<pdfrwt beam="1">  1        2 0.39312728E+00 0.33586467E+04</pdfrwt>
<pdfrwt beam="2">  1       -2 0.16978869E+00 0.33586467E+04</pdfrwt>
<totfact> 0.57451496E-01</totfact>
</mgrwt>
</event>
<event>
 6    1  0.4630212E-004  0.3210790E+04  0.7818608E-02  0.8185973E-01
         -2   -1    0    0    0  501 -0.00000000000E+00  0.00000000000E+00  0.70300033919E+03  0.70300033919E+03  0.00000000000E+00 0. -1.
          2   -1    0    0  501    0  0.00000000000E+00 -0.00000000000E+00 -0.36661335963E+04  0.36661335963E+04  0.00000000000E+00 0.  1.
         23    2    1    2    0    0  0.98096979321E+03 -0.43081720876E+03 -0.31072721031E+04  0.32880783358E+04  0.91727950705E+02 0.  0.
         11    1    3    3    0    0  0.22613033212E+03 -0.92447766951E+02 -0.59816079736E+03  0.64612526356E+03  0.00000000000E+00 0. -1.
        -11    1    3    3    0    0  0.75483946109E+03 -0.33836944181E+03 -0.25091113058E+04  0.26419530723E+04  0.00000000000E+00 0.  1.
         22    1    1    2    0    0 -0.98096979321E+03  0.43081720876E+03  0.14413884607E+03  0.10810555996E+04  0.00000000000E+00 0. -1.
<mgrwt>
<rscale>  0 0.32107900E+04</rscale>
<asrwt>0</asrwt>
<pdfrwt beam="1">  1        2 0.56402055E+00 0.32107900E+04</pdfrwt>
<pdfrwt beam="2">  1       -2 0.10815390E+00 0.32107900E+04</pdfrwt>
<totfact> 0.35546321E-01</totfact>
</mgrwt>
</event>
<event>
 6    1  0.4630212E-004  0.1831034E+04  0.7818608E-02  0.8689968E-01
         -2   -1    0    0    0  501 -0.00000000000E+00  0.00000000000E+00  0.47913750736E+03  0.47913750736E+03  0.00000000000E+00 0. -1.
          2   -1    0    0  501    0  0.00000000000E+00 -0.00000000000E+00 -0.17493327660E+04  0.17493327660E+04  0.00000000000E+00 0.  1.
         23    2    1    2    0    0  0.68105990450E+03 -0.50873137875E+03 -0.10429447091E+04  0.13485310587E+04  0.90289206446E+02 0.  0.
         13    1    3    3    0    0  0.27259967486E+03 -0.16316049384E+03 -0.43534463184E+03  0.53894051430E+03  0.00000000000E+00 0. -1.
        -13    1    3    3    0    0  0.40846022965E+03 -0.34557088491E+03 -0.60760007724E+03  0.80959054439E+03  0.00000000000E+00 0.  1.
         22    1    1    2    0    0 -0.68105990450E+03  0.50873137875E+03 -0.22725054957E+03  0.87993921468E+03  0.00000000000E+00 0. -1.
<mgrwt>
<rscale>  0 0.18310335E+04</rscale>
<asrwt>0</asrwt>
<pdfrwt beam="1">  1        2 0.26912812E+00 0.18310335E+04</pdfrwt>
<pdfrwt beam="2">  1       -2 0.73713463E-01 0.18310335E+04</pdfrwt>
<totfact> 0.14383862E+01</totfact>
</mgrwt>
</event>
<event>
 6    1  0.4630212E-004  0.1347098E+04  0.7818608E-02  0.8993028E-01
          2   -1    0    0  501    0  0.00000000000E+00  0.00000000000E+00  0.64963109480E+03  0.64963109480E+03  0.00000000000E+00 0.  1.
         -2   -1    0    0    0  501 -0.00000000000E+00 -0.00000000000E+00 -0.69834703168E+03  0.69834703168E+03  0.00000000000E+00 0. -1.
         23    2    1    2    0    0  0.35976960373E+03 -0.54908606122E+03  0.11270086871E+03  0.67197142863E+03  0.88963164793E+02 0.  0.
         11    1    3    3    0    0  0.20955755193E+03 -0.25691221797E+03  0.85108458054E+02  0.34228892028E+03  0.00000000000E+00 0.  1.
        -11    1    3    3    0    0  0.15021205181E+03 -0.29217384326E+03  0.27592410653E+02  0.32968250836E+03  0.00000000000E+00 0. -1.
         22    1    1    2    0    0 -0.35976960373E+03  0.54908606122E+03 -0.16141680559E+03  0.67600669784E+03  0.00000000000E+00 0. -1.
<mgrwt>
<rscale>  0 0.13470975E+04</rscale>
<asrwt>0</asrwt>
<pdfrwt beam="1">  1        2 0.99943245E-01 0.13470975E+04</pdfrwt>
<pdfrwt beam="2">  1       -2 0.10743801E+00 0.13470975E+04</pdfrwt>
<totfact> 0.30578369E+01</totfact>
</mgrwt>
</event>
<event>
 6    1  0.4630212E-004  0.1522342E+04  0.7818608E-02  0.8869730E-01
          2   -1    0    0  501    0  0.00000000000E+00  0.00000000000E+00  0.87014752846E+03  0.87014752846E+03  0.00000000000E+00 0.  1.
         -2   -1    0    0    0  501 -0.00000000000E+00 -0.00000000000E+00 -0.66584232568E+03  0.66584232568E+03  0.00000000000E+00 0. -1.
         23    2    1    2    0    0  0.25036876978E+03 -0.53025324601E+03 -0.38311345189E+03  0.70598160018E+03  0.88210413153E+02 0.  0.
         11    1    3    3    0    0  0.20637322729E+03 -0.43184032253E+03 -0.26912991291E+03  0.54909642425E+03  0.00000000000E+00 0. -1.
        -11    1    3    3    0    0  0.43995542492E+02 -0.98412923477E+02 -0.11398353898E+03  0.15688517593E+03  0.00000000000E+00 0.  1.
         22    1    1    2    0    0 -0.25036876978E+03  0.53025324601E+03  0.58741865467E+03  0.83000825396E+03  0.00000000000E+00 0.  1.
<mgrwt>
<rscale>  0 0.15223417E+04</rscale>
<asrwt>0</asrwt>
<pdfrwt beam="1">  1        2 0.13386885E+00 0.15223417E+04</pdfrwt>
<pdfrwt beam="2">  1       -2 0.10243728E+00 0.15223417E+04</pdfrwt>
<totfact> 0.23124553E+01</totfact>
</mgrwt>
</event>
<event>
 6    1  0.4630212E-004  0.1268261E+04  0.7818608E-02  0.9055120E-01
         -2   -1    0    0    0  501 -0.00000000000E+00  0.00000000000E+00  0.28867382299E+03  0.28867382299E+03  0.00000000000E+00 0. -1.
          2   -1    0    0  501    0  0.00000000000E+00 -0.00000000000E+00 -0.13929951479E+04  0.13929951479E+04  0.00000000000E+00 0.  1.
         23    2    1    2    0    0  0.12742403520E+03  0.59881979354E+03 -0.35227795644E+03  0.71193124452E+03  0.89018584844E+02 0.  0.
         13    1    3    3    0    0  0.26309126965E+02  0.28258181570E+03 -0.19650821723E+03  0.34519578817E+03  0.00000000000E+00 0. -1.
        -13    1    3    3    0    0  0.10111490824E+03  0.31623797783E+03 -0.15576973921E+03  0.36673545635E+03  0.00000000000E+00 0.  1.
         22    1    1    2    0    0 -0.12742403520E+03 -0.59881979354E+03 -0.75204336847E+03  0.96973772637E+03  0.00000000000E+00 0.  1.
<mgrwt>
<rscale>  0 0.12682606E+04</rscale>
<asrwt>0</asrwt>
<pdfrwt beam="1">  1        2 0.21430694E+00 0.12682606E+04</pdfrwt>
<pdfrwt beam="2">  1       -2 0.44411358E-01 0.12682606E+04</pdfrwt>
<totfact> 0.68950762E+01</totfact>
</mgrwt>
</event>
<event>
 6    1  0.4630212E-004  0.2004175E+04  0.7818608E-02  0.8604671E-01
          2   -1    0    0  501    0  0.00000000000E+00  0.00000000000E+00  0.15756102538E+04  0.15756102538E+04  0.00000000000E+00 0. -1.
         -2   -1    0    0    0  501 -0.00000000000E+00 -0.00000000000E+00 -0.63732753128E+03  0.63732753128E+03  0.00000000000E+00 0.  1.
         23    2    1    2    0    0  0.39845889416E+03 -0.12581424963E+03  0.14736149052E+04  0.15338359801E+04  0.80704456215E+02 0.  0.
         11    1    3    3    0    0  0.23949516944E+03 -0.10288157554E+03  0.10140333108E+04  0.10469986199E+04  0.00000000000E+00 0. -1.
        -11    1    3    3    0    0  0.15896372472E+03 -0.22932674090E+02  0.45958159447E+03  0.48683736021E+03  0.00000000000E+00 0.  1.
         22    1    1    2    0    0 -0.39845889416E+03  0.12581424963E+03 -0.53533218267E+03  0.67910180499E+03  0.00000000000E+00 0.  1.
<mgrwt>
<rscale>  0 0.20041754E+04</rscale>
<asrwt>0</asrwt>
<pdfrwt beam="1">  1        2 0.24240158E+00 0.20041754E+04</pdfrwt>
<pdfrwt beam="2">  1       -2 0.98050390E-01 0.20041754E+04</pdfrwt>
<totfact> 0.92499918E+00</totfact>
</mgrwt>
</event>
<event>
 6    1  0.4630212E-004  0.1647153E+04  0.7818608E-02  0.8792092E-01
          2   -1    0    0  501    0  0.00000000000E+00  0.00000000000E+00  0.68047363509E+03  0.68047363509E+03  0.00000000000E+00 0.  1.
         -2   -1    0    0    0  501 -0.00000000000E+00 -0.00000000000E+00 -0.99677408061E+03  0.99677408061E+03  0.00000000000E+00 0. -1.
         23    2    1    2    0    0 -0.38101641407E+03 -0.71729194531E+03 -0.28158567251E+03  0.86429854259E+03  0.89667369608E+02 0.  0.
         11    1    3    3    0    0 -0.37166128555E+02 -0.71066307639E+02 -0.57757753172E+02  0.98831671263E+02  0.00000000000E+00 0. -1.
        -11    1    3    3    0    0 -0.34385028552E+03 -0.64622563767E+03 -0.22382791934E+03  0.76546687133E+03  0.00000000000E+00 0.  1.
         22    1    1    2    0    0  0.38101641407E+03  0.71729194531E+03 -0.34714773019E+02  0.81294917311E+03  0.00000000000E+00 0. -1.
<mgrwt>
<rscale>  0 0.16471533E+04</rscale>
<asrwt>0</asrwt>
<pdfrwt beam="1">  1        2 0.10468825E+00 0.16471533E+04</pdfrwt>
<pdfrwt beam="2">  1       -2 0.15334986E+00 0.16471533E+04</pdfrwt>
<totfact> 0.11454626E+01</totfact>
</mgrwt>
</event>
<event>
 6    1  0.4630212E-004  0.1065589E+04  0.7818608E-02  0.9239396E-01
          2   -1    0    0  501    0  0.00000000000E+00  0.00000000000E+00  0.11775752866E+04  0.11775752866E+04  0.00000000000E+00 0.  1.
         -2   -1    0    0    0  501 -0.00000000000E+00 -0.00000000000E+00 -0.24106304062E+03  0.24106304062E+03  0.00000000000E+00 0. -1.
         23    2    1    2    0    0  0.12577939139E+03 -0.42471695228E+03  0.87242910536E+02  0.46079525605E+03  0.92282163518E+02 0.  0.
         11    1    3    3    0    0  0.82543068132E+02 -0.20512479811E+03  0.85259461707E+02  0.23697830430E+03  0.00000000000E+00 0. -1.
        -11    1    3    3    0    0  0.43236323261E+02 -0.21959215417E+03  0.19834488285E+01  0.22381695175E+03  0.00000000000E+00 0.  1.
         22    1    1    2    0    0 -0.12577939139E+03  0.42471695228E+03  0.84926933547E+03  0.95784307118E+03  0.00000000000E+00 0.  1.
<mgrwt>
<rscale>  0 0.10655888E+04</rscale>
<asrwt>0</asrwt>
<pdfrwt beam="1">  1        2 0.18116543E+00 0.10655888E+04</pdfrwt>
<pdfrwt beam="2">  1       -2 0.37086622E-01 0.10655888E+04</pdfrwt>
<totfact> 0.13305819E+02</totfact>
</mgrwt>
</event>
<event>
 6    1  0.4630212E-004  0.2301078E+04  0.7818608E-02  0.8477496E-01
         -2   -1    0    0    0  501 -0.00000000000E+00  0.00000000000E+00  0.40073612054E+03  0.40073612054E+03  0.00000000000E+00 0. -1.
          2   -1    0    0  501    0  0.00000000000E+00 -0.00000000000E+00 -0.33032696570E+04  0.33032696570E+04  0.00000000000E+00 0.  1.
         23    2    1    2    0    0 -0.10706746084E+02  0.47136932289E+03 -0.31396766464E+04  0.31762363889E+04  0.92760343655E+02 0.  0.
         13    1    3    3    0    0  0.18477596898E+02  0.35653553309E+03 -0.25399002567E+04  0.25648688703E+04  0.00000000000E+00 0. -1.
        -13    1    3    3    0    0 -0.29184342982E+02  0.11483378980E+03 -0.59977638965E+03  0.61136751855E+03  0.00000000000E+00 0.  1.
         22    1    1    2    0    0  0.10706746084E+02 -0.47136932289E+03  0.23714310995E+03  0.52776938862E+03  0.00000000000E+00 0. -1.
<mgrwt>
<rscale>  0 0.23010775E+04</rscale>
<asrwt>0</asrwt>
<pdfrwt beam="1">  1        2 0.50819531E+00 0.23010775E+04</pdfrwt>
<pdfrwt beam="2">  1       -2 0.61651714E-01 0.23010775E+04</pdfrwt>
<totfact> 0.24607313E+00</totfact>
</mgrwt>
</event>
<event>
 6    1  0.4630212E-004  0.2055595E+04  0.7818608E-02  0.8581060E-01
          2   -1    0    0  501    0  0.00000000000E+00  0.00000000000E+00  0.44710738571E+03  0.44710738571E+03  0.00000000000E+00 0.  1.
         -2   -1    0    0    0  501 -0.00000000000E+00 -0.00000000000E+00 -0.23626716389E+04  0.23626716389E+04  0.00000000000E+00 0. -1.
         23    2    1    2    0    0 -0.34149401362E+03  0.34202320977E+03  0.27676990898E+03  0.56480082516E+03  0.93810192532E+02 0.  0.
         13    1    3    3    0    0 -0.46302437851E+02  0.24545907553E+02  0.61452948948E+02  0.80764362580E+02  0.00000000000E+00 0. -1.
        -13    1    3    3    0    0 -0.29519157577E+03  0.31747730222E+03  0.21531696003E+03  0.48403646258E+03  0.00000000000E+00 0.  1.
         22    1    1    2    0    0  0.34149401362E+03 -0.34202320977E+03 -0.21923341622E+04  0.22449781995E+04  0.00000000000E+00 0. -1.
<mgrwt>
<rscale>  0 0.20555952E+04</rscale>
<asrwt>0</asrwt>
<pdfrwt beam="1">  1        2 0.68785752E-01 0.20555952E+04</pdfrwt>
<pdfrwt beam="2">  1       -2 0.36348794E+00 0.20555952E+04</pdfrwt>
<totfact> 0.82990455E-01</totfact>
</mgrwt>
</event>
<event>
 6    1  0.4630212E-004  0.1558532E+04  0.7818608E-02  0.8846436E-01
          2   -1    0    0  501    0  0.00000000000E+00  0.00000000000E+00  0.20601705964E+04  0.20601705964E+04  0.00000000000E+00 0.  1.
         -2   -1    0    0    0  501 -0.00000000000E+00 -0.00000000000E+00 -0.29476000164E+03  0.29476000164E+03  0.00000000000E+00 0. -1.
         23    2    1    2    0    0  0.54298342844E+03  0.55186868292E+03  0.97699130497E+03  0.12499441623E+04  0.91969299470E+02 0.  0.
         13    1    3    3    0    0  0.36122059364E+03  0.30870207970E+03  0.62506874002E+03  0.78516763880E+03  0.00000000000E+00 0.  1.
        -13    1    3    3    0    0  0.18176283480E+03  0.24316660322E+03  0.35192256495E+03  0.46477652346E+03  0.00000000000E+00 0. -1.
         22    1    1    2    0    0 -0.54298342844E+03 -0.55186868292E+03  0.78841928983E+03  0.11049864358E+04  0.00000000000E+00 0.  1.
<mgrwt>
<rscale>  0 0.15585325E+04</rscale>
<asrwt>0</asrwt>
<pdfrwt beam="1">  1        2 0.31694931E+00 0.15585325E+04</pdfrwt>
<pdfrwt beam="2">  1       -2 0.45347694E-01 0.15585325E+04</pdfrwt>
<totfact> 0.27447651E+01</totfact>
</mgrwt>
</event>
<event>
 6    1  0.4630212E-004  0.4811995E+04  0.7818608E-02  0.7858182E-01
          2   -1    0    0  501    0  0.00000000000E+00  0.00000000000E+00  0.31598885086E+04  0.31598885086E+04  0.00000000000E+00 0.  1.
         -2   -1    0    0    0  501 -0.00000000000E+00 -0.00000000000E+00 -0.18319711030E+04  0.18319711030E+04  0.00000000000E+00 0. -1.
         23    2    1    2    0    0 -0.51308014857E+02  0.19908328201E+04  0.20630966117E+04  0.28689992075E+04  0.93493281171E+02 0.  0.
         11    1    3    3    0    0 -0.65043795016E+02  0.76025122837E+03  0.78870267731E+03  0.10973898754E+04  0.00000000000E+00 0. -1.
        -11    1    3    3    0    0  0.13735780159E+02  0.12305815917E+04  0.12743939344E+04  0.17716093321E+04  0.00000000000E+00 0.  1.
         22    1    1    2    0    0  0.51308014857E+02 -0.19908328201E+04 -0.73517920614E+03  0.21228604041E+04  0.00000000000E+00 0. -1.
<mgrwt>
<rscale>  0 0.48119952E+04</rscale>
<asrwt>0</asrwt>
<pdfrwt beam="1">  1        2 0.48613669E+00 0.48119952E+04</pdfrwt>
<pdfrwt beam="2">  1       -2 0.28184171E+00 0.48119952E+04</pdfrwt>
<totfact> 0.41722517E-02</totfact>
</mgrwt>
</event>
<event>
 6    1  0.4630212E-004  0.1384631E+04  0.7818608E-02  0.8965019E-01
          2   -1    0    0  501    0  0.00000000000E+00  0.00000000000E+00  0.13535385012E+04  0.13535385012E+04  0.00000000000E+00 0.  1.
         -2   -1    0    0    0  501 -0.00000000000E+00 -0.00000000000E+00 -0.35410961199E+03  0.35410961199E+03  0.00000000000E+00 0. -1.
         23    2    1    2    0    0  0.63552090311E+02 -0.30333164448E+03 -0.25758060831E+03  0.41299687384E+03  0.90386355712E+02 0.  0.
         11    1    3    3    0    0  0.61398104072E+02 -0.11990890750E+03 -0.75003493135E+02  0.15418624213E+03  0.00000000000E+00 0.  1.
        -11    1    3    3    0    0  0.21539862397E+01 -0.18342273698E+03 -0.18257711518E+03  0.25881063170E+03  0.00000000000E+00 0. -1.
         22    1    1    2    0    0 -0.63552090311E+02  0.30333164448E+03  0.12570094975E+04  0.12946512394E+04  0.00000000000E+00 0.  1.
<mgrwt>
<rscale>  0 0.13846313E+04</rscale>
<asrwt>0</asrwt>
<pdfrwt beam="1">  1        2 0.20823669E+00 0.13846313E+04</pdfrwt>
<pdfrwt beam="2">  1       -2 0.54478403E-01 0.13846313E+04</pdfrwt>
<totfact> 0.47544283E+01</totfact>
</mgrwt>
</event>
<event>
 6    1  0.4630212E-004  0.6237278E+04  0.7818608E-02  0.7661659E-01
          2   -1    0    0  501    0  0.00000000000E+00  0.00000000000E+00  0.31040078850E+04  0.31040078850E+04  0.00000000000E+00 0.  1.
         -2   -1    0    0    0  501 -0.00000000000E+00 -0.00000000000E+00 -0.31333392484E+04  0.31333392484E+04  0.00000000000E+00 0. -1.
         23    2    1    2    0    0  0.14494120998E+04 -0.27011740539E+04  0.55358589056E+03  0.31169418344E+04  0.10831600421E+03 0.  0.
         13    1    3    3    0    0  0.10948062257E+04 -0.20730775815E+04  0.46714142854E+03  0.23904962758E+04  0.00000000000E+00 0. -1.
        -13    1    3    3    0    0  0.35460587407E+03 -0.62809647242E+03  0.86444462026E+02  0.72644555860E+03  0.00000000000E+00 0.  1.
         22    1    1    2    0    0 -0.14494120998E+04  0.27011740539E+04 -0.58291725397E+03  0.31204052989E+04  0.00000000000E+00 0. -1.
<mgrwt>
<rscale>  0 0.62372782E+04</rscale>
<asrwt>0</asrwt>
<pdfrwt beam="1">  1        2 0.47753967E+00 0.62372782E+04</pdfrwt>
<pdfrwt beam="2">  1       -2 0.48205219E+00 0.62372782E+04</pdfrwt>
<totfact> 0.21366815E-03</totfact>
</mgrwt>
</event>
<event>
 6    1  0.4630212E-004  0.1078433E+04  0.7818608E-02  0.9226471E-01
          2   -1    0    0  501    0  0.00000000000E+00  0.00000000000E+00  0.21420936596E+04  0.21420936596E+04  0.00000000000E+00 0.  1.
         -2   -1    0    0    0  501 -0.00000000000E+00 -0.00000000000E+00 -0.13573379388E+03  0.13573379388E+03  0.00000000000E+00 0. -1.
         23    2    1    2    0    0  0.33004804195E+03  0.11412168632E+03  0.15328297356E+03  0.39213144469E+03  0.91191724680E+02 0.  0.
         13    1    3    3    0    0  0.22738917912E+03  0.92667684382E+02  0.14889404777E+03  0.28716297806E+03  0.00000000000E+00 0.  1.
        -13    1    3    3    0    0  0.10265886283E+03  0.21454001934E+02  0.43889257920E+01  0.10496846663E+03  0.00000000000E+00 0. -1.
         22    1    1    2    0    0 -0.33004804195E+03 -0.11412168632E+03  0.18530768921E+04  0.18856960088E+04  0.00000000000E+00 0.  1.
<mgrwt>
<rscale>  0 0.10784331E+04</rscale>
<asrwt>0</asrwt>
<pdfrwt beam="1">  1        2 0.32955285E+00 0.10784331E+04</pdfrwt>
<pdfrwt beam="2">  1       -2 0.20882124E-01 0.10784331E+04</pdfrwt>
<totfact> 0.11003425E+02</totfact>
</mgrwt>
</event>
<event>
 6    1  0.4630212E-004  0.3453393E+04  0.7818608E-02  0.8124925E-01
         -2   -1    0    0    0  501 -0.00000000000E+00  0.00000000000E+00  0.12971945876E+04  0.12971945876E+04  0.00000000000E+00 0. -1.
          2   -1    0    0  501    0  0.00000000000E+00 -0.00000000000E+00 -0.22984073773E+04  0.22984073773E+04  0.00000000000E+00 0.  1.
         23    2    1    2    0    0  0.20781290267E+03  0.17126133240E+04 -0.46199371354E+03  0.17881208966E+04  0.87792648886E+02 0.  0.
         11    1    3    3    0    0  0.36541179983E+02  0.64898067041E+03 -0.16631747647E+03  0.67094908256E+03  0.00000000000E+00 0. -1.
        -11    1    3    3    0    0  0.17127172269E+03  0.10636326536E+04 -0.29567623707E+03  0.11171718140E+04  0.00000000000E+00 0.  1.
         22    1    1    2    0    0 -0.20781290267E+03 -0.17126133240E+04 -0.53921907616E+03  0.18074810683E+04  0.00000000000E+00 0. -1.
<mgrwt>
<rscale>  0 0.34533935E+04</rscale>
<asrwt>0</asrwt>
<pdfrwt beam="1">  1        2 0.35360113E+00 0.34533935E+04</pdfrwt>
<pdfrwt beam="2">  1       -2 0.19956840E+00 0.34533935E+04</pdfrwt>
<totfact> 0.50165212E-01</totfact>
</mgrwt>
</event>
<event>
 6    1  0.4630212E-004  0.1886928E+04  0.7818608E-02  0.8661391E-01
         -2   -1    0    0    0  501 -0.00000000000E+00  0.00000000000E+00  0.12829527044E+04  0.12829527044E+04  0.00000000000E+00 0. -1.
          2   -1    0    0  501    0  0.00000000000E+00 -0.00000000000E+00 -0.69380887989E+03  0.69380887989E+03  0.00000000000E+00 0.  1.
         23    2    1    2    0    0  0.62158629568E+03  0.34846631142E+03  0.93947138167E+03  0.11827038469E+04  0.91562105859E+02 0.  0.
         13    1    3    3    0    0  0.34313705680E+03  0.24327593269E+03  0.53721276463E+03  0.68229302624E+03  0.00000000000E+00 0.  1.
        -13    1    3    3    0    0  0.27844923888E+03  0.10519037873E+03  0.40225861703E+03  0.50041082061E+03  0.00000000000E+00 0. -1.
         22    1    1    2    0    0 -0.62158629568E+03 -0.34846631142E+03 -0.35032755711E+03  0.79405773748E+03  0.00000000000E+00 0.  1.
<mgrwt>
<rscale>  0 0.18869276E+04</rscale>
<asrwt>0</asrwt>
<pdfrwt beam="1">  1        2 0.10673983E+00 0.18869276E+04</pdfrwt>
<pdfrwt beam="2">  1       -2 0.19737734E+00 0.18869276E+04</pdfrwt>
<totfact> 0.53729511E+00</totfact>
</mgrwt>
</event>
<event>
 6    1  0.4630212E-004  0.2334959E+04  0.7818608E-02  0.8464263E-01
         -2   -1    0    0    0  501 -0.00000000000E+00  0.00000000000E+00  0.59363887655E+03  0.59363887655E+03  0.00000000000E+00 0. -1.
          2   -1    0    0  501    0  0.00000000000E+00 -0.00000000000E+00 -0.22960236232E+04  0.22960236232E+04  0.00000000000E+00 0.  1.
         23    2    1    2    0    0 -0.10164169258E+04  0.23126619796E+02 -0.14679379469E+03  0.10313026268E+04  0.91643233723E+02 0.  0.
         13    1    3    3    0    0 -0.50849517173E+03  0.39990946590E+02 -0.37212594411E+02  0.51142095446E+03  0.00000000000E+00 0. -1.
        -13    1    3    3    0    0 -0.50792175408E+03 -0.16864326794E+02 -0.10958120028E+03  0.51988167234E+03  0.00000000000E+00 0.  1.
         22    1    1    2    0    0  0.10164169258E+04 -0.23126619796E+02 -0.15555909520E+04  0.18583598730E+04  0.00000000000E+00 0.  1.
<mgrwt>
<rscale>  0 0.23349594E+04</rscale>
<asrwt>0</asrwt>
<pdfrwt beam="1">  1        2 0.35323440E+00 0.23349594E+04</pdfrwt>
<pdfrwt beam="2">  1       -2 0.91329059E-01 0.23349594E+04</pdfrwt>
<totfact> 0.42081598E+00</totfact>
</mgrwt>
</event>
<event>
 6    1  0.4630212E-004  0.1156106E+04  0.7818608E-02  0.9152168E-01
         -2   -1    0    0    0  501 -0.00000000000E+00  0.00000000000E+00  0.33702376585E+03  0.33702376585E+03  0.00000000000E+00 0. -1.
          2   -1    0    0  501    0  0.00000000000E+00 -0.00000000000E+00 -0.99145991001E+03  0.99145991001E+03  0.00000000000E+00 0.  1.
         23    2    1    2    0    0  0.27971497814E+03  0.45439546419E+03 -0.83684574574E+02  0.54715592066E+03  0.87525919684E+02 0.  0.
         13    1    3    3    0    0  0.80243377543E+02  0.87094617810E+02  0.98972716353E+01  0.11883782258E+03  0.00000000000E+00 0. -1.
        -13    1    3    3    0    0  0.19947160060E+03  0.36730084638E+03 -0.93581846209E+02  0.42831809807E+03  0.00000000000E+00 0.  1.
         22    1    1    2    0    0 -0.27971497814E+03 -0.45439546419E+03 -0.57075156958E+03  0.78132775521E+03  0.00000000000E+00 0.  1.
<mgrwt>
<rscale>  0 0.11561065E+04</rscale>
<asrwt>0</asrwt>
<pdfrwt beam="1">  1        2 0.15253229E+00 0.11561065E+04</pdfrwt>
<pdfrwt beam="2">  1       -2 0.51849810E-01 0.11561065E+04</pdfrwt>
<totfact> 0.88655519E+01</totfact>
</mgrwt>
</event>
<event>
 6    1  0.4630212E-004  0.3425829E+04  0.7818608E-02  0.8131596E-01
         -2   -1    0    0    0  501 -0.00000000000E+00  0.00000000000E+00  0.98891644447E+03  0.98891644447E+03  0.00000000000E+00 0. -1.
          2   -1    0    0  501    0  0.00000000000E+00 -0.00000000000E+00 -0.29669611656E+04  0.29669611656E+04  0.00000000000E+00 0.  1.
         23    2    1    2    0    0 -0.79567670157E+03 -0.11425874825E+03  0.75526939709E+03  0.11068141598E+04  0.91919786440E+02 0.  0.
         11    1    3    3    0    0 -0.53801388355E+03 -0.40408176990E+02  0.53595696463E+03  0.76048775638E+03  0.00000000000E+00 0.  1.
        -11    1    3    3    0    0 -0.25766281801E+03 -0.73850571255E+02  0.21931243245E+03  0.34632640340E+03  0.00000000000E+00 0. -1.
         22    1    1    2    0    0  0.79567670157E+03  0.11425874825E+03 -0.27333141182E+04  0.28490634503E+04  0.00000000000E+00 0.  1.
<mgrwt>
<rscale>  0 0.34258294E+04</rscale>
<asrwt>0</asrwt>
<pdfrwt beam="1">  1        2 0.45645556E+00 0.34258294E+04</pdfrwt>
<pdfrwt beam="2">  1       -2 0.15214099E+00 0.34258294E+04</pdfrwt>
<totfact> 0.43526136E-01</totfact>
</mgrwt>
</event>
<event>
 6    1  0.4630212E-004  0.4513958E+03  0.7818608E-02  0.1027307E+00
         -2   -1    0    0    0  501 -0.00000000000E+00  0.00000000000E+00  0.12482614970E+03  0.12482614970E+03  0.00000000000E+00 0.  1.
          2   -1    0    0  501    0  0.00000000000E+00 -0.00000000000E+00 -0.40808395894E+03  0.40808395894E+03  0.00000000000E+00 0. -1.
         23    2    1    2    0    0 -0.18979363702E+03 -0.10460675614E+03 -0.14318217046E+03  0.27486867269E+03  0.89930279682E+02 0.  0.
         13    1    3    3    0    0 -0.15732574081E+03 -0.57964647861E+02 -0.68727625305E+02  0.18120368540E+03  0.00000000000E+00 0.  1.
        -13    1    3    3    0    0 -0.32467896211E+02 -0.46642108278E+02 -0.74454545153E+02  0.93664987285E+02  0.00000000000E+00 0. -1.
         22    1    1    2    0    0  0.18979363702E+03  0.10460675614E+03 -0.14007563879E+03  0.25804143595E+03  0.00000000000E+00 0. -1.
<mgrwt>
<rscale>  0 0.45139583E+03</rscale>
<asrwt>0</asrwt>
<pdfrwt beam="1">  1        2 0.62782149E-01 0.45139583E+03</pdfrwt>
<pdfrwt beam="2">  1       -2 0.19204023E-01 0.45139583E+03</pdfrwt>
<totfact> 0.17718521E+03</totfact>
</mgrwt>
</event>
<event>
 6    1  0.5157582E-004  0.2233959E+04  0.7818608E-02  0.8504425E-01
         -2   -1    0    0    0  501 -0.00000000000E+00  0.00000000000E+00  0.48265273083E+03  0.48265273083E+03  0.00000000000E+00 0. -1.
          2   -1    0    0  501    0  0.00000000000E+00 -0.00000000000E+00 -0.25849698267E+04  0.25849698267E+04  0.00000000000E+00 0.  1.
         23    2    1    2    0    0 -0.58210083474E+03 -0.88619100518E+03 -0.15272524730E+04  0.18614404817E+04  0.91020170018E+02 0.  0.
         11    1    3    3    0    0 -0.42219116264E+03 -0.69033432921E+03 -0.11119528977E+04  0.13752258399E+04  0.00000000000E+00 0.  1.
        -11    1    3    3    0    0 -0.15990967210E+03 -0.19585667597E+03 -0.41529957526E+03  0.48621464187E+03  0.00000000000E+00 0. -1.
         22    1    1    2    0    0  0.58210083474E+03  0.88619100518E+03 -0.57506462288E+03  0.12061820758E+04  0.00000000000E+00 0. -1.
<mgrwt>
<rscale>  0 0.22339586E+04</rscale>
<asrwt>0</asrwt>
<pdfrwt beam="1">  1        2 0.39768767E+00 0.22339586E+04</pdfrwt>
<pdfrwt beam="2">  1       -2 0.74254266E-01 0.22339586E+04</pdfrwt>
<totfact> 0.46222938E+00</totfact>
</mgrwt>
</event>
<event>
 6    1  0.4630212E-004  0.2035668E+04  0.7818608E-02  0.8590124E-01
         -2   -1    0    0    0  501 -0.00000000000E+00  0.00000000000E+00  0.13227852866E+04  0.13227852866E+04  0.00000000000E+00 0. -1.
          2   -1    0    0  501    0  0.00000000000E+00 -0.00000000000E+00 -0.78318524007E+03  0.78318524007E+03  0.00000000000E+00 0.  1.
         23    2    1    2    0    0 -0.77075751154E+03  0.15488195883E+03 -0.39268369669E+03  0.88645892745E+03  0.11641899179E+03 0.  0.
         11    1    3    3    0    0 -0.20176788323E+03  0.20769775381E+02 -0.15555086662E+03  0.25561246913E+03  0.00000000000E+00 0.  1.
        -11    1    3    3    0    0 -0.56898962831E+03  0.13411218344E+03 -0.23713283008E+03  0.63084645832E+03  0.00000000000E+00 0. -1.
         22    1    1    2    0    0  0.77075751154E+03 -0.15488195883E+03  0.93228374326E+03  0.12195115992E+04  0.00000000000E+00 0. -1.
<mgrwt>
<rscale>  0 0.20356679E+04</rscale>
<asrwt>0</asrwt>
<pdfrwt beam="1">  1        2 0.12049004E+00 0.20356679E+04</pdfrwt>
<pdfrwt beam="2">  1       -2 0.20350543E+00 0.20356679E+04</pdfrwt>
<totfact> 0.41386170E+00</totfact>
</mgrwt>
</event>
<event>
 6    1  0.4630212E-004  0.2793025E+04  0.7818608E-02  0.8305437E-01
          2   -1    0    0  501    0  0.00000000000E+00  0.00000000000E+00  0.10886886213E+04  0.10886886213E+04  0.00000000000E+00 0.  1.
         -2   -1    0    0    0  501 -0.00000000000E+00 -0.00000000000E+00 -0.17913733910E+04  0.17913733910E+04  0.00000000000E+00 0. -1.
         23    2    1    2    0    0 -0.20656208955E+03  0.12497777661E+04 -0.95419208115E+03  0.15886022611E+04  0.92532452357E+02 0.  0.
         13    1    3    3    0    0 -0.18382470558E+03  0.84885838055E+03 -0.64956625209E+03  0.10845682959E+04  0.00000000000E+00 0.  1.
        -13    1    3    3    0    0 -0.22737383971E+02  0.40091938551E+03 -0.30462582905E+03  0.50403396516E+03  0.00000000000E+00 0. -1.
         22    1    1    2    0    0  0.20656208955E+03 -0.12497777661E+04  0.25150731145E+03  0.12914597512E+04  0.00000000000E+00 0.  1.
<mgrwt>
<rscale>  0 0.27930255E+04</rscale>
<asrwt>0</asrwt>
<pdfrwt beam="1">  1        2 0.16749056E+00 0.27930255E+04</pdfrwt>
<pdfrwt beam="2">  1       -2 0.27559591E+00 0.27930255E+04</pdfrwt>
<totfact> 0.86357122E-01</totfact>
</mgrwt>
</event>
<event>
 6    1  0.4630212E-004  0.4848905E+04  0.7818608E-02  0.7852247E-01
         -2   -1    0    0    0  501 -0.00000000000E+00  0.00000000000E+00  0.17577160189E+04  0.17577160189E+04  0.00000000000E+00 0. -1.
          2   -1    0    0  501    0  0.00000000000E+00 -0.00000000000E+00 -0.33440946643E+04  0.33440946643E+04  0.00000000000E+00 0.  1.
         23    2    1    2    0    0 -0.11691020159E+04 -0.68277357364E+03 -0.29085360631E+04  0.32094366416E+04  0.89007019906E+02 0.  0.
         11    1    3    3    0    0 -0.53191189372E+03 -0.28194741135E+03 -0.13795706955E+04  0.15052042750E+04  0.00000000000E+00 0. -1.
        -11    1    3    3    0    0 -0.63719012221E+03 -0.40082616229E+03 -0.15289653675E+04  0.17042323666E+04  0.00000000000E+00 0.  1.
         22    1    1    2    0    0  0.11691020159E+04  0.68277357364E+03  0.13221574177E+04  0.18923740417E+04  0.00000000000E+00 0. -1.
<mgrwt>
<rscale>  0 0.48489045E+04</rscale>
<asrwt>0</asrwt>
<pdfrwt beam="1">  1        2 0.51447610E+00 0.48489045E+04</pdfrwt>
<pdfrwt beam="2">  1       -2 0.27041785E+00 0.48489045E+04</pdfrwt>
<totfact> 0.36886772E-02</totfact>
</mgrwt>
</event>
<event>
 6    1  0.4630212E-004  0.3418679E+04  0.7818608E-02  0.8133337E-01
          2   -1    0    0  501    0  0.00000000000E+00  0.00000000000E+00  0.18572595150E+04  0.18572595150E+04  0.00000000000E+00 0.  1.
         -2   -1    0    0    0  501 -0.00000000000E+00 -0.00000000000E+00 -0.15732005763E+04  0.15732005763E+04  0.00000000000E+00 0. -1.
         23    2    1    2    0    0  0.93793064032E+03 -0.54894415656E+03  0.14642870827E+04  0.18260935356E+04  0.97094628788E+02 0.  0.
         11    1    3    3    0    0  0.42005478153E+03 -0.21069967735E+03  0.57019639927E+03  0.73889397565E+03  0.00000000000E+00 0. -1.
        -11    1    3    3    0    0  0.51787585880E+03 -0.33824447921E+03  0.89409068344E+03  0.10871995599E+04  0.00000000000E+00 0.  1.
         22    1    1    2    0    0 -0.93793064032E+03  0.54894415656E+03 -0.11802281440E+04  0.16043665557E+04  0.00000000000E+00 0. -1.
<mgrwt>
<rscale>  0 0.34186791E+04</rscale>
<asrwt>0</asrwt>
<pdfrwt beam="1">  1        2 0.28573224E+00 0.34186791E+04</pdfrwt>
<pdfrwt beam="2">  1       -2 0.24203086E+00 0.34186791E+04</pdfrwt>
<totfact> 0.47741310E-01</totfact>
</mgrwt>
</event>
<event>
 6    1  0.4839512E-004  0.5485929E+04  0.7818608E-02  0.7757628E-01
         -2   -1    0    0    0  501 -0.00000000000E+00  0.00000000000E+00  0.31099784509E+04  0.31099784509E+04  0.00000000000E+00 0. -1.
          2   -1    0    0  501    0  0.00000000000E+00 -0.00000000000E+00 -0.24192626828E+04  0.24192626828E+04  0.00000000000E+00 0.  1.
         23    2    1    2    0    0  0.10032372854E+04 -0.12995367997E+04 -0.18682578902E+04  0.24889077427E+04  0.94832815227E+02 0.  0.
         13    1    3    3    0    0  0.51779510061E+03 -0.74282642745E+03 -0.10033958672E+04  0.13515569296E+04  0.00000000000E+00 0. -1.
        -13    1    3    3    0    0  0.48544218481E+03 -0.55671037228E+03 -0.86486202300E+03  0.11373508132E+04  0.00000000000E+00 0.  1.
         22    1    1    2    0    0 -0.10032372854E+04  0.12995367997E+04  0.25589736583E+04  0.30403333910E+04  0.00000000000E+00 0. -1.
<mgrwt>
<rscale>  0 0.54859292E+04</rscale>
<asrwt>0</asrwt>
<pdfrwt beam="1">  1        2 0.37219426E+00 0.54859292E+04</pdfrwt>
<pdfrwt beam="2">  1       -2 0.47845822E+00 0.54859292E+04</pdfrwt>
<totfact> 0.61759353E-03</totfact>
</mgrwt>
</event>
<event>
 6    1  0.4630212E-004  0.3658658E+04  0.7818608E-02  0.8077186E-01
         -2   -1    0    0    0  501 -0.00000000000E+00  0.00000000000E+00  0.98567631950E+03  0.98567631950E+03  0.00000000000E+00 0. -1.
          2   -1    0    0  501    0  0.00000000000E+00 -0.00000000000E+00 -0.33950741378E+04  0.33950741378E+04  0.00000000000E+00 0.  1.
         23    2    1    2    0    0  0.84015609526E+03 -0.27498435913E+03  0.71057567924E+03  0.11379564016E+04  0.92457092269E+02 0.  0.
         13    1    3    3    0    0  0.18509748749E+03 -0.32411702765E+02  0.11759177079E+03  0.22167413676E+03  0.00000000000E+00 0. -1.
        -13    1    3    3    0    0  0.65505860777E+03 -0.24257265637E+03  0.59298390845E+03  0.91628226487E+03  0.00000000000E+00 0.  1.
         22    1    1    2    0    0 -0.84015609526E+03  0.27498435913E+03 -0.31199734975E+04  0.32427940557E+04  0.00000000000E+00 0.  1.
<mgrwt>
<rscale>  0 0.36586578E+04</rscale>
<asrwt>0</asrwt>
<pdfrwt beam="1">  1        2 0.52231909E+00 0.36586578E+04</pdfrwt>
<pdfrwt beam="2">  1       -2 0.15164251E+00 0.36586578E+04</pdfrwt>
<totfact> 0.22651303E-01</totfact>
</mgrwt>
</event>
<event>
 6    1  0.4630212E-004  0.1757185E+04  0.7818608E-02  0.8729405E-01
          2   -1    0    0  501    0  0.00000000000E+00  0.00000000000E+00  0.12097833165E+04  0.12097833165E+04  0.00000000000E+00 0.  1.
         -2   -1    0    0    0  501 -0.00000000000E+00 -0.00000000000E+00 -0.63806839158E+03  0.63806839158E+03  0.00000000000E+00 0. -1.
         23    2    1    2    0    0 -0.56517303612E+03  0.51348225401E+03  0.73866213447E+03  0.10662149915E+04  0.90044840134E+02 0.  0.
         11    1    3    3    0    0 -0.22094486930E+03  0.20400270954E+03  0.23103180687E+03  0.37922214670E+03  0.00000000000E+00 0. -1.
        -11    1    3    3    0    0 -0.34422816682E+03  0.30947954447E+03  0.50763032760E+03  0.68699284478E+03  0.00000000000E+00 0.  1.
         22    1    1    2    0    0  0.56517303612E+03 -0.51348225401E+03 -0.16694720956E+03  0.78163671658E+03  0.00000000000E+00 0. -1.
<mgrwt>
<rscale>  0 0.17571847E+04</rscale>
<asrwt>0</asrwt>
<pdfrwt beam="1">  1        2 0.18612051E+00 0.17571847E+04</pdfrwt>
<pdfrwt beam="2">  1       -2 0.98164369E-01 0.17571847E+04</pdfrwt>
<totfact> 0.15279402E+01</totfact>
</mgrwt>
</event>
<event>
 6    1  0.4630212E-004  0.2085299E+04  0.7818608E-02  0.8567747E-01
         -2   -1    0    0    0  501 -0.00000000000E+00  0.00000000000E+00  0.38049080483E+03  0.38049080483E+03  0.00000000000E+00 0. -1.
          2   -1    0    0  501    0  0.00000000000E+00 -0.00000000000E+00 -0.28571473920E+04  0.28571473920E+04  0.00000000000E+00 0.  1.
         23    2    1    2    0    0 -0.78588388943E+03 -0.65048111138E+03 -0.92226120252E+03  0.13783684004E+04  0.92706837530E+02 0.  0.
         11    1    3    3    0    0 -0.31634798611E+03 -0.32102229290E+03 -0.41423403028E+03  0.61214474815E+03  0.00000000000E+00 0.  1.
        -11    1    3    3    0    0 -0.46953590332E+03 -0.32945881848E+03 -0.50802717224E+03  0.76622365228E+03  0.00000000000E+00 0. -1.
         22    1    1    2    0    0  0.78588388943E+03  0.65048111138E+03 -0.15543953847E+04  0.18592697964E+04  0.00000000000E+00 0. -1.
<mgrwt>
<rscale>  0 0.20852993E+04</rscale>
<asrwt>0</asrwt>
<pdfrwt beam="1">  1        2 0.43956113E+00 0.20852993E+04</pdfrwt>
<pdfrwt beam="2">  1       -2 0.58537048E-01 0.20852993E+04</pdfrwt>
<totfact> 0.53806153E+00</totfact>
</mgrwt>
</event>
<event>
 6    1  0.4630212E-004  0.3930256E+04  0.7818608E-02  0.8018766E-01
          2   -1    0    0  501    0  0.00000000000E+00  0.00000000000E+00  0.26470198800E+04  0.26470198800E+04  0.00000000000E+00 0.  1.
         -2   -1    0    0    0  501 -0.00000000000E+00 -0.00000000000E+00 -0.14588965276E+04  0.14588965276E+04  0.00000000000E+00 0. -1.
         23    2    1    2    0    0  0.74972201441E+03 -0.38265193076E+02 -0.13020504274E+04  0.15050487106E+04  0.79303099949E+02 0.  0.
         11    1    3    3    0    0  0.52190079283E+03 -0.21061562489E+02 -0.83111776704E+03  0.98162150020E+03  0.00000000000E+00 0.  1.
        -11    1    3    3    0    0  0.22782122158E+03 -0.17203630587E+02 -0.47093266041E+03  0.52342721036E+03  0.00000000000E+00 0. -1.
         22    1    1    2    0    0 -0.74972201441E+03  0.38265193076E+02  0.24901737799E+04  0.26008676971E+04  0.00000000000E+00 0. -1.
<mgrwt>
<rscale>  0 0.39302560E+04</rscale>
<asrwt>0</asrwt>
<pdfrwt beam="1">  1        2 0.40723383E+00 0.39302560E+04</pdfrwt>
<pdfrwt beam="2">  1       -2 0.22444562E+00 0.39302560E+04</pdfrwt>
<totfact> 0.20981479E-01</totfact>
</mgrwt>
</event>
<event>
 6    1  0.7388617E-004  0.4462489E+04  0.7818608E-02  0.7917237E-01
          2   -1    0    0  501    0  0.00000000000E+00  0.00000000000E+00  0.26697389511E+04  0.26697389511E+04  0.00000000000E+00 0.  1.
         -2   -1    0    0    0  501 -0.00000000000E+00 -0.00000000000E+00 -0.18647712007E+04  0.18647712007E+04  0.00000000000E+00 0. -1.
         23    2    1    2    0    0 -0.84435598848E+03  0.23539252847E+03 -0.16812817549E+04  0.18982659901E+04  0.91426210055E+02 0.  0.
         13    1    3    3    0    0 -0.58038075350E+03  0.18994941735E+03 -0.10972504184E+04  0.12557392567E+04  0.00000000000E+00 0.  1.
        -13    1    3    3    0    0 -0.26397523497E+03  0.45443111116E+02 -0.58403133655E+03  0.64252673337E+03  0.00000000000E+00 0. -1.
         22    1    1    2    0    0  0.84435598848E+03 -0.23539252847E+03  0.24862495053E+04  0.26362441617E+04  0.00000000000E+00 0.  1.
<mgrwt>
<rscale>  0 0.44624891E+04</rscale>
<asrwt>0</asrwt>
<pdfrwt beam="1">  1        2 0.41072907E+00 0.44624891E+04</pdfrwt>
<pdfrwt beam="2">  1       -2 0.28688788E+00 0.44624891E+04</pdfrwt>
<totfact> 0.80407988E-02</totfact>
</mgrwt>
</event>
<event>
 6    1  0.4630212E-004  0.8698951E+03  0.7818608E-02  0.9464017E-01
         -2   -1    0    0    0  501 -0.00000000000E+00  0.00000000000E+00  0.36313917872E+03  0.36313917872E+03  0.00000000000E+00 0. -1.
          2   -1    0    0  501    0  0.00000000000E+00 -0.00000000000E+00 -0.52095559847E+03  0.52095559847E+03  0.00000000000E+00 0.  1.
         23    2    1    2    0    0 -0.19881119569E+03 -0.15040326650E+03 -0.43612559339E+03  0.51045988824E+03  0.90646181297E+02 0.  0.
         13    1    3    3    0    0 -0.25460286973E+02 -0.67240728577E+02 -0.14016874459E+03  0.15753354802E+03  0.00000000000E+00 0. -1.
        -13    1    3    3    0    0 -0.17335090872E+03 -0.83162537927E+02 -0.29595684881E+03  0.35292634022E+03  0.00000000000E+00 0.  1.
         22    1    1    2    0    0  0.19881119569E+03  0.15040326650E+03  0.27830917364E+03  0.37363488895E+03  0.00000000000E+00 0. -1.
<mgrwt>
<rscale>  0 0.86989514E+03</rscale>
<asrwt>0</asrwt>
<pdfrwt beam="1">  1        2 0.80147014E-01 0.86989514E+03</pdfrwt>
<pdfrwt beam="2">  1       -2 0.55867567E-01 0.86989514E+03</pdfrwt>
<totfact> 0.17749683E+02</totfact>
</mgrwt>
</event>
<event>
 6    1  0.4630212E-004  0.2150101E+04  0.7818608E-02  0.8539489E-01
         -2   -1    0    0    0  501 -0.00000000000E+00  0.00000000000E+00  0.76640751414E+03  0.76640751414E+03  0.00000000000E+00 0. -1.
          2   -1    0    0  501    0  0.00000000000E+00 -0.00000000000E+00 -0.15079884459E+04  0.15079884459E+04  0.00000000000E+00 0.  1.
         23    2    1    2    0    0  0.51930640913E+03  0.71679292295E+03  0.27029152998E+03  0.93001613283E+03  0.91658361329E+02 0.  0.
         11    1    3    3    0    0  0.45941174203E+03  0.64341234228E+03  0.21099214403E+03  0.81826418458E+03  0.00000000000E+00 0. -1.
        -11    1    3    3    0    0  0.59894667101E+02  0.73380580664E+02  0.59299385946E+02  0.11175194826E+03  0.00000000000E+00 0.  1.
         22    1    1    2    0    0 -0.51930640913E+03 -0.71679292295E+03 -0.10118724617E+04  0.13443798272E+04  0.00000000000E+00 0.  1.
<mgrwt>
<rscale>  0 0.21501011E+04</rscale>
<asrwt>0</asrwt>
<pdfrwt beam="1">  1        2 0.23199822E+00 0.21501011E+04</pdfrwt>
<pdfrwt beam="2">  1       -2 0.11790885E+00 0.21501011E+04</pdfrwt>
<totfact> 0.63959507E+00</totfact>
</mgrwt>
</event>
<event>
 6    1  0.4630212E-004  0.9320982E+03  0.7818608E-02  0.9386323E-01
          2   -1    0    0  501    0  0.00000000000E+00  0.00000000000E+00  0.13701486914E+04  0.13701486914E+04  0.00000000000E+00 0.  1.
         -2   -1    0    0    0  501 -0.00000000000E+00 -0.00000000000E+00 -0.15852423427E+03  0.15852423427E+03  0.00000000000E+00 0. -1.
         23    2    1    2    0    0  0.29922789497E+03  0.19659648516E+03  0.10890055352E+04  0.11502248961E+04  0.94322556865E+02 0.  0.
         11    1    3    3    0    0  0.99372420602E+02  0.78435426694E+02  0.53024517648E+03  0.54514854977E+03  0.00000000000E+00 0. -1.
        -11    1    3    3    0    0  0.19985547437E+03  0.11816105847E+03  0.55876035874E+03  0.60507634632E+03  0.00000000000E+00 0.  1.
         22    1    1    2    0    0 -0.29922789497E+03 -0.19659648516E+03  0.12261892195E+03  0.37844802962E+03  0.00000000000E+00 0. -1.
<mgrwt>
<rscale>  0 0.93209822E+03</rscale>
<asrwt>0</asrwt>
<pdfrwt beam="1">  1        2 0.21079210E+00 0.93209822E+03</pdfrwt>
<pdfrwt beam="2">  1       -2 0.24388345E-01 0.93209822E+03</pdfrwt>
<totfact> 0.22593892E+02</totfact>
</mgrwt>
</event>
<event>
 6    1  0.4630212E-004  0.3448417E+04  0.7818608E-02  0.8126124E-01
         -2   -1    0    0    0  501 -0.00000000000E+00  0.00000000000E+00  0.80995904974E+03  0.80995904974E+03  0.00000000000E+00 0. -1.
          2   -1    0    0  501    0  0.00000000000E+00 -0.00000000000E+00 -0.36704261420E+04  0.36704261420E+04  0.00000000000E+00 0.  1.
         23    2    1    2    0    0 -0.46561091814E+03  0.97667286464E+03 -0.31734268814E+04  0.33540516527E+04  0.91328562042E+02 0.  0.
         11    1    3    3    0    0 -0.40646922219E+02  0.73873036931E+02 -0.18165523635E+03  0.20026987483E+03  0.00000000000E+00 0.  1.
        -11    1    3    3    0    0 -0.42496399592E+03  0.90279982771E+03 -0.29917716450E+04  0.31537817779E+04  0.00000000000E+00 0. -1.
         22    1    1    2    0    0  0.46561091814E+03 -0.97667286464E+03  0.31295978906E+03  0.11263335390E+04  0.00000000000E+00 0. -1.
<mgrwt>
<rscale>  0 0.34484170E+04</rscale>
<asrwt>0</asrwt>
<pdfrwt beam="1">  1        2 0.56468095E+00 0.34484170E+04</pdfrwt>
<pdfrwt beam="2">  1       -2 0.12460908E+00 0.34484170E+04</pdfrwt>
<totfact> 0.24427393E-01</totfact>
</mgrwt>
</event>
<event>
 6    1  0.4630212E-004  0.1641237E+04  0.7818608E-02  0.8795607E-01
         -2   -1    0    0    0  501 -0.00000000000E+00  0.00000000000E+00  0.33435269185E+03  0.33435269185E+03  0.00000000000E+00 0. -1.
          2   -1    0    0  501    0  0.00000000000E+00 -0.00000000000E+00 -0.20140852723E+04  0.20140852723E+04  0.00000000000E+00 0.  1.
         23    2    1    2    0    0  0.12503322176E+03  0.38892331163E+03  0.17026532023E+03  0.45387023473E+03  0.10056471461E+03 0.  0.
         13    1    3    3    0    0  0.66268760692E+02  0.79764012368E+02  0.22050665360E+02  0.10601923484E+03  0.00000000000E+00 0. -1.
        -13    1    3    3    0    0  0.58764461066E+02  0.30915929927E+03  0.14821465487E+03  0.34785099989E+03  0.00000000000E+00 0.  1.
         22    1    1    2    0    0 -0.12503322176E+03 -0.38892331163E+03 -0.18499979007E+04  0.18945677294E+04  0.00000000000E+00 0.  1.
<mgrwt>
<rscale>  0 0.16412371E+04</rscale>
<asrwt>0</asrwt>
<pdfrwt beam="1">  1        2 0.30985927E+00 0.16412371E+04</pdfrwt>
<pdfrwt beam="2">  1       -2 0.51438876E-01 0.16412371E+04</pdfrwt>
<totfact> 0.22400080E+01</totfact>
</mgrwt>
</event>
<event>
 6    1  0.4630212E-004  0.4099263E+04  0.7818608E-02  0.7984816E-01
         -2   -1    0    0    0  501 -0.00000000000E+00  0.00000000000E+00  0.12872357533E+04  0.12872357533E+04  0.00000000000E+00 0.  1.
          2   -1    0    0  501    0  0.00000000000E+00 -0.00000000000E+00 -0.32635743558E+04  0.32635743558E+04  0.00000000000E+00 0. -1.
         23    2    1    2    0    0  0.16448153038E+04 -0.75595795982E+03 -0.20535138983E+04  0.27389475738E+04  0.89580471786E+02 0.  0.
         13    1    3    3    0    0  0.10257062921E+04 -0.51803906013E+03 -0.12896169340E+04  0.17272954877E+04  0.00000000000E+00 0. -1.
        -13    1    3    3    0    0  0.61910901171E+03 -0.23791889969E+03 -0.76389696432E+03  0.10116520861E+04  0.00000000000E+00 0.  1.
         22    1    1    2    0    0 -0.16448153038E+04  0.75595795982E+03  0.77175295757E+02  0.18118625353E+04  0.00000000000E+00 0.  1.
<mgrwt>
<rscale>  0 0.40992632E+04</rscale>
<asrwt>0</asrwt>
<pdfrwt beam="1">  1        2 0.50208836E+00 0.40992632E+04</pdfrwt>
<pdfrwt beam="2">  1       -2 0.19803627E+00 0.40992632E+04</pdfrwt>
<totfact> 0.12614537E-01</totfact>
</mgrwt>
</event>
<event>
 6    1  0.4630212E-004  0.3688997E+04  0.7818608E-02  0.8070405E-01
          2   -1    0    0  501    0  0.00000000000E+00  0.00000000000E+00  0.12496295890E+04  0.12496295890E+04  0.00000000000E+00 0.  1.
         -2   -1    0    0    0  501 -0.00000000000E+00 -0.00000000000E+00 -0.27225458669E+04  0.27225458669E+04  0.00000000000E+00 0. -1.
         23    2    1    2    0    0 -0.84985835798E+03 -0.10397159395E+04 -0.20966653370E+04  0.24915231158E+04  0.91724794534E+02 0.  0.
         13    1    3    3    0    0 -0.54459416663E+03 -0.59539341617E+03 -0.12515371393E+04  0.14891008486E+04  0.00000000000E+00 0. -1.
        -13    1    3    3    0    0 -0.30526419135E+03 -0.44432252332E+03 -0.84512819771E+03  0.10024222672E+04  0.00000000000E+00 0.  1.
         22    1    1    2    0    0  0.84985835798E+03  0.10397159395E+04  0.62374905910E+03  0.14806523401E+04  0.00000000000E+00 0. -1.
<mgrwt>
<rscale>  0 0.36889965E+04</rscale>
<asrwt>0</asrwt>
<pdfrwt beam="1">  1        2 0.19225071E+00 0.36889965E+04</pdfrwt>
<pdfrwt beam="2">  1       -2 0.41885321E+00 0.36889965E+04</pdfrwt>
<totfact> 0.79825960E-02</totfact>
</mgrwt>
</event>
<event>
 6    1  0.4630212E-004  0.1910457E+04  0.7818608E-02  0.8649669E-01
         -2   -1    0    0    0  501 -0.00000000000E+00  0.00000000000E+00  0.22486298331E+04  0.22486298331E+04  0.00000000000E+00 0. -1.
          2   -1    0    0  501    0  0.00000000000E+00 -0.00000000000E+00 -0.40578557008E+03  0.40578557008E+03  0.00000000000E+00 0.  1.
         23    2    1    2    0    0  0.12335405619E+03 -0.47776087682E+03 -0.20945414264E+03  0.54363345695E+03  0.90524135173E+02 0.  0.
         13    1    3    3    0    0  0.53100799196E+02 -0.70662372191E+02 -0.42146102737E+02  0.97924254885E+02  0.00000000000E+00 0. -1.
        -13    1    3    3    0    0  0.70253256993E+02 -0.40709850463E+03 -0.16730803991E+03  0.44570920207E+03  0.00000000000E+00 0.  1.
         22    1    1    2    0    0 -0.12335405619E+03  0.47776087682E+03  0.20522984056E+04  0.21107819462E+04  0.00000000000E+00 0. -1.
<mgrwt>
<rscale>  0 0.19104571E+04</rscale>
<asrwt>0</asrwt>
<pdfrwt beam="1">  1        2 0.62428551E-01 0.19104571E+04</pdfrwt>
<pdfrwt beam="2">  1       -2 0.34594304E+00 0.19104571E+04</pdfrwt>
<totfact> 0.12114869E+00</totfact>
</mgrwt>
</event>
<event>
 6    1  0.4630212E-004  0.3207270E+04  0.7818608E-02  0.8186900E-01
          2   -1    0    0  501    0  0.00000000000E+00  0.00000000000E+00  0.11066792488E+04  0.11066792488E+04  0.00000000000E+00 0.  1.
         -2   -1    0    0    0  501 -0.00000000000E+00 -0.00000000000E+00 -0.23237500403E+04  0.23237500403E+04  0.00000000000E+00 0. -1.
         23    2    1    2    0    0  0.12297276313E+04 -0.10271330637E+04 -0.62666557168E+03  0.17228547808E+04  0.91030101978E+02 0.  0.
         11    1    3    3    0    0  0.93951791676E+03 -0.73416180701E+03 -0.47485285208E+03  0.12834222633E+04  0.00000000000E+00 0.  1.
        -11    1    3    3    0    0  0.29020971450E+03 -0.29297125669E+03 -0.15181271960E+03  0.43943251753E+03  0.00000000000E+00 0. -1.
         22    1    1    2    0    0 -0.12297276313E+04  0.10271330637E+04 -0.59040521986E+03  0.17075745083E+04  0.00000000000E+00 0. -1.
<mgrwt>
<rscale>  0 0.32072705E+04</rscale>
<asrwt>0</asrwt>
<pdfrwt beam="1">  1        2 0.17025835E+00 0.32072705E+04</pdfrwt>
<pdfrwt beam="2">  1       -2 0.35750001E+00 0.32072705E+04</pdfrwt>
<totfact> 0.25319932E-01</totfact>
</mgrwt>
</event>
<event>
 6    1  0.4630212E-004  0.2997638E+04  0.7818608E-02  0.8244406E-01
          2   -1    0    0  501    0  0.00000000000E+00  0.00000000000E+00  0.39659546800E+04  0.39659546800E+04  0.00000000000E+00 0.  1.
         -2   -1    0    0    0  501 -0.00000000000E+00 -0.00000000000E+00 -0.56643580848E+03  0.56643580848E+03  0.00000000000E+00 0. -1.
         23    2    1    2    0    0  0.60251921599E+03  0.28817342426E+03  0.37277696259E+04  0.37881983857E+04  0.90040531054E+02 0.  0.
         11    1    3    3    0    0  0.26411998850E+03  0.15221691994E+03  0.19146049750E+04  0.19387216328E+04  0.00000000000E+00 0. -1.
        -11    1    3    3    0    0  0.33839922749E+03  0.13595650433E+03  0.18131646509E+04  0.18494767529E+04  0.00000000000E+00 0.  1.
         22    1    1    2    0    0 -0.60251921599E+03 -0.28817342426E+03 -0.32825075442E+03  0.74419210279E+03  0.00000000000E+00 0. -1.
<mgrwt>
<rscale>  0 0.29976382E+04</rscale>
<asrwt>0</asrwt>
<pdfrwt beam="1">  1        2 0.61014686E+00 0.29976382E+04</pdfrwt>
<pdfrwt beam="2">  1       -2 0.87143973E-01 0.29976382E+04</pdfrwt>
<totfact> 0.35493141E-01</totfact>
</mgrwt>
</event>
<event>
 6    1  0.4630212E-004  0.2719671E+04  0.7818608E-02  0.8328651E-01
          2   -1    0    0  501    0  0.00000000000E+00  0.00000000000E+00  0.24475851227E+04  0.24475851227E+04  0.00000000000E+00 0.  1.
         -2   -1    0    0    0  501 -0.00000000000E+00 -0.00000000000E+00 -0.75550061646E+03  0.75550061646E+03  0.00000000000E+00 0. -1.
         23    2    1    2    0    0 -0.34818222068E+03  0.11961669094E+04  0.14843947349E+04  0.19400809193E+04  0.91870072772E+02 0.  0.
         11    1    3    3    0    0 -0.77811083346E+02  0.23148774186E+03  0.34772236927E+03  0.42491409180E+03  0.00000000000E+00 0. -1.
        -11    1    3    3    0    0 -0.27037113733E+03  0.96467916753E+03  0.11366723657E+04  0.15151668275E+04  0.00000000000E+00 0.  1.
         22    1    1    2    0    0  0.34818222068E+03 -0.11961669094E+04  0.20768977129E+03  0.12630048199E+04  0.00000000000E+00 0.  1.
<mgrwt>
<rscale>  0 0.27196706E+04</rscale>
<asrwt>0</asrwt>
<pdfrwt beam="1">  1        2 0.37655155E+00 0.27196706E+04</pdfrwt>
<pdfrwt beam="2">  1       -2 0.11623087E+00 0.27196706E+04</pdfrwt>
<totfact> 0.18778900E+00</totfact>
</mgrwt>
</event>
<event>
 6    1  0.4630212E-004  0.1915800E+04  0.7818608E-02  0.8647031E-01
          2   -1    0    0  501    0  0.00000000000E+00  0.00000000000E+00  0.26605453132E+04  0.26605453132E+04  0.00000000000E+00 0.  1.
         -2   -1    0    0    0  501 -0.00000000000E+00 -0.00000000000E+00 -0.34488148259E+03  0.34488148259E+03  0.00000000000E+00 0. -1.
         23    2    1    2    0    0 -0.68420440871E+03  0.90487291454E+02  0.21976359531E+04  0.23052452460E+04  0.90709640436E+02 0.  0.
         13    1    3    3    0    0 -0.26547244167E+03  0.35172362912E+02  0.10033417758E+04  0.10384639770E+04  0.00000000000E+00 0.  1.
        -13    1    3    3    0    0 -0.41873196704E+03  0.55314928541E+02  0.11942941773E+04  0.12667812690E+04  0.00000000000E+00 0. -1.
         22    1    1    2    0    0  0.68420440871E+03 -0.90487291454E+02  0.11802787748E+03  0.70018154980E+03  0.00000000000E+00 0.  1.
<mgrwt>
<rscale>  0 0.19158004E+04</rscale>
<asrwt>0</asrwt>
<pdfrwt beam="1">  1        2 0.40931465E+00 0.19158004E+04</pdfrwt>
<pdfrwt beam="2">  1       -2 0.53058691E-01 0.19158004E+04</pdfrwt>
<totfact> 0.87934015E+00</totfact>
</mgrwt>
</event>
<event>
 6    1  0.4630212E-004  0.1871472E+04  0.7818608E-02  0.8669189E-01
         -2   -1    0    0    0  501 -0.00000000000E+00  0.00000000000E+00  0.64207474342E+03  0.64207474342E+03  0.00000000000E+00 0. -1.
          2   -1    0    0  501    0  0.00000000000E+00 -0.00000000000E+00 -0.13637065297E+04  0.13637065297E+04  0.00000000000E+00 0.  1.
         23    2    1    2    0    0  0.16466749541E+03 -0.89805742170E+03 -0.15330874332E+03  0.93032155845E+03  0.91499260238E+02 0.  0.
         13    1    3    3    0    0  0.93060194870E+02 -0.33756593016E+03 -0.91415736609E+02  0.36189472775E+03  0.00000000000E+00 0.  1.
        -13    1    3    3    0    0  0.71607300538E+02 -0.56049149154E+03 -0.61893006708E+02  0.56842683069E+03  0.00000000000E+00 0. -1.
         22    1    1    2    0    0 -0.16466749541E+03  0.89805742170E+03 -0.56832304293E+03  0.10754597146E+04  0.00000000000E+00 0. -1.
<mgrwt>
<rscale>  0 0.18714716E+04</rscale>
<asrwt>0</asrwt>
<pdfrwt beam="1">  1        2 0.20980100E+00 0.18714716E+04</pdfrwt>
<pdfrwt beam="2">  1       -2 0.98780731E-01 0.18714716E+04</pdfrwt>
<totfact> 0.12120625E+01</totfact>
</mgrwt>
</event>
<event>
 6    1  0.4630212E-004  0.3653243E+04  0.7818608E-02  0.8078403E-01
         -2   -1    0    0    0  501 -0.00000000000E+00  0.00000000000E+00  0.10299776106E+04  0.10299776106E+04  0.00000000000E+00 0. -1.
          2   -1    0    0  501    0  0.00000000000E+00 -0.00000000000E+00 -0.32394359860E+04  0.32394359860E+04  0.00000000000E+00 0.  1.
         23    2    1    2    0    0 -0.33054719826E+03 -0.97823832577E+03  0.65390621682E+03  0.12255561000E+04  0.90458506768E+02 0.  0.
         13    1    3    3    0    0 -0.10651100963E+03 -0.44493698533E+03  0.26858089227E+03  0.53051787131E+03  0.00000000000E+00 0.  1.
        -13    1    3    3    0    0 -0.22403618863E+03 -0.53330134044E+03  0.38532532456E+03  0.69503822864E+03  0.00000000000E+00 0. -1.
         22    1    1    2    0    0  0.33054719826E+03  0.97823832577E+03 -0.28633645922E+04  0.30438574967E+04  0.00000000000E+00 0.  1.
<mgrwt>
<rscale>  0 0.36532432E+04</rscale>
<asrwt>0</asrwt>
<pdfrwt beam="1">  1        2 0.49837476E+00 0.36532432E+04</pdfrwt>
<pdfrwt beam="2">  1       -2 0.15845810E+00 0.36532432E+04</pdfrwt>
<totfact> 0.25612265E-01</totfact>
</mgrwt>
</event>
<event>
 6    1  0.4630212E-004  0.2793456E+04  0.7818608E-02  0.8305303E-01
          2   -1    0    0  501    0  0.00000000000E+00  0.00000000000E+00  0.16424196261E+04  0.16424196261E+04  0.00000000000E+00 0.  1.
         -2   -1    0    0    0  501 -0.00000000000E+00 -0.00000000000E+00 -0.11877895882E+04  0.11877895882E+04  0.00000000000E+00 0. -1.
         23    2    1    2    0    0  0.94727482085E+03 -0.81440194268E+03  0.85696698051E+03  0.15177858352E+04  0.93280895138E+02 0.  0.
         13    1    3    3    0    0  0.55183964079E+03 -0.50304662919E+03  0.56036462175E+03  0.93359060063E+03  0.00000000000E+00 0. -1.
        -13    1    3    3    0    0  0.39543518006E+03 -0.31135531349E+03  0.29660235876E+03  0.58419523457E+03  0.00000000000E+00 0.  1.
         22    1    1    2    0    0 -0.94727482085E+03  0.81440194268E+03 -0.40233694263E+03  0.13124233790E+04  0.00000000000E+00 0. -1.
<mgrwt>
<rscale>  0 0.27934559E+04</rscale>
<asrwt>0</asrwt>
<pdfrwt beam="1">  1        2 0.25267994E+00 0.27934559E+04</pdfrwt>
<pdfrwt beam="2">  1       -2 0.18273686E+00 0.27934559E+04</pdfrwt>
<totfact> 0.15964024E+00</totfact>
</mgrwt>
</event>
<event>
 6    1  0.4630212E-004  0.1684781E+04  0.7818608E-02  0.8770092E-01
         -2   -1    0    0    0  501 -0.00000000000E+00  0.00000000000E+00  0.16155042612E+04  0.16155042612E+04  0.00000000000E+00 0.  1.
          2   -1    0    0  501    0  0.00000000000E+00 -0.00000000000E+00 -0.43925725545E+03  0.43925725545E+03  0.00000000000E+00 0. -1.
         23    2    1    2    0    0 -0.41011745435E+03 -0.20208671610E+03  0.14491074528E+04  0.15223254259E+04  0.92341353749E+02 0.  0.
         13    1    3    3    0    0 -0.59914955473E+02 -0.34530181397E+02  0.34744095962E+03  0.35425605957E+03  0.00000000000E+00 0.  1.
        -13    1    3    3    0    0 -0.35020249888E+03 -0.16755653470E+03  0.11016664931E+04  0.11680693664E+04  0.00000000000E+00 0. -1.
         22    1    1    2    0    0  0.41011745435E+03  0.20208671610E+03 -0.27286044699E+03  0.53243609074E+03  0.00000000000E+00 0. -1.
<mgrwt>
<rscale>  0 0.16847813E+04</rscale>
<asrwt>0</asrwt>
<pdfrwt beam="1">  1        2 0.67578040E-01 0.16847813E+04</pdfrwt>
<pdfrwt beam="2">  1       -2 0.24853912E+00 0.16847813E+04</pdfrwt>
<totfact> 0.44689725E+00</totfact>
</mgrwt>
</event>
<event>
 6    1  0.4630212E-004  0.1662941E+04  0.7818608E-02  0.8782787E-01
          4   -1    0    0  501    0  0.00000000000E+00  0.00000000000E+00  0.16212344154E+04  0.16212344154E+04  0.00000000000E+00 0.  1.
         -4   -1    0    0    0  501 -0.00000000000E+00 -0.00000000000E+00 -0.42643012974E+03  0.42643012974E+03  0.00000000000E+00 0. -1.
         23    2    1    2    0    0  0.75315919265E+03 -0.25758822241E+03  0.31395625701E+03  0.86044354153E+03  0.90521240888E+02 0.  0.
         13    1    3    3    0    0  0.57307675137E+03 -0.19927237462E+03  0.19689855925E+03  0.63788359822E+03  0.00000000000E+00 0. -1.
        -13    1    3    3    0    0  0.18008244128E+03 -0.58315847791E+02  0.11705769776E+03  0.22255994331E+03  0.00000000000E+00 0.  1.
         22    1    1    2    0    0 -0.75315919265E+03  0.25758822241E+03  0.88084802863E+03  0.11872210036E+04  0.00000000000E+00 0.  1.
<mgrwt>
<rscale>  0 0.16629410E+04</rscale>
<asrwt>0</asrwt>
<pdfrwt beam="1">  1        4 0.24942068E+00 0.16629410E+04</pdfrwt>
<pdfrwt beam="2">  1       -4 0.65604636E-01 0.16629410E+04</pdfrwt>
<totfact> 0.26294852E-01</totfact>
</mgrwt>
</event>
<event>
 6    1  0.4630212E-004  0.1881309E+04  0.7818608E-02  0.8664216E-01
          2   -1    0    0  501    0  0.00000000000E+00  0.00000000000E+00  0.54070476656E+03  0.54070476656E+03  0.00000000000E+00 0.  1.
         -2   -1    0    0    0  501 -0.00000000000E+00 -0.00000000000E+00 -0.16364407834E+04  0.16364407834E+04  0.00000000000E+00 0. -1.
         23    2    1    2    0    0  0.52871436973E+03  0.48741844443E+03 -0.12468575354E+04  0.14423303772E+04  0.92453116473E+02 0.  0.
         11    1    3    3    0    0  0.76980965714E+02  0.11834662949E+03 -0.22200982754E+03  0.26309761937E+03  0.00000000000E+00 0.  1.
        -11    1    3    3    0    0  0.45173340401E+03  0.36907181494E+03 -0.10248477078E+04  0.11792327578E+04  0.00000000000E+00 0. -1.
         22    1    1    2    0    0 -0.52871436973E+03 -0.48741844443E+03  0.15112151855E+03  0.73481517275E+03  0.00000000000E+00 0.  1.
<mgrwt>
<rscale>  0 0.18813095E+04</rscale>
<asrwt>0</asrwt>
<pdfrwt beam="1">  1        2 0.83185348E-01 0.18813095E+04</pdfrwt>
<pdfrwt beam="2">  1       -2 0.25176012E+00 0.18813095E+04</pdfrwt>
<totfact> 0.33022556E+00</totfact>
</mgrwt>
</event>
<event>
 6    1  0.4630212E-004  0.1536180E+04  0.7818608E-02  0.8860744E-01
         -2   -1    0    0    0  501 -0.00000000000E+00  0.00000000000E+00  0.39700869826E+03  0.39700869826E+03  0.00000000000E+00 0. -1.
          2   -1    0    0  501    0  0.00000000000E+00 -0.00000000000E+00 -0.14860181315E+04  0.14860181315E+04  0.00000000000E+00 0.  1.
         23    2    1    2    0    0  0.54097377230E+03  0.67932507667E+02 -0.12050550897E+04  0.13255915938E+04  0.88135442929E+02 0.  0.
         11    1    3    3    0    0  0.26362191427E+03  0.74798915766E+02 -0.63524787865E+03  0.69183181396E+03  0.00000000000E+00 0. -1.
        -11    1    3    3    0    0  0.27735185803E+03 -0.68664080990E+01 -0.56980721106E+03  0.63375977980E+03  0.00000000000E+00 0.  1.
         22    1    1    2    0    0 -0.54097377230E+03 -0.67932507667E+02  0.11604565649E+03  0.55743523597E+03  0.00000000000E+00 0. -1.
<mgrwt>
<rscale>  0 0.15361798E+04</rscale>
<asrwt>0</asrwt>
<pdfrwt beam="1">  1        2 0.22861818E+00 0.15361798E+04</pdfrwt>
<pdfrwt beam="2">  1       -2 0.61078261E-01 0.15361798E+04</pdfrwt>
<totfact> 0.31061130E+01</totfact>
</mgrwt>
</event>
<event>
 6    1  0.4630212E-004  0.2850890E+04  0.7818608E-02  0.8287641E-01
          2   -1    0    0  501    0  0.00000000000E+00  0.00000000000E+00  0.18635362372E+04  0.18635362372E+04  0.00000000000E+00 0.  1.
         -2   -1    0    0    0  501 -0.00000000000E+00 -0.00000000000E+00 -0.10903431594E+04  0.10903431594E+04  0.00000000000E+00 0. -1.
         23    2    1    2    0    0  0.53265504146E+03 -0.35344823287E+03 -0.93154734021E+03  0.11332237621E+04  0.88139670065E+02 0.  0.
         13    1    3    3    0    0  0.16929816725E+03 -0.11012111879E+03 -0.36948098758E+03  0.42107568254E+03  0.00000000000E+00 0.  1.
        -13    1    3    3    0    0  0.36335687420E+03 -0.24332711408E+03 -0.56206635263E+03  0.71214807957E+03  0.00000000000E+00 0. -1.
         22    1    1    2    0    0 -0.53265504146E+03  0.35344823287E+03  0.17047404180E+04  0.18206556344E+04  0.00000000000E+00 0.  1.
<mgrwt>
<rscale>  0 0.28508904E+04</rscale>
<asrwt>0</asrwt>
<pdfrwt beam="1">  1        2 0.28669788E+00 0.28508904E+04</pdfrwt>
<pdfrwt beam="2">  1       -2 0.16774510E+00 0.28508904E+04</pdfrwt>
<totfact> 0.15251032E+00</totfact>
</mgrwt>
</event>
<event>
 6    1  0.4630212E-004  0.1636496E+04  0.7818608E-02  0.8798435E-01
          2   -1    0    0  501    0  0.00000000000E+00  0.00000000000E+00  0.46576273905E+03  0.46576273905E+03  0.00000000000E+00 0.  1.
         -2   -1    0    0    0  501 -0.00000000000E+00 -0.00000000000E+00 -0.14374917281E+04  0.14374917281E+04  0.00000000000E+00 0. -1.
         23    2    1    2    0    0 -0.57507740972E+03  0.31787980185E+03 -0.10494347727E+04  0.12415900625E+04  0.92037739664E+02 0.  0.
         11    1    3    3    0    0 -0.50741185967E+03  0.31065653913E+03 -0.95564233461E+03  0.11257115760E+04  0.00000000000E+00 0. -1.
        -11    1    3    3    0    0 -0.67665550050E+02  0.72232627156E+01 -0.93792438070E+02  0.11587848647E+03  0.00000000000E+00 0.  1.
         22    1    1    2    0    0  0.57507740972E+03 -0.31787980185E+03  0.77705783639E+02  0.66166440467E+03  0.00000000000E+00 0.  1.
<mgrwt>
<rscale>  0 0.16364964E+04</rscale>
<asrwt>0</asrwt>
<pdfrwt beam="1">  1        2 0.71655807E-01 0.16364964E+04</pdfrwt>
<pdfrwt beam="2">  1       -2 0.22115257E+00 0.16364964E+04</pdfrwt>
<totfact> 0.62087520E+00</totfact>
</mgrwt>
</event>
<event>
 6    1  0.4630212E-004  0.2205610E+04  0.7818608E-02  0.8516097E-01
         -2   -1    0    0    0  501 -0.00000000000E+00  0.00000000000E+00  0.55332584262E+03  0.55332584262E+03  0.00000000000E+00 0.  1.
          2   -1    0    0  501    0  0.00000000000E+00 -0.00000000000E+00 -0.21979433043E+04  0.21979433043E+04  0.00000000000E+00 0. -1.
         23    2    1    2    0    0  0.10663655628E+04 -0.20276421510E+03 -0.10533274289E+04  0.15151976508E+04  0.89868838446E+02 0.  0.
         11    1    3    3    0    0  0.43967410729E+03 -0.12076262140E+03 -0.47662722962E+03  0.65959870176E+03  0.00000000000E+00 0. -1.
        -11    1    3    3    0    0  0.62669145554E+03 -0.82001593698E+02 -0.57670019926E+03  0.85559894906E+03  0.00000000000E+00 0.  1.
         22    1    1    2    0    0 -0.10663655628E+04  0.20276421510E+03 -0.59129003278E+03  0.12360714961E+04  0.00000000000E+00 0.  1.
<mgrwt>
<rscale>  0 0.22056100E+04</rscale>
<asrwt>0</asrwt>
<pdfrwt beam="1">  1        2 0.33814512E+00 0.22056100E+04</pdfrwt>
<pdfrwt beam="2">  1       -2 0.85127053E-01 0.22056100E+04</pdfrwt>
<totfact> 0.56796013E+00</totfact>
</mgrwt>
</event>
<event>
 6    1  0.4630212E-004  0.5164296E+03  0.7818608E-02  0.1009577E+00
         -4   -1    0    0    0  501 -0.00000000000E+00  0.00000000000E+00  0.18393724782E+03  0.18393724782E+03  0.00000000000E+00 0. -1.
          4   -1    0    0  501    0  0.00000000000E+00 -0.00000000000E+00 -0.36248716205E+03  0.36248716205E+03  0.00000000000E+00 0.  1.
         23    2    1    2    0    0 -0.15947504226E+03  0.95246538486E+02  0.85460627869E+02  0.22361524251E+03  0.90532124516E+02 0.  0.
         11    1    3    3    0    0 -0.15396478558E+03  0.53715616881E+02  0.56059492661E+02  0.17243314476E+03  0.00000000000E+00 0.  1.
        -11    1    3    3    0    0 -0.55102566781E+01  0.41530921604E+02  0.29401135208E+02  0.51182097744E+02  0.00000000000E+00 0. -1.
         22    1    1    2    0    0  0.15947504226E+03 -0.95246538486E+02 -0.26401054209E+03  0.32280916736E+03  0.00000000000E+00 0.  1.
<mgrwt>
<rscale>  0 0.51642963E+03</rscale>
<asrwt>0</asrwt>
<pdfrwt beam="1">  1        4 0.55767255E-01 0.51642963E+03</pdfrwt>
<pdfrwt beam="2">  1       -4 0.28298038E-01 0.51642963E+03</pdfrwt>
<totfact> 0.72026374E+01</totfact>
</mgrwt>
</event>
<event>
 6    1  0.4630212E-004  0.7342922E+03  0.7818608E-02  0.9660321E-01
         -2   -1    0    0    0  501 -0.00000000000E+00  0.00000000000E+00  0.94034651112E+02  0.94034651112E+02  0.00000000000E+00 0. -1.
          2   -1    0    0  501    0  0.00000000000E+00 -0.00000000000E+00 -0.14334742002E+04  0.14334742002E+04  0.00000000000E+00 0.  1.
         23    2    1    2    0    0  0.30371572760E+03 -0.18614607699E+03 -0.55080609650E+03  0.66215555484E+03  0.90382618309E+02 0.  0.
         11    1    3    3    0    0  0.88157462063E+02 -0.71793772403E+02 -0.25137525259E+03  0.27589056071E+03  0.00000000000E+00 0.  1.
        -11    1    3    3    0    0  0.21555826554E+03 -0.11435230458E+03 -0.29943084391E+03  0.38626499413E+03  0.00000000000E+00 0. -1.
         22    1    1    2    0    0 -0.30371572760E+03  0.18614607699E+03 -0.78863345259E+03  0.86535329648E+03  0.00000000000E+00 0. -1.
<mgrwt>
<rscale>  0 0.73429217E+03</rscale>
<asrwt>0</asrwt>
<pdfrwt beam="1">  1        2 0.22053448E+00 0.73429217E+03</pdfrwt>
<pdfrwt beam="2">  1       -2 0.14466870E-01 0.73429217E+03</pdfrwt>
<totfact> 0.52191454E+02</totfact>
</mgrwt>
</event>
<event>
 6    1  0.4630212E-004  0.3905301E+04  0.7818608E-02  0.8023928E-01
          2   -1    0    0  501    0  0.00000000000E+00  0.00000000000E+00  0.11868975034E+04  0.11868975034E+04  0.00000000000E+00 0.  1.
         -2   -1    0    0    0  501 -0.00000000000E+00 -0.00000000000E+00 -0.32124451033E+04  0.32124451033E+04  0.00000000000E+00 0. -1.
         23    2    1    2    0    0 -0.27666555556E+03 -0.11302801463E+04 -0.27782426222E+04  0.30134757894E+04  0.91253638535E+02 0.  0.
         13    1    3    3    0    0 -0.43202469049E+02 -0.15777522429E+03 -0.47785506551E+03  0.50507914070E+03  0.00000000000E+00 0. -1.
        -13    1    3    3    0    0 -0.23346308651E+03 -0.97250492204E+03 -0.23003875567E+04  0.25083966487E+04  0.00000000000E+00 0.  1.
         22    1    1    2    0    0  0.27666555556E+03  0.11302801463E+04  0.75269502230E+03  0.13858668173E+04  0.00000000000E+00 0.  1.
<mgrwt>
<rscale>  0 0.39053005E+04</rscale>
<asrwt>0</asrwt>
<pdfrwt beam="1">  1        2 0.18259962E+00 0.39053005E+04</pdfrwt>
<pdfrwt beam="2">  1       -2 0.49422232E+00 0.39053005E+04</pdfrwt>
<totfact> 0.27497074E-02</totfact>
</mgrwt>
</event>
<event>
 6    1  0.4630212E-004  0.3130612E+04  0.7818608E-02  0.8207387E-01
         -2   -1    0    0    0  501 -0.00000000000E+00  0.00000000000E+00  0.10511367756E+04  0.10511367756E+04  0.00000000000E+00 0. -1.
          2   -1    0    0  501    0  0.00000000000E+00 -0.00000000000E+00 -0.23309838305E+04  0.23309838305E+04  0.00000000000E+00 0.  1.
         23    2    1    2    0    0  0.32857793809E+03 -0.18659763767E+03  0.99844955413E+03  0.10727012897E+04  0.10490188317E+03 0.  0.
         11    1    3    3    0    0  0.21066856022E+03 -0.71859336473E+02  0.48736302901E+03  0.53578701790E+03  0.00000000000E+00 0. -1.
        -11    1    3    3    0    0  0.11790937787E+03 -0.11473830119E+03  0.51108652512E+03  0.53691427185E+03  0.00000000000E+00 0.  1.
         22    1    1    2    0    0 -0.32857793809E+03  0.18659763767E+03 -0.22782966091E+04  0.23094193163E+04  0.00000000000E+00 0.  1.
<mgrwt>
<rscale>  0 0.31306120E+04</rscale>
<asrwt>0</asrwt>
<pdfrwt beam="1">  1        2 0.35861289E+00 0.31306120E+04</pdfrwt>
<pdfrwt beam="2">  1       -2 0.16171335E+00 0.31306120E+04</pdfrwt>
<totfact> 0.90197853E-01</totfact>
</mgrwt>
</event>
<event>
 6    1  0.4630212E-004  0.1802766E+04  0.7818608E-02  0.8704830E-01
          2   -1    0    0  501    0  0.00000000000E+00  0.00000000000E+00  0.26739168952E+04  0.26739168952E+04  0.00000000000E+00 0.  1.
         -2   -1    0    0    0  501 -0.00000000000E+00 -0.00000000000E+00 -0.30385820949E+03  0.30385820949E+03  0.00000000000E+00 0. -1.
         23    2    1    2    0    0  0.16603092241E+03  0.75146630875E+03  0.19559316809E+04  0.21038362873E+04  0.90501398321E+02 0.  0.
         13    1    3    3    0    0  0.63559669685E+02  0.48196603296E+03  0.11936251689E+04  0.12888258735E+04  0.00000000000E+00 0. -1.
        -13    1    3    3    0    0  0.10247125273E+03  0.26950027580E+03  0.76230651205E+03  0.81501041380E+03  0.00000000000E+00 0.  1.
         22    1    1    2    0    0 -0.16603092241E+03 -0.75146630875E+03  0.41412700480E+03  0.87393881736E+03  0.00000000000E+00 0. -1.
<mgrwt>
<rscale>  0 0.18027663E+04</rscale>
<asrwt>0</asrwt>
<pdfrwt beam="1">  1        2 0.41137181E+00 0.18027663E+04</pdfrwt>
<pdfrwt beam="2">  1       -2 0.46747419E-01 0.18027663E+04</pdfrwt>
<totfact> 0.11290026E+01</totfact>
</mgrwt>
</event>
<event>
 6    1  0.4630212E-004  0.1450248E+04  0.7818608E-02  0.8918228E-01
          2   -1    0    0  501    0  0.00000000000E+00  0.00000000000E+00  0.14942249223E+04  0.14942249223E+04  0.00000000000E+00 0.  1.
         -2   -1    0    0    0  501 -0.00000000000E+00 -0.00000000000E+00 -0.35189143616E+03  0.35189143616E+03  0.00000000000E+00 0. -1.
         23    2    1    2    0    0 -0.24587870294E+03  0.23071321241E+03  0.13864775952E+04  0.14298336794E+04  0.91756774553E+02 0.  0.
         13    1    3    3    0    0  0.19315465468E+01  0.29923368260E+02  0.99244783782E+02  0.10367577320E+03  0.00000000000E+00 0.  1.
        -13    1    3    3    0    0 -0.24781024949E+03  0.20078984415E+03  0.12872328114E+04  0.13261579062E+04  0.00000000000E+00 0. -1.
         22    1    1    2    0    0  0.24587870294E+03 -0.23071321241E+03 -0.24414410905E+03  0.41628267911E+03  0.00000000000E+00 0. -1.
<mgrwt>
<rscale>  0 0.14502482E+04</rscale>
<asrwt>0</asrwt>
<pdfrwt beam="1">  1        2 0.22988075E+00 0.14502482E+04</pdfrwt>
<pdfrwt beam="2">  1       -2 0.54137145E-01 0.14502482E+04</pdfrwt>
<totfact> 0.39841405E+01</totfact>
</mgrwt>
</event>
<event>
 6    1  0.4630212E-004  0.2412893E+04  0.7818608E-02  0.8434692E-01
          2   -1    0    0  501    0  0.00000000000E+00  0.00000000000E+00  0.16515299239E+04  0.16515299239E+04  0.00000000000E+00 0.  1.
         -2   -1    0    0    0  501 -0.00000000000E+00 -0.00000000000E+00 -0.88131216318E+03  0.88131216318E+03  0.00000000000E+00 0. -1.
         23    2    1    2    0    0  0.18148841192E+03 -0.11142182049E+04  0.82719785061E+03  0.14025027652E+04  0.91309750764E+02 0.  0.
         13    1    3    3    0    0  0.48604595490E+01 -0.63093092557E+02  0.74022048946E+02  0.97383911020E+02  0.00000000000E+00 0.  1.
        -13    1    3    3    0    0  0.17662795237E+03 -0.10511251124E+04  0.75317580167E+03  0.13051188542E+04  0.00000000000E+00 0. -1.
         22    1    1    2    0    0 -0.18148841192E+03  0.11142182049E+04 -0.56980089883E+02  0.11303393218E+04  0.00000000000E+00 0. -1.
<mgrwt>
<rscale>  0 0.24128932E+04</rscale>
<asrwt>0</asrwt>
<pdfrwt beam="1">  1        2 0.25408153E+00 0.24128932E+04</pdfrwt>
<pdfrwt beam="2">  1       -2 0.13558649E+00 0.24128932E+04</pdfrwt>
<totfact> 0.36582328E+00</totfact>
</mgrwt>
</event>
<event>
 6    1  0.4630212E-004  0.1469020E+04  0.7818608E-02  0.8905320E-01
         -2   -1    0    0    0  501 -0.00000000000E+00  0.00000000000E+00  0.29162977845E+03  0.29162977845E+03  0.00000000000E+00 0. -1.
          2   -1    0    0  501    0  0.00000000000E+00 -0.00000000000E+00 -0.18499656567E+04  0.18499656567E+04  0.00000000000E+00 0.  1.
         23    2    1    2    0    0  0.30010651446E+03 -0.28267428440E+03 -0.16634149875E+04  0.17161423939E+04  0.90700740852E+02 0.  0.
         13    1    3    3    0    0  0.12214814423E+03 -0.58917908997E+02 -0.57954441592E+03  0.59520015051E+03  0.00000000000E+00 0. -1.
        -13    1    3    3    0    0  0.17795837023E+03 -0.22375637540E+03 -0.10838705716E+04  0.11209422434E+04  0.00000000000E+00 0.  1.
         22    1    1    2    0    0 -0.30010651446E+03  0.28267428440E+03  0.10507910929E+03  0.42545304123E+03  0.00000000000E+00 0. -1.
<mgrwt>
<rscale>  0 0.14690202E+04</rscale>
<asrwt>0</asrwt>
<pdfrwt beam="1">  1        2 0.28461010E+00 0.14690202E+04</pdfrwt>
<pdfrwt beam="2">  1       -2 0.44866120E-01 0.14690202E+04</pdfrwt>
<totfact> 0.36935462E+01</totfact>
</mgrwt>
</event>
<event>
 6    1  0.4630212E-004  0.2393505E+04  0.7818608E-02  0.8441939E-01
         -2   -1    0    0    0  501 -0.00000000000E+00  0.00000000000E+00  0.10776342861E+04  0.10776342861E+04  0.00000000000E+00 0. -1.
          2   -1    0    0  501    0  0.00000000000E+00 -0.00000000000E+00 -0.13290379627E+04  0.13290379627E+04  0.00000000000E+00 0.  1.
         23    2    1    2    0    0  0.81918217617E+03 -0.83301093728E+03  0.12671112083E+03  0.11786911987E+04  0.91052590831E+02 0.  0.
         13    1    3    3    0    0  0.62657052843E+03 -0.62369311919E+03  0.57502091353E+02  0.88594030529E+03  0.00000000000E+00 0.  1.
        -13    1    3    3    0    0  0.19261164774E+03 -0.20931781809E+03  0.69209029479E+02  0.29275089338E+03  0.00000000000E+00 0. -1.
         22    1    1    2    0    0 -0.81918217617E+03  0.83301093728E+03 -0.37811479738E+03  0.12279810501E+04  0.00000000000E+00 0.  1.
<mgrwt>
<rscale>  0 0.23935053E+04</rscale>
<asrwt>0</asrwt>
<pdfrwt beam="1">  1        2 0.20446738E+00 0.23935053E+04</pdfrwt>
<pdfrwt beam="2">  1       -2 0.16578989E+00 0.23935053E+04</pdfrwt>
<totfact> 0.32690229E+00</totfact>
</mgrwt>
</event>
<event>
 6    1  0.4630212E-004  0.1416556E+04  0.7818608E-02  0.8941921E-01
          2   -1    0    0  501    0  0.00000000000E+00  0.00000000000E+00  0.82068128421E+03  0.82068128421E+03  0.00000000000E+00 0. -1.
         -2   -1    0    0    0  501 -0.00000000000E+00 -0.00000000000E+00 -0.61126978059E+03  0.61126978059E+03  0.00000000000E+00 0.  1.
         23    2    1    2    0    0  0.35043784711E+03 -0.37565945150E+03  0.59378930853E+03  0.79033357354E+03  0.90081664871E+02 0.  0.
         11    1    3    3    0    0  0.31575709885E+03 -0.32706254459E+03  0.56148097108E+03  0.72244953764E+03  0.00000000000E+00 0.  1.
        -11    1    3    3    0    0  0.34680748253E+02 -0.48596906913E+02  0.32308337451E+02  0.67884035897E+02  0.00000000000E+00 0. -1.
         22    1    1    2    0    0 -0.35043784711E+03  0.37565945150E+03 -0.38437780492E+03  0.64161749127E+03  0.00000000000E+00 0.  1.
<mgrwt>
<rscale>  0 0.14165559E+04</rscale>
<asrwt>0</asrwt>
<pdfrwt beam="1">  1        2 0.12625866E+00 0.14165559E+04</pdfrwt>
<pdfrwt beam="2">  1       -2 0.94041505E-01 0.14165559E+04</pdfrwt>
<totfact> 0.30892212E+01</totfact>
</mgrwt>
</event>
<event>
 6    1  0.4630212E-004  0.8620866E+03  0.7818608E-02  0.9474257E-01
          2   -1    0    0  501    0  0.00000000000E+00  0.00000000000E+00  0.23411741544E+04  0.23411741544E+04  0.00000000000E+00 0.  1.
         -2   -1    0    0    0  501 -0.00000000000E+00 -0.00000000000E+00 -0.79361168793E+02  0.79361168793E+02  0.00000000000E+00 0. -1.
         23    2    1    2    0    0  0.36334557429E+03  0.40046850850E+02  0.52690304431E+03  0.64753327552E+03  0.89714927363E+02 0.  0.
         11    1    3    3    0    0  0.28295063633E+03  0.23557661903E+01  0.35425524336E+03  0.45339098986E+03  0.00000000000E+00 0. -1.
        -11    1    3    3    0    0  0.80394937954E+02  0.37691084660E+02  0.17264780095E+03  0.19414228566E+03  0.00000000000E+00 0.  1.
         22    1    1    2    0    0 -0.36334557429E+03 -0.40046850850E+02  0.17349099413E+04  0.17730020476E+04  0.00000000000E+00 0.  1.
<mgrwt>
<rscale>  0 0.86208658E+03</rscale>
<asrwt>0</asrwt>
<pdfrwt beam="1">  1        2 0.36018059E+00 0.86208658E+03</pdfrwt>
<pdfrwt beam="2">  1       -2 0.12209412E-01 0.86208658E+03</pdfrwt>
<totfact> 0.21725835E+02</totfact>
</mgrwt>
</event>
<event>
 6    1  0.4630212E-004  0.4275772E+04  0.7818608E-02  0.7951113E-01
         -2   -1    0    0    0  501 -0.00000000000E+00  0.00000000000E+00  0.13645295557E+04  0.13645295557E+04  0.00000000000E+00 0. -1.
          2   -1    0    0  501    0  0.00000000000E+00 -0.00000000000E+00 -0.33495481495E+04  0.33495481495E+04  0.00000000000E+00 0.  1.
         23    2    1    2    0    0  0.19304087352E+04  0.68369826748E+03 -0.16658223718E+04  0.26414447339E+04  0.91350435220E+02 0.  0.
         13    1    3    3    0    0  0.92976975079E+03  0.31811866571E+03 -0.74214657351E+03  0.12314433854E+04  0.00000000000E+00 0.  1.
        -13    1    3    3    0    0  0.10006389844E+04  0.36557960177E+03 -0.92367579828E+03  0.14100013484E+04  0.00000000000E+00 0. -1.
         22    1    1    2    0    0 -0.19304087352E+04 -0.68369826748E+03 -0.31919622207E+03  0.20726329713E+04  0.00000000000E+00 0. -1.
<mgrwt>
<rscale>  0 0.42757724E+04</rscale>
<asrwt>0</asrwt>
<pdfrwt beam="1">  1        2 0.51531509E+00 0.42757724E+04</pdfrwt>
<pdfrwt beam="2">  1       -2 0.20992763E+00 0.42757724E+04</pdfrwt>
<totfact> 0.91120434E-02</totfact>
</mgrwt>
</event>
<event>
 6    1  0.4630212E-004  0.4088976E+04  0.7818608E-02  0.7986834E-01
          2   -1    0    0  501    0  0.00000000000E+00  0.00000000000E+00  0.19748571603E+04  0.19748571603E+04  0.00000000000E+00 0.  1.
         -2   -1    0    0    0  501 -0.00000000000E+00 -0.00000000000E+00 -0.21165742803E+04  0.21165742803E+04  0.00000000000E+00 0. -1.
         23    2    1    2    0    0  0.19436061142E+04  0.42314328188E+03  0.39744339116E+03  0.20305216850E+04  0.91662968924E+02 0.  0.
         11    1    3    3    0    0  0.17723640568E+04  0.39821838615E+03  0.33927988662E+03  0.18479618704E+04  0.00000000000E+00 0. -1.
        -11    1    3    3    0    0  0.17124205740E+03  0.24924895730E+02  0.58163504547E+02  0.18255981461E+03  0.00000000000E+00 0.  1.
         22    1    1    2    0    0 -0.19436061142E+04 -0.42314328188E+03 -0.53916051123E+03  0.20609097557E+04  0.00000000000E+00 0.  1.
<mgrwt>
<rscale>  0 0.40889763E+04</rscale>
<asrwt>0</asrwt>
<pdfrwt beam="1">  1        2 0.30382418E+00 0.40889763E+04</pdfrwt>
<pdfrwt beam="2">  1       -2 0.32562681E+00 0.40889763E+04</pdfrwt>
<totfact> 0.11941798E-01</totfact>
</mgrwt>
</event>
<event>
 6    1  0.4630212E-004  0.1883038E+04  0.7818608E-02  0.8663346E-01
          1   -1    0    0  501    0  0.00000000000E+00  0.00000000000E+00  0.83452866824E+03  0.83452866824E+03  0.00000000000E+00 0.  1.
         -1   -1    0    0    0  501 -0.00000000000E+00 -0.00000000000E+00 -0.10622254569E+04  0.10622254569E+04  0.00000000000E+00 0. -1.
         23    2    1    2    0    0 -0.83425021716E+03 -0.43421411197E+03 -0.12158232217E+03  0.95029990021E+03  0.61419210567E+02 0.  0.
         11    1    3    3    0    0 -0.68443190533E+03 -0.36816115532E+03 -0.12123164374E+03  0.78656645031E+03  0.00000000000E+00 0. -1.
        -11    1    3    3    0    0 -0.14981831183E+03 -0.66052956653E+02 -0.35067843446E+00  0.16373344990E+03  0.00000000000E+00 0.  1.
         22    1    1    2    0    0  0.83425021716E+03  0.43421411197E+03 -0.10611446647E+03  0.94645422491E+03  0.00000000000E+00 0.  1.
<mgrwt>
<rscale>  0 0.18830375E+04</rscale>
<asrwt>0</asrwt>
<pdfrwt beam="1">  1        1 0.12838903E+00 0.18830375E+04</pdfrwt>
<pdfrwt beam="2">  1       -1 0.16341930E+00 0.18830375E+04</pdfrwt>
<totfact> 0.53265863E+00</totfact>
</mgrwt>
</event>
<event>
 6    1  0.4630212E-004  0.3552001E+03  0.7818608E-02  0.1060501E+00
         -2   -1    0    0    0  501 -0.00000000000E+00  0.00000000000E+00  0.32674846296E+02  0.32674846296E+02  0.00000000000E+00 0. -1.
          2   -1    0    0  501    0  0.00000000000E+00 -0.00000000000E+00 -0.96532316962E+03  0.96532316962E+03  0.00000000000E+00 0.  1.
         23    2    1    2    0    0 -0.11783549876E+03 -0.11687040423E+03 -0.54997023310E+03  0.58088122545E+03  0.86092070650E+02 0.  0.
         13    1    3    3    0    0 -0.91539036624E+02 -0.86721154022E+02 -0.26912188360E+03  0.29719781630E+03  0.00000000000E+00 0. -1.
        -13    1    3    3    0    0 -0.26296462136E+02 -0.30149250207E+02 -0.28084834950E+03  0.28368340915E+03  0.00000000000E+00 0.  1.
         22    1    1    2    0    0  0.11783549876E+03  0.11687040423E+03 -0.38267809022E+03  0.41711679046E+03  0.00000000000E+00 0. -1.
<mgrwt>
<rscale>  0 0.35520015E+03</rscale>
<asrwt>0</asrwt>
<pdfrwt beam="1">  1        2 0.14851127E+00 0.35520015E+03</pdfrwt>
<pdfrwt beam="2">  1       -2 0.50268990E-02 0.35520015E+03</pdfrwt>
<totfact> 0.53817971E+03</totfact>
</mgrwt>
</event>
<event>
 6    1  0.4630212E-004  0.5562561E+03  0.7818608E-02  0.1000056E+00
          2   -1    0    0  501    0  0.00000000000E+00  0.00000000000E+00  0.15048162834E+04  0.15048162834E+04  0.00000000000E+00 0.  1.
         -2   -1    0    0    0  501 -0.00000000000E+00 -0.00000000000E+00 -0.51405095821E+02  0.51405095821E+02  0.00000000000E+00 0. -1.
         23    2    1    2    0    0 -0.26003315114E+03 -0.61634956958E+02  0.87101576960E+03  0.91544019154E+03  0.89141268626E+02 0.  0.
         13    1    3    3    0    0 -0.12151390661E+03 -0.33433423493E+02  0.26913538394E+03  0.29718223062E+03  0.00000000000E+00 0. -1.
        -13    1    3    3    0    0 -0.13851924453E+03 -0.28201533464E+02  0.60188038566E+03  0.61825796092E+03  0.00000000000E+00 0.  1.
         22    1    1    2    0    0  0.26003315114E+03  0.61634956958E+02  0.58239541800E+03  0.64078118771E+03  0.00000000000E+00 0. -1.
<mgrwt>
<rscale>  0 0.55625615E+03</rscale>
<asrwt>0</asrwt>
<pdfrwt beam="1">  1        2 0.23151016E+00 0.55625615E+03</pdfrwt>
<pdfrwt beam="2">  1       -2 0.79084774E-02 0.55625615E+03</pdfrwt>
<totfact> 0.12891006E+03</totfact>
</mgrwt>
</event>
<event>
 6    1  0.4630212E-004  0.2761195E+04  0.7818608E-02  0.8315418E-01
          2   -1    0    0  501    0  0.00000000000E+00  0.00000000000E+00  0.22904918289E+04  0.22904918289E+04  0.00000000000E+00 0.  1.
         -2   -1    0    0    0  501 -0.00000000000E+00 -0.00000000000E+00 -0.83215708233E+03  0.83215708233E+03  0.00000000000E+00 0. -1.
         23    2    1    2    0    0 -0.10052673651E+04 -0.43017330682E+03 -0.22048211680E+03  0.11191425823E+04  0.90863669665E+02 0.  0.
         13    1    3    3    0    0 -0.61347465749E+03 -0.27782123745E+03 -0.17833531138E+03  0.69666295915E+03  0.00000000000E+00 0.  1.
        -13    1    3    3    0    0 -0.39179270762E+03 -0.15235206936E+03 -0.42146805421E+02  0.42247962317E+03  0.00000000000E+00 0. -1.
         22    1    1    2    0    0  0.10052673651E+04  0.43017330682E+03  0.16788168633E+04  0.20035063289E+04  0.00000000000E+00 0.  1.
<mgrwt>
<rscale>  0 0.27611947E+04</rscale>
<asrwt>0</asrwt>
<pdfrwt beam="1">  1        2 0.35238336E+00 0.27611947E+04</pdfrwt>
<pdfrwt beam="2">  1       -2 0.12802417E+00 0.27611947E+04</pdfrwt>
<totfact> 0.18087762E+00</totfact>
</mgrwt>
</event>
<event>
 6    1  0.4630212E-004  0.4239945E+04  0.7818608E-02  0.7957817E-01
         -1   -1    0    0    0  501 -0.00000000000E+00  0.00000000000E+00  0.12660789482E+04  0.12660789482E+04  0.00000000000E+00 0. -1.
          1   -1    0    0  501    0  0.00000000000E+00 -0.00000000000E+00 -0.35497647827E+04  0.35497647827E+04  0.00000000000E+00 0.  1.
         23    2    1    2    0    0  0.13490742574E+04  0.96394887820E+03 -0.26410538491E+04  0.31196978971E+04  0.90281467030E+02 0.  0.
         13    1    3    3    0    0  0.39179744795E+03  0.25321232085E+03 -0.67956825878E+03  0.82427831343E+03  0.00000000000E+00 0. -1.
        -13    1    3    3    0    0  0.95727680950E+03  0.71073655736E+03 -0.19614855903E+04  0.22954195837E+04  0.00000000000E+00 0.  1.
         22    1    1    2    0    0 -0.13490742574E+04 -0.96394887820E+03  0.35736801461E+03  0.16961458339E+04  0.00000000000E+00 0. -1.
<mgrwt>
<rscale>  0 0.42399446E+04</rscale>
<asrwt>0</asrwt>
<pdfrwt beam="1">  1        1 0.54611767E+00 0.42399446E+04</pdfrwt>
<pdfrwt beam="2">  1       -1 0.19478137E+00 0.42399446E+04</pdfrwt>
<totfact> 0.28604185E-02</totfact>
</mgrwt>
</event>
<event>
 6    1  0.4630212E-004  0.2102640E+04  0.7818608E-02  0.8560081E-01
          2   -1    0    0  501    0  0.00000000000E+00  0.00000000000E+00  0.13763190755E+04  0.13763190755E+04  0.00000000000E+00 0.  1.
         -2   -1    0    0    0  501 -0.00000000000E+00 -0.00000000000E+00 -0.80306527885E+03  0.80306527885E+03  0.00000000000E+00 0. -1.
         23    2    1    2    0    0  0.44958612172E+03 -0.74387692758E+03 -0.32226146185E+03  0.93141474638E+03  0.90556146916E+02 0.  0.
         13    1    3    3    0    0  0.32352158166E+03 -0.49360160725E+03 -0.25686982323E+03  0.64365430672E+03  0.00000000000E+00 0. -1.
        -13    1    3    3    0    0  0.12606454006E+03 -0.25027532033E+03 -0.65391638625E+02  0.28776043965E+03  0.00000000000E+00 0.  1.
         22    1    1    2    0    0 -0.44958612172E+03  0.74387692758E+03  0.89551525851E+03  0.12479696080E+04  0.00000000000E+00 0.  1.
<mgrwt>
<rscale>  0 0.21026403E+04</rscale>
<asrwt>0</asrwt>
<pdfrwt beam="1">  1        2 0.21174140E+00 0.21026403E+04</pdfrwt>
<pdfrwt beam="2">  1       -2 0.12354850E+00 0.21026403E+04</pdfrwt>
<totfact> 0.67933738E+00</totfact>
</mgrwt>
</event>
<event>
 6    1  0.4630212E-004  0.1120444E+04  0.7818608E-02  0.9185492E-01
          2   -1    0    0  501    0  0.00000000000E+00  0.00000000000E+00  0.24511221168E+04  0.24511221168E+04  0.00000000000E+00 0.  1.
         -2   -1    0    0    0  501 -0.00000000000E+00 -0.00000000000E+00 -0.12804277897E+03  0.12804277897E+03  0.00000000000E+00 0. -1.
         23    2    1    2    0    0  0.24887009247E+03 -0.35680896769E+03  0.37045054973E+03  0.57866292216E+03  0.91477895321E+02 0.  0.
         11    1    3    3    0    0  0.15625844071E+03 -0.17055475903E+03  0.15067241910E+03  0.27605760992E+03  0.00000000000E+00 0. -1.
        -11    1    3    3    0    0  0.92611651755E+02 -0.18625420867E+03  0.21977813063E+03  0.30260531223E+03  0.00000000000E+00 0.  1.
         22    1    1    2    0    0 -0.24887009247E+03  0.35680896769E+03  0.19526287881E+04  0.20005019737E+04  0.00000000000E+00 0.  1.
<mgrwt>
<rscale>  0 0.11204436E+04</rscale>
<asrwt>0</asrwt>
<pdfrwt beam="1">  1        2 0.37709568E+00 0.11204436E+04</pdfrwt>
<pdfrwt beam="2">  1       -2 0.19698891E-01 0.11204436E+04</pdfrwt>
<totfact> 0.81485491E+01</totfact>
</mgrwt>
</event>
<event>
 6    1  0.4630212E-004  0.2571121E+04  0.7818608E-02  0.8378077E-01
          2   -1    0    0  501    0  0.00000000000E+00  0.00000000000E+00  0.14549000048E+04  0.14549000048E+04  0.00000000000E+00 0.  1.
         -2   -1    0    0    0  501 -0.00000000000E+00 -0.00000000000E+00 -0.11359308794E+04  0.11359308794E+04  0.00000000000E+00 0. -1.
         23    2    1    2    0    0 -0.11584594165E+04  0.28347488720E+03 -0.31955222885E+03  0.12380205682E+04  0.90526619914E+02 0.  0.
         11    1    3    3    0    0 -0.55883607410E+03  0.17229160427E+03 -0.12615290785E+03  0.59824469139E+03  0.00000000000E+00 0. -1.
        -11    1    3    3    0    0 -0.59962334244E+03  0.11118328294E+03 -0.19339932101E+03  0.63977587683E+03  0.00000000000E+00 0.  1.
         22    1    1    2    0    0  0.11584594165E+04 -0.28347488720E+03  0.63852135425E+03  0.13528103161E+04  0.00000000000E+00 0.  1.
<mgrwt>
<rscale>  0 0.25711210E+04</rscale>
<asrwt>0</asrwt>
<pdfrwt beam="1">  1        2 0.22383077E+00 0.25711210E+04</pdfrwt>
<pdfrwt beam="2">  1       -2 0.17475860E+00 0.25711210E+04</pdfrwt>
<totfact> 0.23549970E+00</totfact>
</mgrwt>
</event>
<event>
 6    1  0.4630212E-004  0.2537066E+04  0.7818608E-02  0.8389898E-01
          2   -1    0    0  501    0  0.00000000000E+00  0.00000000000E+00  0.13484706818E+04  0.13484706818E+04  0.00000000000E+00 0.  1.
         -2   -1    0    0    0  501 -0.00000000000E+00 -0.00000000000E+00 -0.11933337556E+04  0.11933337556E+04  0.00000000000E+00 0. -1.
         23    2    1    2    0    0 -0.37075971733E+01  0.78373328923E+03 -0.91947547419E+03  0.12117505190E+04  0.93019125786E+02 0.  0.
         11    1    3    3    0    0  0.38943625002E+02  0.47697593217E+03 -0.52861992538E+03  0.71306498393E+03  0.00000000000E+00 0.  1.
        -11    1    3    3    0    0 -0.42651222175E+02  0.30675735706E+03 -0.39085554881E+03  0.49868553508E+03  0.00000000000E+00 0. -1.
         22    1    1    2    0    0  0.37075971733E+01 -0.78373328923E+03  0.10746124003E+04  0.13300539184E+04  0.00000000000E+00 0.  1.
<mgrwt>
<rscale>  0 0.25370657E+04</rscale>
<asrwt>0</asrwt>
<pdfrwt beam="1">  1        2 0.20745703E+00 0.25370657E+04</pdfrwt>
<pdfrwt beam="2">  1       -2 0.18358981E+00 0.25370657E+04</pdfrwt>
<totfact> 0.23601554E+00</totfact>
</mgrwt>
</event>
<event>
 6    1  0.4630212E-004  0.2227090E+04  0.7818608E-02  0.8507237E-01
          2   -1    0    0  501    0  0.00000000000E+00  0.00000000000E+00  0.16769436977E+04  0.16769436977E+04  0.00000000000E+00 0.  1.
         -2   -1    0    0    0  501 -0.00000000000E+00 -0.00000000000E+00 -0.73942967521E+03  0.73942967521E+03  0.00000000000E+00 0. -1.
         23    2    1    2    0    0 -0.80125980629E+03  0.20967904880E+03  0.12744259665E+04  0.15222300742E+04  0.83906340205E+02 0.  0.
         11    1    3    3    0    0 -0.57183263968E+03  0.17820892831E+03  0.87108973054E+03  0.10571415745E+04  0.00000000000E+00 0. -1.
        -11    1    3    3    0    0 -0.22942716660E+03  0.31470120494E+02  0.40333623597E+03  0.46508849965E+03  0.00000000000E+00 0.  1.
         22    1    1    2    0    0  0.80125980629E+03 -0.20967904880E+03 -0.33691194401E+03  0.89414329875E+03  0.00000000000E+00 0. -1.
<mgrwt>
<rscale>  0 0.22270895E+04</rscale>
<asrwt>0</asrwt>
<pdfrwt beam="1">  1        2 0.25799134E+00 0.22270895E+04</pdfrwt>
<pdfrwt beam="2">  1       -2 0.11375841E+00 0.22270895E+04</pdfrwt>
<totfact> 0.55785597E+00</totfact>
</mgrwt>
</event>
<event>
 6    1  0.4894353E-004  0.3956801E+04  0.7818608E-02  0.8013318E-01
         -2   -1    0    0    0  501 -0.00000000000E+00  0.00000000000E+00  0.11365872981E+04  0.11365872981E+04  0.00000000000E+00 0. -1.
          2   -1    0    0  501    0  0.00000000000E+00 -0.00000000000E+00 -0.34437020677E+04  0.34437020677E+04  0.00000000000E+00 0.  1.
         23    2    1    2    0    0  0.12489901236E+04 -0.44642834489E+03 -0.28521250386E+04  0.31463051297E+04  0.73103611010E+02 0.  0.
         11    1    3    3    0    0  0.55439281110E+03 -0.16094043379E+03 -0.12177836249E+04  0.13476832600E+04  0.00000000000E+00 0. -1.
        -11    1    3    3    0    0  0.69459731248E+03 -0.28548791110E+03 -0.16343414137E+04  0.17986218697E+04  0.00000000000E+00 0.  1.
         22    1    1    2    0    0 -0.12489901236E+04  0.44642834489E+03  0.54501026897E+03  0.14339842360E+04  0.00000000000E+00 0. -1.
<mgrwt>
<rscale>  0 0.39568007E+04</rscale>
<asrwt>0</asrwt>
<pdfrwt beam="1">  1        2 0.52980032E+00 0.39568007E+04</pdfrwt>
<pdfrwt beam="2">  1       -2 0.17485958E+00 0.39568007E+04</pdfrwt>
<totfact> 0.13846984E-01</totfact>
</mgrwt>
</event>
<event>
 6    1  0.4630212E-004  0.1926450E+04  0.7818608E-02  0.8641801E-01
         -2   -1    0    0    0  501 -0.00000000000E+00  0.00000000000E+00  0.36964440866E+03  0.36964440866E+03  0.00000000000E+00 0. -1.
          2   -1    0    0  501    0  0.00000000000E+00 -0.00000000000E+00 -0.25099859246E+04  0.25099859246E+04  0.00000000000E+00 0.  1.
         23    2    1    2    0    0 -0.62219978843E+03 -0.70496207695E+03 -0.77475153706E+03  0.12216375416E+04  0.89745374719E+02 0.  0.
         13    1    3    3    0    0 -0.57713017135E+03 -0.67511196596E+03 -0.74865014950E+03  0.11616076995E+04  0.00000000000E+00 0. -1.
        -13    1    3    3    0    0 -0.45069617082E+02 -0.29850110994E+02 -0.26101387563E+02  0.60029842104E+02  0.00000000000E+00 0.  1.
         22    1    1    2    0    0  0.62219978843E+03  0.70496207695E+03 -0.13655899789E+04  0.16579927916E+04  0.00000000000E+00 0. -1.
<mgrwt>
<rscale>  0 0.19264499E+04</rscale>
<asrwt>0</asrwt>
<pdfrwt beam="1">  1        2 0.38615169E+00 0.19264499E+04</pdfrwt>
<pdfrwt beam="2">  1       -2 0.56868370E-01 0.19264499E+04</pdfrwt>
<totfact> 0.93152632E+00</totfact>
</mgrwt>
</event>
<event>
 6    1  0.4630212E-004  0.2615164E+04  0.7818608E-02  0.8363069E-01
          2   -1    0    0  501    0  0.00000000000E+00  0.00000000000E+00  0.11476270669E+04  0.11476270669E+04  0.00000000000E+00 0.  1.
         -2   -1    0    0    0  501 -0.00000000000E+00 -0.00000000000E+00 -0.14898312558E+04  0.14898312558E+04  0.00000000000E+00 0. -1.
         23    2    1    2    0    0  0.98309718254E+03 -0.58363597129E+01 -0.10384675460E+04  0.14327605199E+04  0.88734040261E+02 0.  0.
         13    1    3    3    0    0  0.50733258577E+03  0.40823559209E+02 -0.52576190031E+03  0.73176395880E+03  0.00000000000E+00 0. -1.
        -13    1    3    3    0    0  0.47576459677E+03 -0.46659918922E+02 -0.51270564572E+03  0.70099656114E+03  0.00000000000E+00 0.  1.
         22    1    1    2    0    0 -0.98309718254E+03  0.58363597129E+01  0.69626335714E+03  0.12046978027E+04  0.00000000000E+00 0.  1.
<mgrwt>
<rscale>  0 0.26151640E+04</rscale>
<asrwt>0</asrwt>
<pdfrwt beam="1">  1        2 0.17655801E+00 0.26151640E+04</pdfrwt>
<pdfrwt beam="2">  1       -2 0.22920481E+00 0.26151640E+04</pdfrwt>
<totfact> 0.15562919E+00</totfact>
</mgrwt>
</event>
<event>
 6    1  0.4630212E-004  0.3609846E+04  0.7818608E-02  0.8088240E-01
          2   -1    0    0  501    0  0.00000000000E+00  0.00000000000E+00  0.23517441257E+04  0.23517441257E+04  0.00000000000E+00 0.  1.
         -2   -1    0    0    0  501 -0.00000000000E+00 -0.00000000000E+00 -0.13852471746E+04  0.13852471746E+04  0.00000000000E+00 0. -1.
         23    2    1    2    0    0  0.30465518034E+02  0.77740491536E+03  0.21682488714E+04  0.23053858281E+04  0.90631658474E+02 0.  0.
         11    1    3    3    0    0  0.14926936063E+02  0.44809835800E+03  0.13788941119E+04  0.14499530764E+04  0.00000000000E+00 0. -1.
        -11    1    3    3    0    0  0.15538581971E+02  0.32930655736E+03  0.78935475956E+03  0.85543275171E+03  0.00000000000E+00 0.  1.
         22    1    1    2    0    0 -0.30465518034E+02 -0.77740491536E+03 -0.12017519203E+04  0.14316054723E+04  0.00000000000E+00 0. -1.
<mgrwt>
<rscale>  0 0.36098459E+04</rscale>
<asrwt>0</asrwt>
<pdfrwt beam="1">  1        2 0.36180679E+00 0.36098459E+04</pdfrwt>
<pdfrwt beam="2">  1       -2 0.21311495E+00 0.36098459E+04</pdfrwt>
<totfact> 0.37725020E-01</totfact>
</mgrwt>
</event>
<event>
 6    1  0.4630212E-004  0.9926614E+03  0.7818608E-02  0.9316630E-01
         -2   -1    0    0    0  501 -0.00000000000E+00  0.00000000000E+00  0.84426434092E+02  0.84426434092E+02  0.00000000000E+00 0. -1.
          2   -1    0    0  501    0  0.00000000000E+00 -0.00000000000E+00 -0.29178559996E+04  0.29178559996E+04  0.00000000000E+00 0.  1.
         23    2    1    2    0    0 -0.37147080192E+03 -0.21491141137E+03 -0.70037156270E+03  0.82648053215E+03  0.91500124410E+02 0.  0.
         13    1    3    3    0    0 -0.32850243321E+03 -0.17007214577E+03 -0.54044666771E+03  0.65492059369E+03  0.00000000000E+00 0. -1.
        -13    1    3    3    0    0 -0.42968368712E+02 -0.44839265598E+02 -0.15992489499E+03  0.17155993847E+03  0.00000000000E+00 0.  1.
         22    1    1    2    0    0  0.37147080192E+03  0.21491141137E+03 -0.21330580028E+04  0.21758019015E+04  0.00000000000E+00 0. -1.
<mgrwt>
<rscale>  0 0.99266143E+03</rscale>
<asrwt>0</asrwt>
<pdfrwt beam="1">  1        2 0.44890092E+00 0.99266143E+03</pdfrwt>
<pdfrwt beam="2">  1       -2 0.12988682E-01 0.99266143E+03</pdfrwt>
<totfact> 0.89507450E+01</totfact>
</mgrwt>
</event>
<event>
 6    1  0.4630212E-004  0.2035161E+04  0.7818608E-02  0.8590356E-01
          2   -1    0    0  501    0  0.00000000000E+00  0.00000000000E+00  0.25453490086E+04  0.25453490086E+04  0.00000000000E+00 0.  1.
         -2   -1    0    0    0  501 -0.00000000000E+00 -0.00000000000E+00 -0.40680872903E+03  0.40680872903E+03  0.00000000000E+00 0. -1.
         23    2    1    2    0    0  0.21352771513E+02  0.10091861897E+04  0.92164524472E+03  0.13710991580E+04  0.10756503836E+03 0.  0.
         13    1    3    3    0    0  0.31700272109E+02  0.25298664306E+03  0.28627362206E+03  0.38335327767E+03  0.00000000000E+00 0. -1.
        -13    1    3    3    0    0 -0.10347500596E+02  0.75619954669E+03  0.63537162266E+03  0.98774588031E+03  0.00000000000E+00 0.  1.
         22    1    1    2    0    0 -0.21352771513E+02 -0.10091861897E+04  0.12168950348E+04  0.15810585796E+04  0.00000000000E+00 0.  1.
<mgrwt>
<rscale>  0 0.20351611E+04</rscale>
<asrwt>0</asrwt>
<pdfrwt beam="1">  1        2 0.39159214E+00 0.20351611E+04</pdfrwt>
<pdfrwt beam="2">  1       -2 0.62585960E-01 0.20351611E+04</pdfrwt>
<totfact> 0.71897424E+00</totfact>
</mgrwt>
</event>
<event>
 6    1  0.4630212E-004  0.1982838E+04  0.7818608E-02  0.8614687E-01
         -4   -1    0    0    0  501 -0.00000000000E+00  0.00000000000E+00  0.13928138074E+04  0.13928138074E+04  0.00000000000E+00 0. -1.
          4   -1    0    0  501    0  0.00000000000E+00 -0.00000000000E+00 -0.70570220924E+03  0.70570220924E+03  0.00000000000E+00 0.  1.
         23    2    1    2    0    0 -0.48679684222E+03 -0.33634176033E+03 -0.49508057610E+03  0.77651931384E+03  0.88207270641E+02 0.  0.
         11    1    3    3    0    0 -0.14067650712E+03 -0.13137529873E+03 -0.12202720781E+03  0.22790346249E+03  0.00000000000E+00 0. -1.
        -11    1    3    3    0    0 -0.34612033510E+03 -0.20496646160E+03 -0.37305336829E+03  0.54861585134E+03  0.00000000000E+00 0.  1.
         22    1    1    2    0    0  0.48679684222E+03  0.33634176033E+03  0.11821921742E+04  0.13219967028E+04  0.00000000000E+00 0. -1.
<mgrwt>
<rscale>  0 0.19828381E+04</rscale>
<asrwt>0</asrwt>
<pdfrwt beam="1">  1        4 0.10856957E+00 0.19828381E+04</pdfrwt>
<pdfrwt beam="2">  1       -4 0.21427905E+00 0.19828381E+04</pdfrwt>
<totfact> 0.13375834E-01</totfact>
</mgrwt>
</event>
<event>
 6    1  0.4630212E-004  0.5102209E+03  0.7818608E-02  0.1011145E+00
         -2   -1    0    0    0  501 -0.00000000000E+00  0.00000000000E+00  0.68284985253E+02  0.68284985253E+02  0.00000000000E+00 0. -1.
          2   -1    0    0  501    0  0.00000000000E+00 -0.00000000000E+00 -0.95308409545E+03  0.95308409545E+03  0.00000000000E+00 0.  1.
         23    2    1    2    0    0 -0.11702166335E+03  0.20870032292E+03 -0.57759593024E+03  0.63198021561E+03  0.92369041467E+02 0.  0.
         13    1    3    3    0    0 -0.22376119570E+02  0.27946507860E+02 -0.27134671685E+02  0.44922026179E+02  0.00000000000E+00 0. -1.
        -13    1    3    3    0    0 -0.94645543779E+02  0.18075381506E+03 -0.55046125855E+03  0.58705818944E+03  0.00000000000E+00 0.  1.
         22    1    1    2    0    0  0.11702166335E+03 -0.20870032292E+03 -0.30720317996E+03  0.38938886509E+03  0.00000000000E+00 0. -1.
<mgrwt>
<rscale>  0 0.51022087E+03</rscale>
<asrwt>0</asrwt>
<pdfrwt beam="1">  1        2 0.14662831E+00 0.51022087E+03</pdfrwt>
<pdfrwt beam="2">  1       -2 0.10505383E-01 0.51022087E+03</pdfrwt>
<totfact> 0.17212526E+03</totfact>
</mgrwt>
</event>
<event>
 6    1  0.4630212E-004  0.5234627E+04  0.7818608E-02  0.7793299E-01
         -2   -1    0    0    0  501 -0.00000000000E+00  0.00000000000E+00  0.26169622790E+04  0.26169622790E+04  0.00000000000E+00 0. -1.
          2   -1    0    0  501    0  0.00000000000E+00 -0.00000000000E+00 -0.26176650423E+04  0.26176650423E+04  0.00000000000E+00 0.  1.
         23    2    1    2    0    0 -0.19501840927E+04  0.17317768380E+04  0.21059997341E+03  0.26179657347E+04  0.84399215107E+02 0.  0.
         13    1    3    3    0    0 -0.12792081117E+04  0.11457163563E+04  0.17811344429E+03  0.17264888535E+04  0.00000000000E+00 0. -1.
        -13    1    3    3    0    0 -0.67097598099E+03  0.58606048168E+03  0.32486529126E+02  0.89147688126E+03  0.00000000000E+00 0.  1.
         22    1    1    2    0    0  0.19501840927E+04 -0.17317768380E+04 -0.21130273669E+03  0.26166615865E+04  0.00000000000E+00 0. -1.
<mgrwt>
<rscale>  0 0.52346273E+04</rscale>
<asrwt>0</asrwt>
<pdfrwt beam="1">  1        2 0.40271770E+00 0.52346273E+04</pdfrwt>
<pdfrwt beam="2">  1       -2 0.40260958E+00 0.52346273E+04</pdfrwt>
<totfact> 0.15166413E-02</totfact>
</mgrwt>
</event>
<event>
 6    1  0.4630212E-004  0.3007609E+04  0.7818608E-02  0.8241561E-01
         -2   -1    0    0    0  501 -0.00000000000E+00  0.00000000000E+00  0.65670622513E+03  0.65670622513E+03  0.00000000000E+00 0. -1.
          2   -1    0    0  501    0  0.00000000000E+00 -0.00000000000E+00 -0.34435919808E+04  0.34435919808E+04  0.00000000000E+00 0.  1.
         23    2    1    2    0    0  0.13152715965E+04  0.63083914628E+03 -0.18849234824E+04  0.23852374655E+04  0.92324595583E+02 0.  0.
         13    1    3    3    0    0  0.28807691579E+03  0.11819106861E+03 -0.45815003312E+03  0.55394845515E+03  0.00000000000E+00 0. -1.
        -13    1    3    3    0    0  0.10271946808E+04  0.51264807767E+03 -0.14267734493E+04  0.18312890103E+04  0.00000000000E+00 0.  1.
         22    1    1    2    0    0 -0.13152715965E+04 -0.63083914628E+03 -0.90196227328E+03  0.17150607405E+04  0.00000000000E+00 0. -1.
<mgrwt>
<rscale>  0 0.30076092E+04</rscale>
<asrwt>0</asrwt>
<pdfrwt beam="1">  1        2 0.52978339E+00 0.30076092E+04</pdfrwt>
<pdfrwt beam="2">  1       -2 0.10103172E+00 0.30076092E+04</pdfrwt>
<totfact> 0.61313979E-01</totfact>
</mgrwt>
</event>
<event>
 6    1  0.4630212E-004  0.2009875E+04  0.7818608E-02  0.8602017E-01
          2   -1    0    0  501    0  0.00000000000E+00  0.00000000000E+00  0.76405717472E+03  0.76405717472E+03  0.00000000000E+00 0.  1.
         -2   -1    0    0    0  501 -0.00000000000E+00 -0.00000000000E+00 -0.13217593627E+04  0.13217593627E+04  0.00000000000E+00 0. -1.
         23    2    1    2    0    0 -0.22184147478E+03 -0.42065668037E+03 -0.11956892703E+04  0.12900821596E+04  0.92051423731E+02 0.  0.
         11    1    3    3    0    0 -0.17178356180E+03 -0.28987254028E+03 -0.73448309537E+03  0.80808483410E+03  0.00000000000E+00 0.  1.
        -11    1    3    3    0    0 -0.50057912982E+02 -0.13078414009E+03 -0.46120617498E+03  0.48199732550E+03  0.00000000000E+00 0. -1.
         22    1    1    2    0    0  0.22184147478E+03  0.42065668037E+03  0.63798708241E+03  0.79573437779E+03  0.00000000000E+00 0.  1.
<mgrwt>
<rscale>  0 0.20098753E+04</rscale>
<asrwt>0</asrwt>
<pdfrwt beam="1">  1        2 0.11754726E+00 0.20098753E+04</pdfrwt>
<pdfrwt beam="2">  1       -2 0.20334759E+00 0.20098753E+04</pdfrwt>
<totfact> 0.42944117E+00</totfact>
</mgrwt>
</event>
<event>
 6    1  0.4630212E-004  0.3909639E+03  0.7818608E-02  0.1046954E+00
          2   -1    0    0  501    0  0.00000000000E+00  0.00000000000E+00  0.93506667390E+03  0.93506667390E+03  0.00000000000E+00 0.  1.
         -2   -1    0    0    0  501 -0.00000000000E+00 -0.00000000000E+00 -0.40866805279E+02  0.40866805279E+02  0.00000000000E+00 0. -1.
         23    2    1    2    0    0 -0.73164241440E+02  0.26311310975E+02  0.89112306979E+03  0.89812115367E+03  0.80473535013E+02 0.  0.
         13    1    3    3    0    0 -0.42858092444E+02  0.55000877673E+02  0.59508044210E+03  0.59915160453E+03  0.00000000000E+00 0.  1.
        -13    1    3    3    0    0 -0.30306148997E+02 -0.28689566698E+02  0.29604262769E+03  0.29896954914E+03  0.00000000000E+00 0. -1.
         22    1    1    2    0    0  0.73164241440E+02 -0.26311310975E+02  0.30767988303E+01  0.77812325513E+02  0.00000000000E+00 0. -1.
<mgrwt>
<rscale>  0 0.39096387E+03</rscale>
<asrwt>0</asrwt>
<pdfrwt beam="1">  1        2 0.14385640E+00 0.39096387E+03</pdfrwt>
<pdfrwt beam="2">  1       -2 0.62872015E-02 0.39096387E+03</pdfrwt>
<totfact> 0.39890047E+03</totfact>
</mgrwt>
</event>
<event>
 6    1  0.4630212E-004  0.2737487E+04  0.7818608E-02  0.8322943E-01
         -2   -1    0    0    0  501 -0.00000000000E+00  0.00000000000E+00  0.10624601665E+04  0.10624601665E+04  0.00000000000E+00 0. -1.
          2   -1    0    0  501    0  0.00000000000E+00 -0.00000000000E+00 -0.17633210176E+04  0.17633210176E+04  0.00000000000E+00 0.  1.
         23    2    1    2    0    0  0.44585472015E+03  0.12826698786E+04 -0.18681739365E+03  0.13737931935E+04  0.91534425240E+02 0.  0.
         11    1    3    3    0    0  0.28827185463E+03  0.72357458003E+03 -0.77649359201E+02  0.78274533407E+03  0.00000000000E+00 0. -1.
        -11    1    3    3    0    0  0.15758286553E+03  0.55909529855E+03 -0.10916803445E+03  0.59104785941E+03  0.00000000000E+00 0.  1.
         22    1    1    2    0    0 -0.44585472015E+03 -0.12826698786E+04 -0.51404345747E+03  0.14519879907E+04  0.00000000000E+00 0.  1.
<mgrwt>
<rscale>  0 0.27374867E+04</rscale>
<asrwt>0</asrwt>
<pdfrwt beam="1">  1        2 0.27128016E+00 0.27374867E+04</pdfrwt>
<pdfrwt beam="2">  1       -2 0.16345541E+00 0.27374867E+04</pdfrwt>
<totfact> 0.18794348E+00</totfact>
</mgrwt>
</event>
<event>
 6    1  0.4630212E-004  0.2872532E+04  0.7818608E-02  0.8281097E-01
         -2   -1    0    0    0  501 -0.00000000000E+00  0.00000000000E+00  0.53648420675E+03  0.53648420675E+03  0.00000000000E+00 0. -1.
          2   -1    0    0  501    0  0.00000000000E+00 -0.00000000000E+00 -0.38451456262E+04  0.38451456262E+04  0.00000000000E+00 0.  1.
         23    2    1    2    0    0  0.32181179990E+03 -0.70378367800E+03  0.18470698426E+03  0.80357210507E+03  0.11285901841E+03 0.  0.
         13    1    3    3    0    0  0.20390440112E+03 -0.45593557432E+03  0.17401169308E+03  0.52889916057E+03  0.00000000000E+00 0. -1.
        -13    1    3    3    0    0  0.11790739878E+03 -0.24784810368E+03  0.10695291185E+02  0.27467294449E+03  0.00000000000E+00 0.  1.
         22    1    1    2    0    0 -0.32181179990E+03  0.70378367800E+03 -0.34933684037E+04  0.35780577279E+04  0.00000000000E+00 0.  1.
<mgrwt>
<rscale>  0 0.28725319E+04</rscale>
<asrwt>0</asrwt>
<pdfrwt beam="1">  1        2 0.59156088E+00 0.28725319E+04</pdfrwt>
<pdfrwt beam="2">  1       -2 0.82536030E-01 0.28725319E+04</pdfrwt>
<totfact> 0.50534398E-01</totfact>
</mgrwt>
</event>
<event>
 6    1  0.4630212E-004  0.4542704E+03  0.7818608E-02  0.1026456E+00
          2   -1    0    0  501    0  0.00000000000E+00  0.00000000000E+00  0.19326233215E+04  0.19326233215E+04  0.00000000000E+00 0.  1.
         -2   -1    0    0    0  501 -0.00000000000E+00 -0.00000000000E+00 -0.26694486921E+02  0.26694486921E+02  0.00000000000E+00 0. -1.
         23    2    1    2    0    0  0.17707319323E+03  0.11530206549E+03  0.76749100601E+03  0.80143604780E+03  0.92778296704E+02 0.  0.
         11    1    3    3    0    0  0.33012854401E+02  0.16686205224E+02  0.30247719261E+03  0.30473058601E+03  0.00000000000E+00 0.  1.
        -11    1    3    3    0    0  0.14406033882E+03  0.98615860265E+02  0.46501381340E+03  0.49670546179E+03  0.00000000000E+00 0. -1.
         22    1    1    2    0    0 -0.17707319323E+03 -0.11530206549E+03  0.11384378286E+04  0.11578817606E+04  0.00000000000E+00 0. -1.
<mgrwt>
<rscale>  0 0.45427035E+03</rscale>
<asrwt>0</asrwt>
<pdfrwt beam="1">  1        2 0.29732656E+00 0.45427035E+03</pdfrwt>
<pdfrwt beam="2">  1       -2 0.41068456E-02 0.45427035E+03</pdfrwt>
<totfact> 0.21092401E+03</totfact>
</mgrwt>
</event>
<event>
 6    1  0.4630212E-004  0.2796231E+04  0.7818608E-02  0.8304439E-01
         -2   -1    0    0    0  501 -0.00000000000E+00  0.00000000000E+00  0.14595072422E+04  0.14595072422E+04  0.00000000000E+00 0. -1.
          2   -1    0    0  501    0  0.00000000000E+00 -0.00000000000E+00 -0.13393061392E+04  0.13393061392E+04  0.00000000000E+00 0.  1.
         23    2    1    2    0    0 -0.52078293699E+03  0.45658923544E+03  0.12740067600E+04  0.14530956949E+04  0.93302072893E+02 0.  0.
         11    1    3    3    0    0 -0.12542238234E+03  0.11299705555E+03  0.39974269428E+03  0.43392779375E+03  0.00000000000E+00 0. -1.
        -11    1    3    3    0    0 -0.39536055466E+03  0.34359217989E+03  0.87426406570E+03  0.10191679012E+04  0.00000000000E+00 0.  1.
         22    1    1    2    0    0  0.52078293699E+03 -0.45658923544E+03 -0.11538056570E+04  0.13457176864E+04  0.00000000000E+00 0.  1.
<mgrwt>
<rscale>  0 0.27962310E+04</rscale>
<asrwt>0</asrwt>
<pdfrwt beam="1">  1        2 0.20604710E+00 0.27962310E+04</pdfrwt>
<pdfrwt beam="2">  1       -2 0.22453958E+00 0.27962310E+04</pdfrwt>
<totfact> 0.12630737E+00</totfact>
</mgrwt>
</event>
<event>
 6    1  0.4630212E-004  0.2478299E+04  0.7818608E-02  0.8410758E-01
         -2   -1    0    0    0  501 -0.00000000000E+00  0.00000000000E+00  0.52047596430E+03  0.52047596430E+03  0.00000000000E+00 0. -1.
          2   -1    0    0  501    0  0.00000000000E+00 -0.00000000000E+00 -0.29501680249E+04  0.29501680249E+04  0.00000000000E+00 0.  1.
         23    2    1    2    0    0  0.71907120706E+03  0.97446395830E+03 -0.15725685008E+04  0.19869647099E+04  0.91726016336E+02 0.  0.
         13    1    3    3    0    0  0.47938229329E+03  0.63870831942E+03 -0.96518328619E+03  0.12527308076E+04  0.00000000000E+00 0. -1.
        -13    1    3    3    0    0  0.23968891377E+03  0.33575563888E+03 -0.60738521457E+03  0.73423390231E+03  0.00000000000E+00 0.  1.
         22    1    1    2    0    0 -0.71907120706E+03 -0.97446395830E+03 -0.85712355981E+03  0.14836792792E+04  0.00000000000E+00 0. -1.
<mgrwt>
<rscale>  0 0.24782991E+04</rscale>
<asrwt>0</asrwt>
<pdfrwt beam="1">  1        2 0.45387201E+00 0.24782991E+04</pdfrwt>
<pdfrwt beam="2">  1       -2 0.80073224E-01 0.24782991E+04</pdfrwt>
<totfact> 0.23057312E+00</totfact>
</mgrwt>
</event>
<event>
 6    1  0.4630212E-004  0.1581245E+04  0.7818608E-02  0.8832153E-01
          1   -1    0    0  501    0  0.00000000000E+00  0.00000000000E+00  0.12682117297E+04  0.12682117297E+04  0.00000000000E+00 0.  1.
         -1   -1    0    0    0  501 -0.00000000000E+00 -0.00000000000E+00 -0.49288639393E+03  0.49288639393E+03  0.00000000000E+00 0. -1.
         23    2    1    2    0    0 -0.52996435059E+03 -0.19516413521E+03 -0.22316839401E+03  0.61395341567E+03  0.90462212904E+02 0.  0.
         11    1    3    3    0    0 -0.15550090262E+03 -0.19578815910E+02 -0.40845093593E+02  0.16196352188E+03  0.00000000000E+00 0.  1.
        -11    1    3    3    0    0 -0.37446344797E+03 -0.17558531930E+03 -0.18232330042E+03  0.45198989379E+03  0.00000000000E+00 0. -1.
         22    1    1    2    0    0  0.52996435059E+03  0.19516413521E+03  0.99849372977E+03  0.11471447079E+04  0.00000000000E+00 0.  1.
<mgrwt>
<rscale>  0 0.15812455E+04</rscale>
<asrwt>0</asrwt>
<pdfrwt beam="1">  1        1 0.19510950E+00 0.15812455E+04</pdfrwt>
<pdfrwt beam="2">  1       -1 0.75828676E-01 0.15812455E+04</pdfrwt>
<totfact> 0.16008089E+01</totfact>
</mgrwt>
</event>
<event>
 6    1  0.4630212E-004  0.4455193E+04  0.7818608E-02  0.7918528E-01
         -2   -1    0    0    0  501 -0.00000000000E+00  0.00000000000E+00  0.12829253185E+04  0.12829253185E+04  0.00000000000E+00 0.  1.
          2   -1    0    0  501    0  0.00000000000E+00 -0.00000000000E+00 -0.38678691574E+04  0.38678691574E+04  0.00000000000E+00 0. -1.
         23    2    1    2    0    0  0.36788660295E+02  0.14131655138E+04  0.69591180066E+03  0.15783437900E+04  0.92117915341E+02 0.  0.
         13    1    3    3    0    0  0.14192211057E+01  0.68869608701E+03  0.29108381848E+03  0.74768583230E+03  0.00000000000E+00 0. -1.
        -13    1    3    3    0    0  0.35369439189E+02  0.72446942679E+03  0.40482798219E+03  0.83065795774E+03  0.00000000000E+00 0.  1.
         22    1    1    2    0    0 -0.36788660295E+02 -0.14131655138E+04 -0.32808556396E+04  0.35724506858E+04  0.00000000000E+00 0. -1.
<mgrwt>
<rscale>  0 0.44551935E+04</rscale>
<asrwt>0</asrwt>
<pdfrwt beam="1">  1        2 0.59505679E+00 0.44551935E+04</pdfrwt>
<pdfrwt beam="2">  1       -2 0.19737313E+00 0.44551935E+04</pdfrwt>
<totfact> 0.45681787E-02</totfact>
</mgrwt>
</event>
<event>
 6    1  0.4630212E-004  0.1795272E+04  0.7818608E-02  0.8708818E-01
         -2   -1    0    0    0  501 -0.00000000000E+00  0.00000000000E+00  0.26075537548E+03  0.26075537548E+03  0.00000000000E+00 0. -1.
          2   -1    0    0  501    0  0.00000000000E+00 -0.00000000000E+00 -0.30900631841E+04  0.30900631841E+04  0.00000000000E+00 0.  1.
         23    2    1    2    0    0 -0.44478484405E+03 -0.62240807136E+03 -0.22863801325E+04  0.24127376322E+04  0.92430551014E+02 0.  0.
         11    1    3    3    0    0 -0.10771772322E+03 -0.16509666003E+03 -0.72071269173E+03  0.74718592002E+03  0.00000000000E+00 0. -1.
        -11    1    3    3    0    0 -0.33706712083E+03 -0.45731141134E+03 -0.15656674408E+04  0.16655517122E+04  0.00000000000E+00 0.  1.
         22    1    1    2    0    0  0.44478484405E+03  0.62240807136E+03 -0.54292767609E+03  0.93808092735E+03  0.00000000000E+00 0. -1.
<mgrwt>
<rscale>  0 0.17952722E+04</rscale>
<asrwt>0</asrwt>
<pdfrwt beam="1">  1        2 0.47539432E+00 0.17952722E+04</pdfrwt>
<pdfrwt beam="2">  1       -2 0.40116213E-01 0.17952722E+04</pdfrwt>
<totfact> 0.85197174E+00</totfact>
</mgrwt>
</event>
<event>
 6    1  0.4630212E-004  0.9543524E+03  0.7818608E-02  0.9360078E-01
          2   -1    0    0  501    0  0.00000000000E+00  0.00000000000E+00  0.69785299732E+03  0.69785299732E+03  0.00000000000E+00 0.  1.
         -2   -1    0    0    0  501 -0.00000000000E+00 -0.00000000000E+00 -0.32628238782E+03  0.32628238782E+03  0.00000000000E+00 0. -1.
         23    2    1    2    0    0 -0.36900506579E+02 -0.34094179325E+03 -0.16179445565E+03  0.39003661799E+03  0.91368286204E+02 0.  0.
         11    1    3    3    0    0 -0.23921896757E+02 -0.32003039015E+03 -0.17114772597E+03  0.36370764615E+03  0.00000000000E+00 0. -1.
        -11    1    3    3    0    0 -0.12978609822E+02 -0.20911403101E+02  0.93532703176E+01  0.26328971841E+02  0.00000000000E+00 0.  1.
         22    1    1    2    0    0  0.36900506579E+02  0.34094179325E+03  0.53336506516E+03  0.63409876715E+03  0.00000000000E+00 0.  1.
<mgrwt>
<rscale>  0 0.95435243E+03</rscale>
<asrwt>0</asrwt>
<pdfrwt beam="1">  1        2 0.10736200E+00 0.95435243E+03</pdfrwt>
<pdfrwt beam="2">  1       -2 0.50197291E-01 0.95435243E+03</pdfrwt>
<totfact> 0.15453028E+02</totfact>
</mgrwt>
</event>
<event>
 6    1  0.4630212E-004  0.2223923E+04  0.7818608E-02  0.8508536E-01
          2   -1    0    0  501    0  0.00000000000E+00  0.00000000000E+00  0.11598118617E+04  0.11598118617E+04  0.00000000000E+00 0.  1.
         -2   -1    0    0    0  501 -0.00000000000E+00 -0.00000000000E+00 -0.10660854135E+04  0.10660854135E+04  0.00000000000E+00 0. -1.
         23    2    1    2    0    0 -0.55186308201E+02  0.81012826657E+03 -0.71058504589E+03  0.10829754421E+04  0.92473584380E+02 0.  0.
         11    1    3    3    0    0 -0.22404887209E+02  0.30885727821E+03 -0.21255180487E+03  0.37559694758E+03  0.00000000000E+00 0.  1.
        -11    1    3    3    0    0 -0.32781420992E+02  0.50127098836E+03 -0.49803324102E+03  0.70737849451E+03  0.00000000000E+00 0. -1.
         22    1    1    2    0    0  0.55186308201E+02 -0.81012826657E+03  0.80431149414E+03  0.11429218331E+04  0.00000000000E+00 0.  1.
<mgrwt>
<rscale>  0 0.22239231E+04</rscale>
<asrwt>0</asrwt>
<pdfrwt beam="1">  1        2 0.17843259E+00 0.22239231E+04</pdfrwt>
<pdfrwt beam="2">  1       -2 0.16401314E+00 0.22239231E+04</pdfrwt>
<totfact> 0.43000268E+00</totfact>
</mgrwt>
</event>
<event>
 6    1  0.4630212E-004  0.1554583E+04  0.7818608E-02  0.8848946E-01
         -1   -1    0    0    0  501 -0.00000000000E+00  0.00000000000E+00  0.47574603172E+03  0.47574603172E+03  0.00000000000E+00 0. -1.
          1   -1    0    0  501    0  0.00000000000E+00 -0.00000000000E+00 -0.12699681197E+04  0.12699681197E+04  0.00000000000E+00 0.  1.
         23    2    1    2    0    0  0.24959496857E+03  0.12919671708E+03 -0.12090839622E+04  0.12446155437E+04  0.90522837106E+02 0.  0.
         13    1    3    3    0    0  0.61792834514E+02  0.63822424452E+02 -0.25506385642E+03  0.27009114593E+03  0.00000000000E+00 0. -1.
        -13    1    3    3    0    0  0.18780213405E+03  0.65374292632E+02 -0.95402010576E+03  0.97452439779E+03  0.00000000000E+00 0.  1.
         22    1    1    2    0    0 -0.24959496857E+03 -0.12919671708E+03  0.41486187416E+03  0.50109860773E+03  0.00000000000E+00 0. -1.
<mgrwt>
<rscale>  0 0.15545833E+04</rscale>
<asrwt>0</asrwt>
<pdfrwt beam="1">  1        1 0.19537971E+00 0.15545833E+04</pdfrwt>
<pdfrwt beam="2">  1       -1 0.73191699E-01 0.15545833E+04</pdfrwt>
<totfact> 0.17224953E+01</totfact>
</mgrwt>
</event>
<event>
 6    1  0.4630212E-004  0.2207497E+04  0.7818608E-02  0.8515314E-01
         -2   -1    0    0    0  501 -0.00000000000E+00  0.00000000000E+00  0.99575815360E+03  0.99575815360E+03  0.00000000000E+00 0. -1.
          2   -1    0    0  501    0  0.00000000000E+00 -0.00000000000E+00 -0.12234507735E+04  0.12234507735E+04  0.00000000000E+00 0.  1.
         23    2    1    2    0    0  0.80858758513E+03 -0.28979348509E+03  0.57980582436E+03  0.10402908280E+04  0.90752774594E+02 0.  0.
         13    1    3    3    0    0  0.52210665016E+03 -0.23224994254E+03  0.37632615069E+03  0.68421981968E+03  0.00000000000E+00 0.  1.
        -13    1    3    3    0    0  0.28648093496E+03 -0.57543542549E+02  0.20347967367E+03  0.35607100835E+03  0.00000000000E+00 0. -1.
         22    1    1    2    0    0 -0.80858758513E+03  0.28979348509E+03 -0.80749844426E+03  0.11789180991E+04  0.00000000000E+00 0.  1.
<mgrwt>
<rscale>  0 0.22074973E+04</rscale>
<asrwt>0</asrwt>
<pdfrwt beam="1">  1        2 0.18822320E+00 0.22074973E+04</pdfrwt>
<pdfrwt beam="2">  1       -2 0.15319356E+00 0.22074973E+04</pdfrwt>
<totfact> 0.47462714E+00</totfact>
</mgrwt>
</event>
<event>
 6    1  0.4630212E-004  0.1429971E+04  0.7818608E-02  0.8932405E-01
         -2   -1    0    0    0  501 -0.00000000000E+00  0.00000000000E+00  0.47876888763E+03  0.47876888763E+03  0.00000000000E+00 0. -1.
          2   -1    0    0  501    0  0.00000000000E+00 -0.00000000000E+00 -0.10677475796E+04  0.10677475796E+04  0.00000000000E+00 0.  1.
         23    2    1    2    0    0  0.24546251959E+03 -0.48476593538E+03 -0.79340924037E+03  0.96596353275E+03  0.91309710681E+02 0.  0.
         11    1    3    3    0    0  0.89195691083E+02 -0.16506017873E+03 -0.35293848905E+03  0.39970778196E+03  0.00000000000E+00 0.  1.
        -11    1    3    3    0    0  0.15626682851E+03 -0.31970575665E+03 -0.44047075132E+03  0.56625575079E+03  0.00000000000E+00 0. -1.
         22    1    1    2    0    0 -0.24546251959E+03  0.48476593538E+03  0.20443054839E+03  0.58055293449E+03  0.00000000000E+00 0. -1.
<mgrwt>
<rscale>  0 0.14299711E+04</rscale>
<asrwt>0</asrwt>
<pdfrwt beam="1">  1        2 0.16426886E+00 0.14299711E+04</pdfrwt>
<pdfrwt beam="2">  1       -2 0.73656753E-01 0.14299711E+04</pdfrwt>
<totfact> 0.36835312E+01</totfact>
</mgrwt>
</event>
<event>
 6    1  0.4630212E-004  0.1376441E+04  0.7818608E-02  0.8971051E-01
         -1   -1    0    0    0  501 -0.00000000000E+00  0.00000000000E+00  0.21787689886E+04  0.21787689886E+04  0.00000000000E+00 0.  1.
          1   -1    0    0  501    0  0.00000000000E+00 -0.00000000000E+00 -0.21739208206E+03  0.21739208206E+03  0.00000000000E+00 0. -1.
         23    2    1    2    0    0 -0.12605666659E+03 -0.31645208906E+03  0.20200799843E+04  0.20505047975E+04  0.88400079461E+02 0.  0.
         11    1    3    3    0    0 -0.83052874208E+02 -0.94400859682E+02  0.72777613894E+03  0.73855765559E+03  0.00000000000E+00 0. -1.
        -11    1    3    3    0    0 -0.43003792386E+02 -0.22205122937E+03  0.12923038453E+04  0.13119471419E+04  0.00000000000E+00 0.  1.
         22    1    1    2    0    0  0.12605666659E+03  0.31645208906E+03 -0.58703077664E+02  0.34565627318E+03  0.00000000000E+00 0. -1.
<mgrwt>
<rscale>  0 0.13764405E+04</rscale>
<asrwt>0</asrwt>
<pdfrwt beam="1">  1        1 0.33444937E-01 0.13764405E+04</pdfrwt>
<pdfrwt beam="2">  1       -1 0.33519521E+00 0.13764405E+04</pdfrwt>
<totfact> 0.25521188E+00</totfact>
</mgrwt>
</event>
<event>
 6    1  0.4630212E-004  0.3538062E+04  0.7818608E-02  0.8104828E-01
         -2   -1    0    0    0  501 -0.00000000000E+00  0.00000000000E+00  0.19579668451E+04  0.19579668451E+04  0.00000000000E+00 0. -1.
          2   -1    0    0  501    0  0.00000000000E+00 -0.00000000000E+00 -0.15983271088E+04  0.15983271088E+04  0.00000000000E+00 0.  1.
         23    2    1    2    0    0  0.17392649688E+04 -0.31221219053E+03  0.23269200058E+03  0.17846746915E+04  0.91646624154E+02 0.  0.
         11    1    3    3    0    0  0.29518945730E+03 -0.73025163825E+02  0.68836591887E+02  0.31178192160E+03  0.00000000000E+00 0.  1.
        -11    1    3    3    0    0  0.14440755115E+04 -0.23918702670E+03  0.16385540869E+03  0.14728927699E+04  0.00000000000E+00 0. -1.
         22    1    1    2    0    0 -0.17392649688E+04  0.31221219053E+03  0.12694773567E+03  0.17716192624E+04  0.00000000000E+00 0. -1.
<mgrwt>
<rscale>  0 0.35380625E+04</rscale>
<asrwt>0</asrwt>
<pdfrwt beam="1">  1        2 0.24589648E+00 0.35380625E+04</pdfrwt>
<pdfrwt beam="2">  1       -2 0.30122567E+00 0.35380625E+04</pdfrwt>
<totfact> 0.28596591E-01</totfact>
</mgrwt>
</event>
<event>
 6    1  0.4630212E-004  0.4364131E+04  0.7818608E-02  0.7934865E-01
          2   -1    0    0  501    0  0.00000000000E+00  0.00000000000E+00  0.36151827899E+04  0.36151827899E+04  0.00000000000E+00 0.  1.
         -2   -1    0    0    0  501 -0.00000000000E+00 -0.00000000000E+00 -0.13170592698E+04  0.13170592698E+04  0.00000000000E+00 0. -1.
         23    2    1    2    0    0 -0.20574682919E+04  0.19798545339E+03  0.36264511453E+03  0.21005551648E+04  0.91904893192E+02 0.  0.
         13    1    3    3    0    0 -0.16211516332E+04  0.12140469275E+03  0.26940231331E+03  0.16478620463E+04  0.00000000000E+00 0. -1.
        -13    1    3    3    0    0 -0.43631665867E+03  0.76580760636E+02  0.93242801220E+02  0.45269311847E+03  0.00000000000E+00 0.  1.
         22    1    1    2    0    0  0.20574682919E+04 -0.19798545339E+03  0.19354784056E+04  0.28316868949E+04  0.00000000000E+00 0.  1.
<mgrwt>
<rscale>  0 0.43641311E+04</rscale>
<asrwt>0</asrwt>
<pdfrwt beam="1">  1        2 0.55618196E+00 0.43641311E+04</pdfrwt>
<pdfrwt beam="2">  1       -2 0.20262450E+00 0.43641311E+04</pdfrwt>
<totfact> 0.65776726E-02</totfact>
</mgrwt>
</event>
<event>
 6    1  0.4630212E-004  0.3256760E+04  0.7818608E-02  0.8173986E-01
         -2   -1    0    0    0  501 -0.00000000000E+00  0.00000000000E+00  0.12708636948E+04  0.12708636948E+04  0.00000000000E+00 0. -1.
          2   -1    0    0  501    0  0.00000000000E+00 -0.00000000000E+00 -0.20864715034E+04  0.20864715034E+04  0.00000000000E+00 0.  1.
         23    2    1    2    0    0  0.67920659654E+03  0.64388757578E+03 -0.17794029577E+04  0.20139015747E+04  0.11666985870E+03 0.  0.
         13    1    3    3    0    0  0.28214917796E+03  0.34763448775E+03 -0.83792563959E+03  0.95004066923E+03  0.00000000000E+00 0. -1.
        -13    1    3    3    0    0  0.39705741858E+03  0.29625308803E+03 -0.94147731809E+03  0.10638609055E+04  0.00000000000E+00 0.  1.
         22    1    1    2    0    0 -0.67920659654E+03 -0.64388757578E+03  0.96379514909E+03  0.13434336234E+04  0.00000000000E+00 0. -1.
<mgrwt>
<rscale>  0 0.32567597E+04</rscale>
<asrwt>0</asrwt>
<pdfrwt beam="1">  1        2 0.32099562E+00 0.32567597E+04</pdfrwt>
<pdfrwt beam="2">  1       -2 0.19551749E+00 0.32567597E+04</pdfrwt>
<totfact> 0.71358700E-01</totfact>
</mgrwt>
</event>
<event>
 6    1  0.4630212E-004  0.6635947E+03  0.7818608E-02  0.9781599E-01
         -2   -1    0    0    0  501 -0.00000000000E+00  0.00000000000E+00  0.22348233059E+03  0.22348233059E+03  0.00000000000E+00 0.  1.
          2   -1    0    0  501    0  0.00000000000E+00 -0.00000000000E+00 -0.49260937743E+03  0.49260937743E+03  0.00000000000E+00 0. -1.
         23    2    1    2    0    0 -0.10483934388E+03  0.16496753801E+03  0.14346606564E+03  0.25954088599E+03  0.92592563898E+02 0.  0.
         11    1    3    3    0    0 -0.69344051677E+02  0.10013608388E+03  0.32241999767E+02  0.12599753707E+03  0.00000000000E+00 0. -1.
        -11    1    3    3    0    0 -0.35495292207E+02  0.64831454129E+02  0.11122406587E+03  0.13354334893E+03  0.00000000000E+00 0.  1.
         22    1    1    2    0    0  0.10483934388E+03 -0.16496753801E+03 -0.41259311249E+03  0.45655082203E+03  0.00000000000E+00 0.  1.
<mgrwt>
<rscale>  0 0.66359473E+03</rscale>
<asrwt>0</asrwt>
<pdfrwt beam="1">  1        2 0.75786057E-01 0.66359473E+03</pdfrwt>
<pdfrwt beam="2">  1       -2 0.34381897E-01 0.66359473E+03</pdfrwt>
<totfact> 0.50014438E+02</totfact>
</mgrwt>
</event>
<event>
 6    1  0.4630212E-004  0.3758600E+04  0.7818608E-02  0.8055098E-01
          2   -1    0    0  501    0  0.00000000000E+00  0.00000000000E+00  0.14884799193E+04  0.14884799193E+04  0.00000000000E+00 0.  1.
         -2   -1    0    0    0  501 -0.00000000000E+00 -0.00000000000E+00 -0.23727351339E+04  0.23727351339E+04  0.00000000000E+00 0. -1.
         23    2    1    2    0    0  0.15557452979E+03 -0.15155020847E+04 -0.15708195522E+04  0.21901912376E+04  0.92269110075E+02 0.  0.
         11    1    3    3    0    0  0.16246119673E+03 -0.13935948872E+04 -0.14212426775E+04  0.19971056803E+04  0.00000000000E+00 0. -1.
        -11    1    3    3    0    0 -0.68866669444E+01 -0.12190719748E+03 -0.14957687465E+03  0.19308555722E+03  0.00000000000E+00 0.  1.
         22    1    1    2    0    0 -0.15557452979E+03  0.15155020847E+04  0.68656433755E+03  0.16710238157E+04  0.00000000000E+00 0.  1.
<mgrwt>
<rscale>  0 0.37586001E+04</rscale>
<asrwt>0</asrwt>
<pdfrwt beam="1">  1        2 0.22899691E+00 0.37586001E+04</pdfrwt>
<pdfrwt beam="2">  1       -2 0.36503617E+00 0.37586001E+04</pdfrwt>
<totfact> 0.12942179E-01</totfact>
</mgrwt>
</event>
<event>
 6    1  0.4630212E-004  0.2305177E+04  0.7818608E-02  0.8475883E-01
         -2   -1    0    0    0  501 -0.00000000000E+00  0.00000000000E+00  0.88414125029E+03  0.88414125029E+03  0.00000000000E+00 0. -1.
          2   -1    0    0  501    0  0.00000000000E+00 -0.00000000000E+00 -0.15025424393E+04  0.15025424393E+04  0.00000000000E+00 0.  1.
         23    2    1    2    0    0  0.52138689163E+03  0.47925804264E+03 -0.12489082149E+04  0.14384897897E+04  0.89154829856E+02 0.  0.
         11    1    3    3    0    0  0.39728212614E+03  0.33812984940E+03 -0.84627902187E+03  0.99415947698E+03  0.00000000000E+00 0. -1.
        -11    1    3    3    0    0  0.12410476549E+03  0.14112819324E+03 -0.40262919299E+03  0.44433031271E+03  0.00000000000E+00 0.  1.
         22    1    1    2    0    0 -0.52138689163E+03 -0.47925804264E+03  0.63050702584E+03  0.94819389991E+03  0.00000000000E+00 0. -1.
<mgrwt>
<rscale>  0 0.23051766E+04</rscale>
<asrwt>0</asrwt>
<pdfrwt beam="1">  1        2 0.23116037E+00 0.23051766E+04</pdfrwt>
<pdfrwt beam="2">  1       -2 0.13602173E+00 0.23051766E+04</pdfrwt>
<totfact> 0.44376163E+00</totfact>
</mgrwt>
</event>
<event>
 6    1  0.4630212E-004  0.8660042E+03  0.7818608E-02  0.9469105E-01
          2   -1    0    0  501    0  0.00000000000E+00  0.00000000000E+00  0.20688991232E+04  0.20688991232E+04  0.00000000000E+00 0.  1.
         -2   -1    0    0    0  501 -0.00000000000E+00 -0.00000000000E+00 -0.90623478371E+02  0.90623478371E+02  0.00000000000E+00 0. -1.
         23    2    1    2    0    0  0.12214089121E+03  0.23680349346E+03  0.18360265451E+04  0.18574810511E+04  0.90818990959E+02 0.  0.
         11    1    3    3    0    0  0.12610940374E+03  0.24080077813E+03  0.17226197970E+04  0.17439345061E+04  0.00000000000E+00 0.  1.
        -11    1    3    3    0    0 -0.39685125278E+01 -0.39972846629E+01  0.11340674809E+03  0.11354654503E+03  0.00000000000E+00 0. -1.
         22    1    1    2    0    0 -0.12214089121E+03 -0.23680349346E+03  0.14224909971E+03  0.30204155044E+03  0.00000000000E+00 0. -1.
<mgrwt>
<rscale>  0 0.86600424E+03</rscale>
<asrwt>0</asrwt>
<pdfrwt beam="1">  1        2 0.31829214E+00 0.86600424E+03</pdfrwt>
<pdfrwt beam="2">  1       -2 0.13942075E-01 0.86600424E+03</pdfrwt>
<totfact> 0.24625538E+02</totfact>
</mgrwt>
</event>
<event>
 6    1  0.4630212E-004  0.1951617E+04  0.7818608E-02  0.8629582E-01
          2   -1    0    0  501    0  0.00000000000E+00  0.00000000000E+00  0.15534167961E+04  0.15534167961E+04  0.00000000000E+00 0.  1.
         -2   -1    0    0    0  501 -0.00000000000E+00 -0.00000000000E+00 -0.61297263366E+03  0.61297263366E+03  0.00000000000E+00 0. -1.
         23    2    1    2    0    0 -0.35464660393E+03 -0.51621993871E+03  0.12987729492E+04  0.14448239385E+04  0.91911918827E+02 0.  0.
         13    1    3    3    0    0 -0.26759962278E+03 -0.37205049170E+03  0.10342594642E+04  0.11312487639E+04  0.00000000000E+00 0.  1.
        -13    1    3    3    0    0 -0.87046981159E+02 -0.14416944701E+03  0.26451348499E+03  0.31357517459E+03  0.00000000000E+00 0. -1.
         22    1    1    2    0    0  0.35464660393E+03  0.51621993871E+03 -0.35832878675E+03  0.72156549128E+03  0.00000000000E+00 0. -1.
<mgrwt>
<rscale>  0 0.19516167E+04</rscale>
<asrwt>0</asrwt>
<pdfrwt beam="1">  1        2 0.23898720E+00 0.19516167E+04</pdfrwt>
<pdfrwt beam="2">  1       -2 0.94303482E-01 0.19516167E+04</pdfrwt>
<totfact> 0.10474612E+01</totfact>
</mgrwt>
</event>
<event>
 6    1  0.4630212E-004  0.3423521E+04  0.7818608E-02  0.8132158E-01
         -2   -1    0    0    0  501 -0.00000000000E+00  0.00000000000E+00  0.11741718352E+04  0.11741718352E+04  0.00000000000E+00 0. -1.
          2   -1    0    0  501    0  0.00000000000E+00 -0.00000000000E+00 -0.24954811073E+04  0.24954811073E+04  0.00000000000E+00 0.  1.
         23    2    1    2    0    0 -0.54621238706E+03 -0.28112256708E+03 -0.23723682909E+04  0.24522364441E+04  0.89187445089E+02 0.  0.
         11    1    3    3    0    0 -0.37713985575E+03 -0.18839917199E+03 -0.14562993024E+04  0.15160924698E+04  0.00000000000E+00 0.  1.
        -11    1    3    3    0    0 -0.16907253131E+03 -0.92723395094E+02 -0.91606898853E+03  0.93614397429E+03  0.00000000000E+00 0. -1.
         22    1    1    2    0    0  0.54621238706E+03  0.28112256708E+03  0.10510590188E+04  0.12174164984E+04  0.00000000000E+00 0. -1.
<mgrwt>
<rscale>  0 0.34235208E+04</rscale>
<asrwt>0</asrwt>
<pdfrwt beam="1">  1        2 0.38392017E+00 0.34235208E+04</pdfrwt>
<pdfrwt beam="2">  1       -2 0.18064182E+00 0.34235208E+04</pdfrwt>
<totfact> 0.51968373E-01</totfact>
</mgrwt>
</event>
<event>
 6    1  0.4630212E-004  0.2414322E+04  0.7818608E-02  0.8434161E-01
          2   -1    0    0  501    0  0.00000000000E+00  0.00000000000E+00  0.12260612920E+04  0.12260612920E+04  0.00000000000E+00 0.  1.
         -2   -1    0    0    0  501 -0.00000000000E+00 -0.00000000000E+00 -0.11885516066E+04  0.11885516066E+04  0.00000000000E+00 0. -1.
         23    2    1    2    0    0  0.17101183103E+03 -0.10609049365E+04 -0.52738124088E+03  0.12005840319E+04  0.92231848111E+02 0.  0.
         13    1    3    3    0    0  0.89100085115E+02 -0.30825931191E+03 -0.13905592217E+03  0.34971299380E+03  0.00000000000E+00 0. -1.
        -13    1    3    3    0    0  0.81911745911E+02 -0.75264562456E+03 -0.38832531871E+03  0.85087103808E+03  0.00000000000E+00 0.  1.
         22    1    1    2    0    0 -0.17101183103E+03  0.10609049365E+04  0.56489092633E+03  0.12140288667E+04  0.00000000000E+00 0. -1.
<mgrwt>
<rscale>  0 0.24143215E+04</rscale>
<asrwt>0</asrwt>
<pdfrwt beam="1">  1        2 0.18862481E+00 0.24143215E+04</pdfrwt>
<pdfrwt beam="2">  1       -2 0.18285409E+00 0.24143215E+04</pdfrwt>
<totfact> 0.28446994E+00</totfact>
</mgrwt>
</event>
<event>
 6    1  0.4630212E-004  0.3216901E+04  0.7818608E-02  0.8184368E-01
          2   -1    0    0  501    0  0.00000000000E+00  0.00000000000E+00  0.36204069331E+04  0.36204069331E+04  0.00000000000E+00 0.  1.
         -2   -1    0    0    0  501 -0.00000000000E+00 -0.00000000000E+00 -0.71459171038E+03  0.71459171038E+03  0.00000000000E+00 0. -1.
         23    2    1    2    0    0  0.12539765425E+04 -0.79597765156E+03  0.22812387476E+04  0.27237465328E+04  0.93313237173E+02 0.  0.
         11    1    3    3    0    0  0.44773184378E+03 -0.26929915616E+03  0.88182248584E+03  0.10249862126E+04  0.00000000000E+00 0.  1.
        -11    1    3    3    0    0  0.80624469876E+03 -0.52667849541E+03  0.13994162617E+04  0.16987603202E+04  0.00000000000E+00 0. -1.
         22    1    1    2    0    0 -0.12539765425E+04  0.79597765156E+03  0.62457647515E+03  0.16112521107E+04  0.00000000000E+00 0.  1.
<mgrwt>
<rscale>  0 0.32169009E+04</rscale>
<asrwt>0</asrwt>
<pdfrwt beam="1">  1        2 0.55698567E+00 0.32169009E+04</pdfrwt>
<pdfrwt beam="2">  1       -2 0.10993719E+00 0.32169009E+04</pdfrwt>
<totfact> 0.36870107E-01</totfact>
</mgrwt>
</event>
<event>
 6    1  0.4630212E-004  0.4029911E+04  0.7818608E-02  0.7998540E-01
          2   -1    0    0  501    0  0.00000000000E+00  0.00000000000E+00  0.19077870977E+04  0.19077870977E+04  0.00000000000E+00 0.  1.
         -2   -1    0    0    0  501 -0.00000000000E+00 -0.00000000000E+00 -0.21281434766E+04  0.21281434766E+04  0.00000000000E+00 0. -1.
         23    2    1    2    0    0  0.92893156083E+03 -0.25741567846E+03  0.16605741569E+04  0.19223846542E+04  0.94231374204E+02 0.  0.
         13    1    3    3    0    0  0.65529313208E+03 -0.13741472569E+03  0.11657532040E+04  0.13443483285E+04  0.00000000000E+00 0. -1.
        -13    1    3    3    0    0  0.27363842875E+03 -0.12000095277E+03  0.49482095290E+03  0.57803632566E+03  0.00000000000E+00 0.  1.
         22    1    1    2    0    0 -0.92893156083E+03  0.25741567846E+03 -0.18809305358E+04  0.21135459202E+04  0.00000000000E+00 0. -1.
<mgrwt>
<rscale>  0 0.40299105E+04</rscale>
<asrwt>0</asrwt>
<pdfrwt beam="1">  1        2 0.29350571E+00 0.40299105E+04</pdfrwt>
<pdfrwt beam="2">  1       -2 0.32740669E+00 0.40299105E+04</pdfrwt>
<totfact> 0.12745313E-01</totfact>
</mgrwt>
</event>
<event>
 6    1  0.4630212E-004  0.2984720E+04  0.7818608E-02  0.8248108E-01
         -2   -1    0    0    0  501 -0.00000000000E+00  0.00000000000E+00  0.14284239509E+04  0.14284239509E+04  0.00000000000E+00 0. -1.
          2   -1    0    0  501    0  0.00000000000E+00 -0.00000000000E+00 -0.15591580052E+04  0.15591580052E+04  0.00000000000E+00 0.  1.
         23    2    1    2    0    0 -0.14146337472E+04 -0.41810408538E+03 -0.28256776484E+03  0.15046614792E+04  0.90343568180E+02 0.  0.
         11    1    3    3    0    0 -0.11028102391E+04 -0.34059612596E+03 -0.18559074298E+03  0.11690338183E+04  0.00000000000E+00 0. -1.
        -11    1    3    3    0    0 -0.31182350807E+03 -0.77507959419E+02 -0.96977021864E+02  0.33562766085E+03  0.00000000000E+00 0.  1.
         22    1    1    2    0    0  0.14146337472E+04  0.41810408538E+03  0.15183371055E+03  0.14829204768E+04  0.00000000000E+00 0.  1.
<mgrwt>
<rscale>  0 0.29847202E+04</rscale>
<asrwt>0</asrwt>
<pdfrwt beam="1">  1        2 0.23987046E+00 0.29847202E+04</pdfrwt>
<pdfrwt beam="2">  1       -2 0.21975753E+00 0.29847202E+04</pdfrwt>
<totfact> 0.99946391E-01</totfact>
</mgrwt>
</event>
<event>
 6    1  0.4630212E-004  0.4558432E+03  0.7818608E-02  0.1025994E+00
          2   -1    0    0  501    0  0.00000000000E+00  0.00000000000E+00  0.26500083030E+03  0.26500083030E+03  0.00000000000E+00 0.  1.
         -2   -1    0    0    0  501 -0.00000000000E+00 -0.00000000000E+00 -0.19603054929E+03  0.19603054929E+03  0.00000000000E+00 0. -1.
         23    2    1    2    0    0  0.50985050979E+02 -0.13824187916E+03 -0.12975421192E+03  0.21364157247E+03  0.84239381524E+02 0.  0.
         13    1    3    3    0    0 -0.82583864028E+01  0.81462935438E+01 -0.63657069971E+01  0.13231979068E+02  0.00000000000E+00 0. -1.
        -13    1    3    3    0    0  0.59243437382E+02 -0.14638817271E+03 -0.12338850492E+03  0.20040959341E+03  0.00000000000E+00 0.  1.
         22    1    1    2    0    0 -0.50985050979E+02  0.13824187916E+03  0.19872449293E+03  0.24738980712E+03  0.00000000000E+00 0.  1.
<mgrwt>
<rscale>  0 0.45584321E+03</rscale>
<asrwt>0</asrwt>
<pdfrwt beam="1">  1        2 0.40769358E-01 0.45584321E+03</pdfrwt>
<pdfrwt beam="2">  1       -2 0.30158546E-01 0.45584321E+03</pdfrwt>
<totfact> 0.12765852E+03</totfact>
</mgrwt>
</event>
<event>
 6    1  0.4630212E-004  0.2303094E+04  0.7818608E-02  0.8476702E-01
         -2   -1    0    0    0  501 -0.00000000000E+00  0.00000000000E+00  0.18854633867E+04  0.18854633867E+04  0.00000000000E+00 0. -1.
          2   -1    0    0  501    0  0.00000000000E+00 -0.00000000000E+00 -0.70330748400E+03  0.70330748400E+03  0.00000000000E+00 0.  1.
         23    2    1    2    0    0  0.45995319330E+02  0.78622534009E+03 -0.34949775926E+03  0.86649656183E+03  0.91661077523E+02 0.  0.
         11    1    3    3    0    0  0.25062033194E+02  0.22059540442E+03 -0.14252265529E+03  0.26382408008E+03  0.00000000000E+00 0.  1.
        -11    1    3    3    0    0  0.20933286136E+02  0.56562993567E+03 -0.20697510398E+03  0.60267248175E+03  0.00000000000E+00 0. -1.
         22    1    1    2    0    0 -0.45995319330E+02 -0.78622534009E+03  0.15316536620E+04  0.17222743089E+04  0.00000000000E+00 0. -1.
<mgrwt>
<rscale>  0 0.23030940E+04</rscale>
<asrwt>0</asrwt>
<pdfrwt beam="1">  1        2 0.10820115E+00 0.23030940E+04</pdfrwt>
<pdfrwt beam="2">  1       -2 0.29007129E+00 0.23030940E+04</pdfrwt>
<totfact> 0.13497275E+00</totfact>
</mgrwt>
</event>
<event>
 6    1  0.4630212E-004  0.3923635E+04  0.7818608E-02  0.8020131E-01
         -2   -1    0    0    0  501 -0.00000000000E+00  0.00000000000E+00  0.10382202150E+04  0.10382202150E+04  0.00000000000E+00 0. -1.
          2   -1    0    0  501    0  0.00000000000E+00 -0.00000000000E+00 -0.37070437151E+04  0.37070437151E+04  0.00000000000E+00 0.  1.
         23    2    1    2    0    0 -0.53860438400E+03 -0.18758742385E+04 -0.11070812808E+04  0.22456564407E+04  0.91351225437E+02 0.  0.
         13    1    3    3    0    0 -0.31132251734E+03 -0.10841961100E+04 -0.69153108390E+03  0.13231092754E+04  0.00000000000E+00 0. -1.
        -13    1    3    3    0    0 -0.22728186666E+03 -0.79167812851E+03 -0.41555019688E+03  0.92254716530E+03  0.00000000000E+00 0.  1.
         22    1    1    2    0    0  0.53860438400E+03  0.18758742385E+04 -0.15617422194E+04  0.24996074893E+04  0.00000000000E+00 0.  1.
<mgrwt>
<rscale>  0 0.39236349E+04</rscale>
<asrwt>0</asrwt>
<pdfrwt beam="1">  1        2 0.57031442E+00 0.39236349E+04</pdfrwt>
<pdfrwt beam="2">  1       -2 0.15972619E+00 0.39236349E+04</pdfrwt>
<totfact> 0.11556639E-01</totfact>
</mgrwt>
</event>
<event>
 6    1  0.4630212E-004  0.1940414E+04  0.7818608E-02  0.8634997E-01
         -2   -1    0    0    0  501 -0.00000000000E+00  0.00000000000E+00  0.45981038073E+03  0.45981038073E+03  0.00000000000E+00 0. -1.
          2   -1    0    0  501    0  0.00000000000E+00 -0.00000000000E+00 -0.20471507405E+04  0.20471507405E+04  0.00000000000E+00 0.  1.
         23    2    1    2    0    0 -0.23723686754E+03  0.65859738998E+03  0.68559885890E+02  0.70917429377E+03  0.90531031010E+02 0.  0.
         13    1    3    3    0    0 -0.54956372774E+02  0.26845236081E+03  0.64848636040E+01  0.27409656399E+03  0.00000000000E+00 0.  1.
        -13    1    3    3    0    0 -0.18228049476E+03  0.39014502917E+03  0.62075022286E+02  0.43507772978E+03  0.00000000000E+00 0. -1.
         22    1    1    2    0    0  0.23723686754E+03 -0.65859738998E+03 -0.16559002457E+04  0.17977868275E+04  0.00000000000E+00 0.  1.
<mgrwt>
<rscale>  0 0.19404135E+04</rscale>
<asrwt>0</asrwt>
<pdfrwt beam="1">  1        2 0.31494627E+00 0.19404135E+04</pdfrwt>
<pdfrwt beam="2">  1       -2 0.70740058E-01 0.19404135E+04</pdfrwt>
<totfact> 0.10664888E+01</totfact>
</mgrwt>
</event>
<event>
 6    1  0.4630212E-004  0.1101864E+04  0.7818608E-02  0.9203377E-01
         -2   -1    0    0    0  501 -0.00000000000E+00  0.00000000000E+00  0.90532935964E+03  0.90532935964E+03  0.00000000000E+00 0. -1.
          2   -1    0    0  501    0  0.00000000000E+00 -0.00000000000E+00 -0.33526619116E+03  0.33526619116E+03  0.00000000000E+00 0.  1.
         23    2    1    2    0    0  0.22490568399E+03 -0.29994800829E+03  0.73568445484E+03  0.83073974096E+03  0.91353849217E+02 0.  0.
         13    1    3    3    0    0  0.56226748840E+02 -0.14931565929E+03  0.29214200997E+03  0.33287169808E+03  0.00000000000E+00 0. -1.
        -13    1    3    3    0    0  0.16867893515E+03 -0.15063234899E+03  0.44354244486E+03  0.49786804288E+03  0.00000000000E+00 0.  1.
         22    1    1    2    0    0 -0.22490568399E+03  0.29994800829E+03 -0.16562128636E+03  0.40985580984E+03  0.00000000000E+00 0.  1.
<mgrwt>
<rscale>  0 0.11018645E+04</rscale>
<asrwt>0</asrwt>
<pdfrwt beam="1">  1        2 0.51579414E-01 0.11018645E+04</pdfrwt>
<pdfrwt beam="2">  1       -2 0.13928144E+00 0.11018645E+04</pdfrwt>
<totfact> 0.35008902E+01</totfact>
</mgrwt>
</event>
<event>
 6    1  0.4630212E-004  0.2357305E+04  0.7818608E-02  0.8455663E-01
         -4   -1    0    0    0  501 -0.00000000000E+00  0.00000000000E+00  0.15075035204E+04  0.15075035204E+04  0.00000000000E+00 0.  1.
          4   -1    0    0  501    0  0.00000000000E+00 -0.00000000000E+00 -0.92153779864E+03  0.92153779864E+03  0.00000000000E+00 0. -1.
         23    2    1    2    0    0 -0.38553484264E+03  0.98434463191E+03  0.82629996611E+03  0.13449140118E+04  0.91927122773E+02 0.  0.
         11    1    3    3    0    0 -0.30966649956E+03  0.82707287953E+03  0.72807393887E+03  0.11445674071E+04  0.00000000000E+00 0.  1.
        -11    1    3    3    0    0 -0.75868343077E+02  0.15727175237E+03  0.98226027242E+02  0.20034660467E+03  0.00000000000E+00 0. -1.
         22    1    1    2    0    0  0.38553484264E+03 -0.98434463191E+03 -0.24033424437E+03  0.10841273072E+04  0.00000000000E+00 0.  1.
<mgrwt>
<rscale>  0 0.23573048E+04</rscale>
<asrwt>0</asrwt>
<pdfrwt beam="1">  1        4 0.14177505E+00 0.23573048E+04</pdfrwt>
<pdfrwt beam="2">  1       -4 0.23192362E+00 0.23573048E+04</pdfrwt>
<totfact> 0.51061722E-02</totfact>
</mgrwt>
</event>
<event>
 6    1  0.4630212E-004  0.4020479E+03  0.7818608E-02  0.1043073E+00
         -2   -1    0    0    0  501 -0.00000000000E+00  0.00000000000E+00  0.46328345498E+02  0.46328345498E+02  0.00000000000E+00 0. -1.
          2   -1    0    0  501    0  0.00000000000E+00 -0.00000000000E+00 -0.87226585160E+03  0.87226585160E+03  0.00000000000E+00 0.  1.
         23    2    1    2    0    0  0.17431817319E+03  0.70236627191E+02 -0.51493232266E+03  0.55521528545E+03  0.88253651356E+02 0.  0.
         11    1    3    3    0    0  0.12773074314E+03  0.52534852026E+02 -0.46332650258E+03  0.48347337198E+03  0.00000000000E+00 0.  1.
        -11    1    3    3    0    0  0.46587430050E+02  0.17701775165E+02 -0.51605820077E+02  0.71741913471E+02  0.00000000000E+00 0. -1.
         22    1    1    2    0    0 -0.17431817319E+03 -0.70236627191E+02 -0.31100518345E+03  0.36337891165E+03  0.00000000000E+00 0. -1.
<mgrwt>
<rscale>  0 0.40204793E+03</rscale>
<asrwt>0</asrwt>
<pdfrwt beam="1">  1        2 0.13419475E+00 0.40204793E+03</pdfrwt>
<pdfrwt beam="2">  1       -2 0.71274377E-02 0.40204793E+03</pdfrwt>
<totfact> 0.36068729E+03</totfact>
</mgrwt>
</event>
<event>
 6    1  0.4630212E-004  0.2084312E+04  0.7818608E-02  0.8568186E-01
          2   -1    0    0  501    0  0.00000000000E+00  0.00000000000E+00  0.54940274472E+03  0.54940274472E+03  0.00000000000E+00 0.  1.
         -2   -1    0    0    0  501 -0.00000000000E+00 -0.00000000000E+00 -0.19768549129E+04  0.19768549129E+04  0.00000000000E+00 0. -1.
         23    2    1    2    0    0 -0.12705451331E+03  0.82644281110E+03  0.34742785983E+02  0.84186914741E+03  0.91575274081E+02 0.  0.
         11    1    3    3    0    0 -0.66837279628E+01  0.23297962356E+03  0.38947171200E+02  0.23630712930E+03  0.00000000000E+00 0.  1.
        -11    1    3    3    0    0 -0.12037078535E+03  0.59346318753E+03 -0.42043852168E+01  0.60556201811E+03  0.00000000000E+00 0. -1.
         22    1    1    2    0    0  0.12705451331E+03 -0.82644281110E+03 -0.14621949542E+04  0.16843885102E+04  0.00000000000E+00 0. -1.
<mgrwt>
<rscale>  0 0.20843124E+04</rscale>
<asrwt>0</asrwt>
<pdfrwt beam="1">  1        2 0.84523499E-01 0.20843124E+04</pdfrwt>
<pdfrwt beam="2">  1       -2 0.30413153E+00 0.20843124E+04</pdfrwt>
<totfact> 0.15264539E+00</totfact>
</mgrwt>
</event>
<event>
 6    1  0.5118272E-004  0.4262252E+04  0.7818608E-02  0.7953635E-01
         -2   -1    0    0    0  501 -0.00000000000E+00  0.00000000000E+00  0.18129487716E+04  0.18129487716E+04  0.00000000000E+00 0. -1.
          2   -1    0    0  501    0  0.00000000000E+00 -0.00000000000E+00 -0.25051447168E+04  0.25051447168E+04  0.00000000000E+00 0.  1.
         23    2    1    2    0    0  0.98494213517E+03 -0.15962287683E+04 -0.13690968205E+04  0.23240393053E+04  0.93141281243E+02 0.  0.
         13    1    3    3    0    0  0.50813938524E+03 -0.75891270000E+03 -0.62678740748E+03  0.11077078023E+04  0.00000000000E+00 0. -1.
        -13    1    3    3    0    0  0.47680274993E+03 -0.83731606832E+03 -0.74230941298E+03  0.12163315030E+04  0.00000000000E+00 0.  1.
         22    1    1    2    0    0 -0.98494213517E+03  0.15962287683E+04  0.67690087526E+03  0.19940541832E+04  0.00000000000E+00 0. -1.
<mgrwt>
<rscale>  0 0.42622525E+04</rscale>
<asrwt>0</asrwt>
<pdfrwt beam="1">  1        2 0.38540688E+00 0.42622525E+04</pdfrwt>
<pdfrwt beam="2">  1       -2 0.27891520E+00 0.42622525E+04</pdfrwt>
<totfact> 0.11418166E-01</totfact>
</mgrwt>
</event>
<event>
 6    1  0.4630212E-004  0.1736863E+04  0.7818608E-02  0.8740615E-01
         -2   -1    0    0    0  501 -0.00000000000E+00  0.00000000000E+00  0.96529957989E+03  0.96529957989E+03  0.00000000000E+00 0. -1.
          2   -1    0    0  501    0  0.00000000000E+00 -0.00000000000E+00 -0.78128437292E+03  0.78128437292E+03  0.00000000000E+00 0.  1.
         23    2    1    2    0    0 -0.28733749885E+03  0.76656804162E+03 -0.19176795821E+03  0.84580518535E+03  0.91771788174E+02 0.  0.
         11    1    3    3    0    0 -0.19940720992E+03  0.40565370917E+03 -0.94053458064E+02  0.46169710862E+03  0.00000000000E+00 0.  1.
        -11    1    3    3    0    0 -0.87930288926E+02  0.36091433244E+03 -0.97714500145E+02  0.38410807673E+03  0.00000000000E+00 0. -1.
         22    1    1    2    0    0  0.28733749885E+03 -0.76656804162E+03  0.37578316517E+03  0.90077876746E+03  0.00000000000E+00 0.  1.
<mgrwt>
<rscale>  0 0.17368632E+04</rscale>
<asrwt>0</asrwt>
<pdfrwt beam="1">  1        2 0.12019760E+00 0.17368632E+04</pdfrwt>
<pdfrwt beam="2">  1       -2 0.14850763E+00 0.17368632E+04</pdfrwt>
<totfact> 0.10371839E+01</totfact>
</mgrwt>
</event>
<event>
 6    1  0.4630212E-004  0.4273672E+04  0.7818608E-02  0.7951504E-01
         -2   -1    0    0    0  501 -0.00000000000E+00  0.00000000000E+00  0.14212800165E+04  0.14212800165E+04  0.00000000000E+00 0. -1.
          2   -1    0    0  501    0  0.00000000000E+00 -0.00000000000E+00 -0.32126444737E+04  0.32126444737E+04  0.00000000000E+00 0.  1.
         23    2    1    2    0    0  0.21169142578E+04 -0.28271356851E+03 -0.85370928349E+03  0.23014472317E+04  0.81159613168E+02 0.  0.
         13    1    3    3    0    0  0.14509373822E+04 -0.19941909612E+03 -0.62532881262E+03  0.15924896818E+04  0.00000000000E+00 0. -1.
        -13    1    3    3    0    0  0.66597687562E+03 -0.83294472390E+02 -0.22838047087E+03  0.70895754983E+03  0.00000000000E+00 0.  1.
         22    1    1    2    0    0 -0.21169142578E+04  0.28271356851E+03 -0.93765517368E+03  0.23324772585E+04  0.00000000000E+00 0. -1.
<mgrwt>
<rscale>  0 0.42736717E+04</rscale>
<asrwt>0</asrwt>
<pdfrwt beam="1">  1        2 0.49425300E+00 0.42736717E+04</pdfrwt>
<pdfrwt beam="2">  1       -2 0.21865846E+00 0.42736717E+04</pdfrwt>
<totfact> 0.98856298E-02</totfact>
</mgrwt>
</event>
<event>
 6    1  0.4630212E-004  0.2533156E+04  0.7818608E-02  0.8391268E-01
         -2   -1    0    0    0  501 -0.00000000000E+00  0.00000000000E+00  0.13397739736E+04  0.13397739736E+04  0.00000000000E+00 0. -1.
          2   -1    0    0  501    0  0.00000000000E+00 -0.00000000000E+00 -0.11973804809E+04  0.11973804809E+04  0.00000000000E+00 0.  1.
         23    2    1    2    0    0  0.65402563961E+03 -0.68500543379E+03 -0.76855137964E+03  0.12230758640E+04  0.90892047712E+02 0.  0.
         11    1    3    3    0    0  0.46341492276E+03 -0.53833083739E+03 -0.55483582978E+03  0.90133028304E+03  0.00000000000E+00 0. -1.
        -11    1    3    3    0    0  0.19061071685E+03 -0.14667459640E+03 -0.21371554986E+03  0.32174558094E+03  0.00000000000E+00 0.  1.
         22    1    1    2    0    0 -0.65402563961E+03  0.68500543379E+03  0.91094487231E+03  0.13140785905E+04  0.00000000000E+00 0. -1.
<mgrwt>
<rscale>  0 0.25331555E+04</rscale>
<asrwt>0</asrwt>
<pdfrwt beam="1">  1        2 0.18421238E+00 0.25331555E+04</pdfrwt>
<pdfrwt beam="2">  1       -2 0.20611907E+00 0.25331555E+04</pdfrwt>
<totfact> 0.20510806E+00</totfact>
</mgrwt>
</event>
<event>
 6    1  0.4630212E-004  0.2875306E+04  0.7818608E-02  0.8280263E-01
          2   -1    0    0  501    0  0.00000000000E+00  0.00000000000E+00  0.28959503219E+04  0.28959503219E+04  0.00000000000E+00 0.  1.
         -2   -1    0    0    0  501 -0.00000000000E+00 -0.00000000000E+00 -0.71370202006E+03  0.71370202006E+03  0.00000000000E+00 0. -1.
         23    2    1    2    0    0 -0.23932831437E+03 -0.11893114854E+03  0.28637452264E+04  0.28776272616E+04  0.90990520293E+02 0.  0.
         11    1    3    3    0    0 -0.12996641495E+03 -0.43368175186E+02  0.10303761804E+04  0.10394455930E+04  0.00000000000E+00 0. -1.
        -11    1    3    3    0    0 -0.10936189942E+03 -0.75562973354E+02  0.18333690460E+04  0.18381816686E+04  0.00000000000E+00 0.  1.
         22    1    1    2    0    0  0.23932831437E+03  0.11893114854E+03 -0.68149692454E+03  0.73202508038E+03  0.00000000000E+00 0. -1.
<mgrwt>
<rscale>  0 0.28753056E+04</rscale>
<asrwt>0</asrwt>
<pdfrwt beam="1">  1        2 0.44553081E+00 0.28753056E+04</pdfrwt>
<pdfrwt beam="2">  1       -2 0.10980031E+00 0.28753056E+04</pdfrwt>
<totfact> 0.11526516E+00</totfact>
</mgrwt>
</event>
<event>
 6    1  0.4630212E-004  0.1303050E+04  0.7818608E-02  0.9027150E-01
         -2   -1    0    0    0  501 -0.00000000000E+00  0.00000000000E+00  0.17105800229E+03  0.17105800229E+03  0.00000000000E+00 0.  1.
          2   -1    0    0  501    0  0.00000000000E+00 -0.00000000000E+00 -0.24815252915E+04  0.24815252915E+04  0.00000000000E+00 0. -1.
         23    2    1    2    0    0  0.60686543569E+03  0.20143902754E+03 -0.13776275919E+04  0.15216309342E+04  0.92949335762E+02 0.  0.
         13    1    3    3    0    0  0.31862890165E+03  0.12846406605E+03 -0.64102847304E+03  0.72728597985E+03  0.00000000000E+00 0.  1.
        -13    1    3    3    0    0  0.28823653405E+03  0.72974961490E+02 -0.73659911889E+03  0.79434495436E+03  0.00000000000E+00 0. -1.
         22    1    1    2    0    0 -0.60686543569E+03 -0.20143902754E+03 -0.93283969728E+03  0.11309523596E+04  0.00000000000E+00 0.  1.
<mgrwt>
<rscale>  0 0.13030499E+04</rscale>
<asrwt>0</asrwt>
<pdfrwt beam="1">  1        2 0.38177309E+00 0.13030499E+04</pdfrwt>
<pdfrwt beam="2">  1       -2 0.26316618E-01 0.13030499E+04</pdfrwt>
<totfact> 0.45890191E+01</totfact>
</mgrwt>
</event>
<event>
 6    1  0.4630212E-004  0.3553838E+04  0.7818608E-02  0.8101148E-01
         -2   -1    0    0    0  501 -0.00000000000E+00  0.00000000000E+00  0.16061580218E+04  0.16061580218E+04  0.00000000000E+00 0. -1.
          2   -1    0    0  501    0  0.00000000000E+00 -0.00000000000E+00 -0.19658341529E+04  0.19658341529E+04  0.00000000000E+00 0.  1.
         23    2    1    2    0    0 -0.12962609359E+04 -0.47414283508E+03 -0.13027826513E+04  0.19003002921E+04  0.93780177183E+02 0.  0.
         11    1    3    3    0    0 -0.10430256005E+04 -0.37382866126E+03 -0.99360608116E+03  0.14882551245E+04  0.00000000000E+00 0.  1.
        -11    1    3    3    0    0 -0.25323533541E+03 -0.10031417382E+03 -0.30917657018E+03  0.41204516757E+03  0.00000000000E+00 0. -1.
         22    1    1    2    0    0  0.12962609359E+04  0.47414283508E+03  0.94310652023E+03  0.16716918826E+04  0.00000000000E+00 0. -1.
<mgrwt>
<rscale>  0 0.35538375E+04</rscale>
<asrwt>0</asrwt>
<pdfrwt beam="1">  1        2 0.30243602E+00 0.35538375E+04</pdfrwt>
<pdfrwt beam="2">  1       -2 0.24710123E+00 0.35538375E+04</pdfrwt>
<totfact> 0.38239827E-01</totfact>
</mgrwt>
</event>
<event>
 6    1  0.5290460E-004  0.3985885E+04  0.7818608E-02  0.8007400E-01
         -2   -1    0    0    0  501 -0.00000000000E+00  0.00000000000E+00  0.13678159254E+04  0.13678159254E+04  0.00000000000E+00 0. -1.
          2   -1    0    0  501    0  0.00000000000E+00 -0.00000000000E+00 -0.29037679566E+04  0.29037679566E+04  0.00000000000E+00 0.  1.
         23    2    1    2    0    0  0.15609003649E+04  0.15163952487E+03  0.54796060212E+03  0.16635009926E+04  0.87007104765E+02 0.  0.
         11    1    3    3    0    0  0.10321497783E+04  0.66188547669E+02  0.38577264587E+03  0.11038725574E+04  0.00000000000E+00 0. -1.
        -11    1    3    3    0    0  0.52875058665E+03  0.85450977203E+02  0.16218795625E+03  0.55962843525E+03  0.00000000000E+00 0.  1.
         22    1    1    2    0    0 -0.15609003649E+04 -0.15163952487E+03 -0.20839126333E+04  0.26080828894E+04  0.00000000000E+00 0.  1.
<mgrwt>
<rscale>  0 0.39858851E+04</rscale>
<asrwt>0</asrwt>
<pdfrwt beam="1">  1        2 0.44673353E+00 0.39858851E+04</pdfrwt>
<pdfrwt beam="2">  1       -2 0.21043322E+00 0.39858851E+04</pdfrwt>
<totfact> 0.17949021E-01</totfact>
</mgrwt>
</event>
<event>
 6    1  0.4630212E-004  0.1099267E+04  0.7818608E-02  0.9205906E-01
          2   -1    0    0  501    0  0.00000000000E+00  0.00000000000E+00  0.67856603986E+03  0.67856603986E+03  0.00000000000E+00 0.  1.
         -2   -1    0    0    0  501 -0.00000000000E+00 -0.00000000000E+00 -0.44519927551E+03  0.44519927551E+03  0.00000000000E+00 0. -1.
         23    2    1    2    0    0 -0.49306060558E+03  0.20797441255E+03  0.11827151494E+02  0.54459183781E+03  0.10039059341E+03 0.  0.
         13    1    3    3    0    0 -0.18389948884E+03  0.26068064887E+02  0.61789945646E+01  0.18584064673E+03  0.00000000000E+00 0.  1.
        -13    1    3    3    0    0 -0.30916111674E+03  0.18190634767E+03  0.56481569292E+01  0.35875119108E+03  0.00000000000E+00 0. -1.
         22    1    1    2    0    0  0.49306060558E+03 -0.20797441255E+03  0.22153961286E+03  0.57917347757E+03  0.00000000000E+00 0.  1.
<mgrwt>
<rscale>  0 0.10992672E+04</rscale>
<asrwt>0</asrwt>
<pdfrwt beam="1">  1        2 0.10439478E+00 0.10992672E+04</pdfrwt>
<pdfrwt beam="2">  1       -2 0.68492196E-01 0.10992672E+04</pdfrwt>
<totfact> 0.82528746E+01</totfact>
</mgrwt>
</event>
<event>
 6    1  0.4630212E-004  0.2211727E+04  0.7818608E-02  0.8513563E-01
         -2   -1    0    0    0  501 -0.00000000000E+00  0.00000000000E+00  0.74284732788E+03  0.74284732788E+03  0.00000000000E+00 0. -1.
          2   -1    0    0  501    0  0.00000000000E+00 -0.00000000000E+00 -0.16462789843E+04  0.16462789843E+04  0.00000000000E+00 0.  1.
         23    2    1    2    0    0 -0.78312673892E+03 -0.77077282746E+03 -0.33498597635E+03  0.11519889989E+04  0.86514787466E+02 0.  0.
         13    1    3    3    0    0 -0.50500284809E+03 -0.55341746336E+03 -0.23150254675E+03  0.78415061977E+03  0.00000000000E+00 0.  1.
        -13    1    3    3    0    0 -0.27812389082E+03 -0.21735536410E+03 -0.10348342960E+03  0.36783837911E+03  0.00000000000E+00 0. -1.
         22    1    1    2    0    0  0.78312673892E+03  0.77077282746E+03 -0.56844568007E+03  0.12371373133E+04  0.00000000000E+00 0.  1.
<mgrwt>
<rscale>  0 0.22117269E+04</rscale>
<asrwt>0</asrwt>
<pdfrwt beam="1">  1        2 0.25327369E+00 0.22117269E+04</pdfrwt>
<pdfrwt beam="2">  1       -2 0.11428420E+00 0.22117269E+04</pdfrwt>
<totfact> 0.57450073E+00</totfact>
</mgrwt>
</event>
<event>
 6    1  0.4630212E-004  0.4580603E+04  0.7818608E-02  0.7896676E-01
          2   -1    0    0  501    0  0.00000000000E+00  0.00000000000E+00  0.43912206383E+04  0.43912206383E+04  0.00000000000E+00 0.  1.
         -2   -1    0    0    0  501 -0.00000000000E+00 -0.00000000000E+00 -0.11945383477E+04  0.11945383477E+04  0.00000000000E+00 0. -1.
         23    2    1    2    0    0  0.10414014716E+04 -0.12606161776E+04  0.35529817158E+04  0.39122538463E+04  0.91547326236E+02 0.  0.
         11    1    3    3    0    0  0.34819528561E+03 -0.42397021909E+03  0.10907166622E+04  0.12209232330E+04  0.00000000000E+00 0. -1.
        -11    1    3    3    0    0  0.69320618601E+03 -0.83664595848E+03  0.24622650535E+04  0.26913306133E+04  0.00000000000E+00 0.  1.
         22    1    1    2    0    0 -0.10414014716E+04  0.12606161776E+04 -0.35629942520E+03  0.16735051397E+04  0.00000000000E+00 0. -1.
<mgrwt>
<rscale>  0 0.45806032E+04</rscale>
<asrwt>0</asrwt>
<pdfrwt beam="1">  1        2 0.67557240E+00 0.45806032E+04</pdfrwt>
<pdfrwt beam="2">  1       -2 0.18377513E+00 0.45806032E+04</pdfrwt>
<totfact> 0.19958708E-02</totfact>
</mgrwt>
</event>
<event>
 6    1  0.4630212E-004  0.2822529E+04  0.7818608E-02  0.8296308E-01
         -2   -1    0    0    0  501 -0.00000000000E+00  0.00000000000E+00  0.58377279332E+03  0.58377279332E+03  0.00000000000E+00 0. -1.
          2   -1    0    0  501    0  0.00000000000E+00 -0.00000000000E+00 -0.34117163038E+04  0.34117163038E+04  0.00000000000E+00 0.  1.
         23    2    1    2    0    0 -0.89661660720E+03  0.25645945619E+03 -0.29120862185E+04  0.30591276348E+04  0.91230197629E+02 0.  0.
         13    1    3    3    0    0 -0.84814804693E+03  0.22296778651E+03 -0.26888068855E+04  0.28282065361E+04  0.00000000000E+00 0. -1.
        -13    1    3    3    0    0 -0.48468560260E+02  0.33491669681E+02 -0.22327933301E+03  0.23092109869E+03  0.00000000000E+00 0.  1.
         22    1    1    2    0    0  0.89661660720E+03 -0.25645945619E+03  0.84142707949E+02  0.93636146240E+03  0.00000000000E+00 0. -1.
<mgrwt>
<rscale>  0 0.28225288E+04</rscale>
<asrwt>0</asrwt>
<pdfrwt beam="1">  1        2 0.52487944E+00 0.28225288E+04</pdfrwt>
<pdfrwt beam="2">  1       -2 0.89811198E-01 0.28225288E+04</pdfrwt>
<totfact> 0.86301279E-01</totfact>
</mgrwt>
</event>
<event>
 6    1  0.4630212E-004  0.8213756E+03  0.7818608E-02  0.9529582E-01
         -2   -1    0    0    0  501 -0.00000000000E+00  0.00000000000E+00  0.49737238413E+03  0.49737238413E+03  0.00000000000E+00 0. -1.
          2   -1    0    0  501    0  0.00000000000E+00 -0.00000000000E+00 -0.33911100741E+03  0.33911100741E+03  0.00000000000E+00 0.  1.
         23    2    1    2    0    0 -0.16311707105E+03  0.30257133817E+03 -0.13848460640E+03  0.38237462478E+03  0.94211325851E+02 0.  0.
         13    1    3    3    0    0 -0.10836761874E+03  0.24920141023E+03 -0.14044440012E+03  0.30589134211E+03  0.00000000000E+00 0.  1.
        -13    1    3    3    0    0 -0.54749452310E+02  0.53369927937E+02  0.19597937292E+01  0.76483282669E+02  0.00000000000E+00 0. -1.
         22    1    1    2    0    0  0.16311707105E+03 -0.30257133817E+03  0.29674598312E+03  0.45410876676E+03  0.00000000000E+00 0. -1.
<mgrwt>
<rscale>  0 0.82137555E+03</rscale>
<asrwt>0</asrwt>
<pdfrwt beam="1">  1        2 0.52170924E-01 0.82137555E+03</pdfrwt>
<pdfrwt beam="2">  1       -2 0.76518829E-01 0.82137555E+03</pdfrwt>
<totfact> 0.14723451E+02</totfact>
</mgrwt>
</event>
<event>
 6    1  0.4630212E-004  0.3068653E+04  0.7818608E-02  0.8224394E-01
          2   -1    0    0  501    0  0.00000000000E+00  0.00000000000E+00  0.18891087816E+04  0.18891087816E+04  0.00000000000E+00 0.  1.
         -2   -1    0    0    0  501 -0.00000000000E+00 -0.00000000000E+00 -0.12461736010E+04  0.12461736010E+04  0.00000000000E+00 0. -1.
         23    2    1    2    0    0 -0.67428111956E+01 -0.14879986968E+04  0.69804954993E+03  0.16462480710E+04  0.93134041892E+02 0.  0.
         11    1    3    3    0    0 -0.39400345719E+02 -0.72384088381E+03  0.30725768186E+03  0.78734064761E+03  0.00000000000E+00 0.  1.
        -11    1    3    3    0    0  0.32657534524E+02 -0.76415781302E+03  0.39079186807E+03  0.85890742336E+03  0.00000000000E+00 0. -1.
         22    1    1    2    0    0  0.67428111956E+01  0.14879986968E+04 -0.55114369338E+02  0.14890343115E+04  0.00000000000E+00 0. -1.
<mgrwt>
<rscale>  0 0.30686528E+04</rscale>
<asrwt>0</asrwt>
<pdfrwt beam="1">  1        2 0.29063212E+00 0.30686528E+04</pdfrwt>
<pdfrwt beam="2">  1       -2 0.19171902E+00 0.30686528E+04</pdfrwt>
<totfact> 0.98942124E-01</totfact>
</mgrwt>
</event>
<event>
 6    1  0.4630212E-004  0.8877405E+03  0.7818608E-02  0.9441038E-01
          1   -1    0    0  501    0  0.00000000000E+00  0.00000000000E+00  0.16842341414E+04  0.16842341414E+04  0.00000000000E+00 0.  1.
         -1   -1    0    0    0  501 -0.00000000000E+00 -0.00000000000E+00 -0.11697944935E+03  0.11697944935E+03  0.00000000000E+00 0. -1.
         23    2    1    2    0    0 -0.10537703472E+03  0.23727686551E+03  0.15105900122E+04  0.15354777891E+04  0.91680015919E+02 0.  0.
         11    1    3    3    0    0  0.72257675577E+01  0.62676469129E+02  0.48230055487E+03  0.48640967992E+03  0.00000000000E+00 0.  1.
        -11    1    3    3    0    0 -0.11260280228E+03  0.17460039638E+03  0.10282894574E+04  0.10490681091E+04  0.00000000000E+00 0. -1.
         22    1    1    2    0    0  0.10537703472E+03 -0.23727686551E+03  0.56664679820E+02  0.26573580168E+03  0.00000000000E+00 0. -1.
<mgrwt>
<rscale>  0 0.88774046E+03</rscale>
<asrwt>0</asrwt>
<pdfrwt beam="1">  1        1 0.25911293E+00 0.88774046E+03</pdfrwt>
<pdfrwt beam="2">  1       -1 0.17996840E-01 0.88774046E+03</pdfrwt>
<totfact> 0.12056713E+02</totfact>
</mgrwt>
</event>
<event>
 6    1  0.4630212E-004  0.1711511E+04  0.7818608E-02  0.8754827E-01
         -4   -1    0    0    0  501 -0.00000000000E+00  0.00000000000E+00  0.46474413808E+03  0.46474413808E+03  0.00000000000E+00 0. -1.
          4   -1    0    0  501    0  0.00000000000E+00 -0.00000000000E+00 -0.15757427136E+04  0.15757427136E+04  0.00000000000E+00 0.  1.
         23    2    1    2    0    0  0.75303978446E+03  0.60210412389E+02 -0.10299201130E+04  0.12807053517E+04  0.93683232162E+02 0.  0.
         11    1    3    3    0    0  0.50785024085E+03 -0.20461883957E+01 -0.70698452296E+03  0.87048444542E+03  0.00000000000E+00 0. -1.
        -11    1    3    3    0    0  0.24518954361E+03  0.62256600785E+02 -0.32293558999E+03  0.41022090625E+03  0.00000000000E+00 0.  1.
         22    1    1    2    0    0 -0.75303978446E+03 -0.60210412389E+02 -0.81078462611E+02  0.75978150006E+03  0.00000000000E+00 0. -1.
<mgrwt>
<rscale>  0 0.17115107E+04</rscale>
<asrwt>0</asrwt>
<pdfrwt beam="1">  1        4 0.24242196E+00 0.17115107E+04</pdfrwt>
<pdfrwt beam="2">  1       -4 0.71499097E-01 0.17115107E+04</pdfrwt>
<totfact> 0.23947322E-01</totfact>
</mgrwt>
</event>
<event>
 6    1  0.4630212E-004  0.3049974E+04  0.7818608E-02  0.8229603E-01
          2   -1    0    0  501    0  0.00000000000E+00  0.00000000000E+00  0.39532671123E+04  0.39532671123E+04  0.00000000000E+00 0.  1.
         -2   -1    0    0    0  501 -0.00000000000E+00 -0.00000000000E+00 -0.58826937128E+03  0.58826937128E+03  0.00000000000E+00 0. -1.
         23    2    1    2    0    0 -0.20437659184E+03 -0.27933492329E+03  0.38934077581E+04  0.39098601925E+04  0.92655076845E+02 0.  0.
         11    1    3    3    0    0 -0.12556187494E+02 -0.77537398251E+02  0.72472098872E+03  0.72896516889E+03  0.00000000000E+00 0.  1.
        -11    1    3    3    0    0 -0.19182040435E+03 -0.20179752504E+03  0.31686867694E+04  0.31808950236E+04  0.00000000000E+00 0. -1.
         22    1    1    2    0    0  0.20437659184E+03  0.27933492329E+03 -0.52841001705E+03  0.63167629113E+03  0.00000000000E+00 0. -1.
<mgrwt>
<rscale>  0 0.30499744E+04</rscale>
<asrwt>0</asrwt>
<pdfrwt beam="1">  1        2 0.60819492E+00 0.30499744E+04</pdfrwt>
<pdfrwt beam="2">  1       -2 0.90502983E-01 0.30499744E+04</pdfrwt>
<totfact> 0.33149533E-01</totfact>
</mgrwt>
</event>
<event>
 6    1  0.4630212E-004  0.4750663E+03  0.7818608E-02  0.1020500E+00
         -2   -1    0    0    0  501 -0.00000000000E+00  0.00000000000E+00  0.19897867691E+02  0.19897867691E+02  0.00000000000E+00 0. -1.
          2   -1    0    0  501    0  0.00000000000E+00 -0.00000000000E+00 -0.28355795129E+04  0.28355795129E+04  0.00000000000E+00 0.  1.
         23    2    1    2    0    0 -0.80738439750E+02  0.21161240568E+03 -0.16631061131E+04  0.16808587774E+04  0.89809687854E+02 0.  0.
         11    1    3    3    0    0 -0.29732167420E+02  0.18101076472E+03 -0.13092849814E+04  0.13220726384E+04  0.00000000000E+00 0.  1.
        -11    1    3    3    0    0 -0.51006272330E+02  0.30601640962E+02 -0.35382113173E+03  0.35878613896E+03  0.00000000000E+00 0. -1.
         22    1    1    2    0    0  0.80738439750E+02 -0.21161240568E+03 -0.11525755321E+04  0.11746186032E+04  0.00000000000E+00 0.  1.
<mgrwt>
<rscale>  0 0.47506625E+03</rscale>
<asrwt>0</asrwt>
<pdfrwt beam="1">  1        2 0.43624324E+00 0.47506625E+03</pdfrwt>
<pdfrwt beam="2">  1       -2 0.30612087E-02 0.47506625E+03</pdfrwt>
<totfact> 0.10394626E+03</totfact>
</mgrwt>
</event>
<event>
 6    1  0.4630212E-004  0.2060505E+04  0.7818608E-02  0.8578844E-01
         -4   -1    0    0    0  501 -0.00000000000E+00  0.00000000000E+00  0.12467110966E+04  0.12467110966E+04  0.00000000000E+00 0.  1.
          4   -1    0    0  501    0  0.00000000000E+00 -0.00000000000E+00 -0.85137590738E+03  0.85137590738E+03  0.00000000000E+00 0. -1.
         23    2    1    2    0    0 -0.90328276541E+03  0.48893787718E+03  0.14735636094E+03  0.10414539072E+04  0.89063694392E+02 0.  0.
         11    1    3    3    0    0 -0.66245018910E+03  0.40205697006E+03  0.10685434374E+03  0.78224542887E+03  0.00000000000E+00 0. -1.
        -11    1    3    3    0    0 -0.24083257631E+03  0.86880907118E+02  0.40502017204E+02  0.25920847832E+03  0.00000000000E+00 0.  1.
         22    1    1    2    0    0  0.90328276541E+03 -0.48893787718E+03  0.24797882831E+03  0.10566330968E+04  0.00000000000E+00 0. -1.
<mgrwt>
<rscale>  0 0.20605046E+04</rscale>
<asrwt>0</asrwt>
<pdfrwt beam="1">  1        4 0.13098091E+00 0.20605046E+04</pdfrwt>
<pdfrwt beam="2">  1       -4 0.19180171E+00 0.20605046E+04</pdfrwt>
<totfact> 0.11711108E-01</totfact>
</mgrwt>
</event>
<event>
 6    1  0.4630212E-004  0.1254014E+04  0.7818608E-02  0.9066849E-01
          2   -1    0    0  501    0  0.00000000000E+00  0.00000000000E+00  0.10037771764E+04  0.10037771764E+04  0.00000000000E+00 0.  1.
         -2   -1    0    0    0  501 -0.00000000000E+00 -0.00000000000E+00 -0.39165855379E+03  0.39165855379E+03  0.00000000000E+00 0. -1.
         23    2    1    2    0    0 -0.35999667496E+03  0.10175983470E+03 -0.24798299436E+03  0.45749785301E+03  0.88634361714E+02 0.  0.
         11    1    3    3    0    0 -0.21636025846E+03  0.41002044236E+02 -0.97685117350E+02  0.24090519136E+03  0.00000000000E+00 0. -1.
        -11    1    3    3    0    0 -0.14363641650E+03  0.60757790464E+02 -0.15029787701E+03  0.21659266165E+03  0.00000000000E+00 0.  1.
         22    1    1    2    0    0  0.35999667496E+03 -0.10175983470E+03  0.86010161692E+03  0.93793787714E+03  0.00000000000E+00 0.  1.
<mgrwt>
<rscale>  0 0.12540142E+04</rscale>
<asrwt>0</asrwt>
<pdfrwt beam="1">  1        2 0.15442726E+00 0.12540142E+04</pdfrwt>
<pdfrwt beam="2">  1       -2 0.60255162E-01 0.12540142E+04</pdfrwt>
<totfact> 0.63222214E+01</totfact>
</mgrwt>
</event>
<event>
 6    1  0.4630212E-004  0.4983166E+04  0.7818608E-02  0.7831109E-01
         -2   -1    0    0    0  501 -0.00000000000E+00  0.00000000000E+00  0.20135611279E+04  0.20135611279E+04  0.00000000000E+00 0. -1.
          2   -1    0    0  501    0  0.00000000000E+00 -0.00000000000E+00 -0.30830881441E+04  0.30830881441E+04  0.00000000000E+00 0.  1.
         23    2    1    2    0    0 -0.11949243506E+04  0.21718949340E+04 -0.78270523106E+03  0.26012057153E+04  0.93122962827E+02 0.  0.
         11    1    3    3    0    0 -0.76046226198E+03  0.12916362085E+04 -0.45939209064E+03  0.15676951362E+04  0.00000000000E+00 0. -1.
        -11    1    3    3    0    0 -0.43446208861E+03  0.88025872554E+03 -0.32331314042E+03  0.10335105791E+04  0.00000000000E+00 0.  1.
         22    1    1    2    0    0  0.11949243506E+04 -0.21718949340E+04 -0.28682178516E+03  0.24954435567E+04  0.00000000000E+00 0. -1.
<mgrwt>
<rscale>  0 0.49831662E+04</rscale>
<asrwt>0</asrwt>
<pdfrwt beam="1">  1        2 0.47432125E+00 0.49831662E+04</pdfrwt>
<pdfrwt beam="2">  1       -2 0.30977864E+00 0.49831662E+04</pdfrwt>
<totfact> 0.31111746E-02</totfact>
</mgrwt>
</event>
<event>
 6    1  0.6312147E-004  0.3823018E+04  0.7818608E-02  0.8041233E-01
          2   -1    0    0  501    0  0.00000000000E+00  0.00000000000E+00  0.27459329833E+04  0.27459329833E+04  0.00000000000E+00 0.  1.
         -2   -1    0    0    0  501 -0.00000000000E+00 -0.00000000000E+00 -0.13306465950E+04  0.13306465950E+04  0.00000000000E+00 0. -1.
         23    2    1    2    0    0 -0.12137315836E+04 -0.82707073078E+03 -0.59435016761E+03  0.15874372687E+04  0.97542860858E+02 0.  0.
         13    1    3    3    0    0 -0.31479730490E+03 -0.16410902636E+03 -0.14539771333E+03  0.38362691609E+03  0.00000000000E+00 0.  1.
        -13    1    3    3    0    0 -0.89893427871E+03 -0.66296170442E+03 -0.44895245428E+03  0.12038103527E+04  0.00000000000E+00 0. -1.
         22    1    1    2    0    0  0.12137315836E+04  0.82707073078E+03  0.20096365558E+04  0.24891423096E+04  0.00000000000E+00 0.  1.
<mgrwt>
<rscale>  0 0.38230179E+04</rscale>
<asrwt>0</asrwt>
<pdfrwt beam="1">  1        2 0.42245123E+00 0.38230179E+04</pdfrwt>
<pdfrwt beam="2">  1       -2 0.20471486E+00 0.38230179E+04</pdfrwt>
<totfact> 0.24708030E-01</totfact>
</mgrwt>
</event>
<event>
 6    1  0.4630212E-004  0.3740086E+04  0.7818608E-02  0.8059136E-01
         -2   -1    0    0    0  501 -0.00000000000E+00  0.00000000000E+00  0.13301693313E+04  0.13301693313E+04  0.00000000000E+00 0. -1.
          2   -1    0    0  501    0  0.00000000000E+00 -0.00000000000E+00 -0.26290341705E+04  0.26290341705E+04  0.00000000000E+00 0.  1.
         23    2    1    2    0    0  0.13083454158E+04  0.82112787065E+03 -0.17635392179E+04  0.23461501904E+04  0.91276697875E+02 0.  0.
         13    1    3    3    0    0  0.58782181490E+03  0.32563206982E+03 -0.72627163238E+03  0.98946511559E+03  0.00000000000E+00 0.  1.
        -13    1    3    3    0    0  0.72052360092E+03  0.49549580083E+03 -0.10372675855E+04  0.13566850748E+04  0.00000000000E+00 0. -1.
         22    1    1    2    0    0 -0.13083454158E+04 -0.82112787065E+03  0.46467437870E+03  0.16130533114E+04  0.00000000000E+00 0. -1.
<mgrwt>
<rscale>  0 0.37400859E+04</rscale>
<asrwt>0</asrwt>
<pdfrwt beam="1">  1        2 0.40446679E+00 0.37400859E+04</pdfrwt>
<pdfrwt beam="2">  1       -2 0.20464144E+00 0.37400859E+04</pdfrwt>
<totfact> 0.29233275E-01</totfact>
</mgrwt>
</event>
<event>
 6    1  0.4630212E-004  0.1904677E+04  0.7818608E-02  0.8652532E-01
          2   -1    0    0  501    0  0.00000000000E+00  0.00000000000E+00  0.61796442326E+03  0.61796442326E+03  0.00000000000E+00 0.  1.
         -2   -1    0    0    0  501 -0.00000000000E+00 -0.00000000000E+00 -0.14676390104E+04  0.14676390104E+04  0.00000000000E+00 0. -1.
         23    2    1    2    0    0 -0.15135871833E+03 -0.23582902663E+03  0.56825316757E+03  0.64025091300E+03  0.92112853220E+02 0.  0.
         11    1    3    3    0    0 -0.89721999847E+02 -0.59779531560E+02  0.22867677047E+03  0.25281751324E+03  0.00000000000E+00 0. -1.
        -11    1    3    3    0    0 -0.61636718487E+02 -0.17604949507E+03  0.33957639710E+03  0.38743339976E+03  0.00000000000E+00 0.  1.
         22    1    1    2    0    0  0.15135871833E+03  0.23582902663E+03 -0.14179277547E+04  0.14453525207E+04  0.00000000000E+00 0. -1.
<mgrwt>
<rscale>  0 0.19046771E+04</rscale>
<asrwt>0</asrwt>
<pdfrwt beam="1">  1        2 0.95071449E-01 0.19046771E+04</pdfrwt>
<pdfrwt beam="2">  1       -2 0.22579062E+00 0.19046771E+04</pdfrwt>
<totfact> 0.40677311E+00</totfact>
</mgrwt>
</event>
<event>
 6    1  0.4630212E-004  0.4331427E+04  0.7818608E-02  0.7940832E-01
          2   -1    0    0  501    0  0.00000000000E+00  0.00000000000E+00  0.26553854237E+04  0.26553854237E+04  0.00000000000E+00 0.  1.
         -2   -1    0    0    0  501 -0.00000000000E+00 -0.00000000000E+00 -0.17663409215E+04  0.17663409215E+04  0.00000000000E+00 0. -1.
         23    2    1    2    0    0 -0.33095063460E+03  0.16616874889E+04  0.18201949276E+04  0.24883937954E+04  0.90887145606E+02 0.  0.
         13    1    3    3    0    0 -0.10607493663E+03  0.70028533259E+03  0.71563182136E+03  0.10068665964E+04  0.00000000000E+00 0. -1.
        -13    1    3    3    0    0 -0.22487569797E+03  0.96140215631E+03  0.11045631062E+04  0.14815271990E+04  0.00000000000E+00 0.  1.
         22    1    1    2    0    0  0.33095063460E+03 -0.16616874889E+04 -0.93115042543E+03  0.19333325498E+04  0.00000000000E+00 0. -1.
<mgrwt>
<rscale>  0 0.43314274E+04</rscale>
<asrwt>0</asrwt>
<pdfrwt beam="1">  1        2 0.40852083E+00 0.43314274E+04</pdfrwt>
<pdfrwt beam="2">  1       -2 0.27174476E+00 0.43314274E+04</pdfrwt>
<totfact> 0.10252282E-01</totfact>
</mgrwt>
</event>
<event>
 6    1  0.4630212E-004  0.5733996E+03  0.7818608E-02  0.9962184E-01
         -2   -1    0    0    0  501 -0.00000000000E+00  0.00000000000E+00  0.11788684320E+03  0.11788684320E+03  0.00000000000E+00 0. -1.
          2   -1    0    0  501    0  0.00000000000E+00 -0.00000000000E+00 -0.69725136211E+03  0.69725136211E+03  0.00000000000E+00 0.  1.
         23    2    1    2    0    0 -0.11842386622E+03 -0.98950380568E+02  0.29490586525E+02  0.18702999065E+03  0.10146493387E+03 0.  0.
         11    1    3    3    0    0 -0.99645533360E+02 -0.10759857585E+03 -0.50908137699E+01  0.14673991355E+03  0.00000000000E+00 0. -1.
        -11    1    3    3    0    0 -0.18778332860E+02  0.86481952809E+01  0.34581400295E+02  0.40290077103E+02  0.00000000000E+00 0.  1.
         22    1    1    2    0    0  0.11842386622E+03  0.98950380568E+02 -0.60885510544E+03  0.62810821466E+03  0.00000000000E+00 0.  1.
<mgrwt>
<rscale>  0 0.57339955E+03</rscale>
<asrwt>0</asrwt>
<pdfrwt beam="1">  1        2 0.10726944E+00 0.57339955E+03</pdfrwt>
<pdfrwt beam="2">  1       -2 0.18136438E-01 0.57339955E+03</pdfrwt>
<totfact> 0.10464040E+03</totfact>
</mgrwt>
</event>
<event>
 6    1  0.4630212E-004  0.4270734E+03  0.7818608E-02  0.1034788E+00
         -2   -1    0    0    0  501 -0.00000000000E+00  0.00000000000E+00  0.59767811355E+02  0.59767811355E+02  0.00000000000E+00 0. -1.
          2   -1    0    0  501    0  0.00000000000E+00 -0.00000000000E+00 -0.76291762183E+03  0.76291762183E+03  0.00000000000E+00 0.  1.
         23    2    1    2    0    0 -0.59408282764E+02 -0.10757091675E+03 -0.68081397540E+03  0.69778653119E+03  0.91090766893E+02 0.  0.
         13    1    3    3    0    0  0.30576242053E+01 -0.70660787592E+02 -0.45874389713E+03  0.46416404333E+03  0.00000000000E+00 0.  1.
        -13    1    3    3    0    0 -0.62465906969E+02 -0.36910129159E+02 -0.22207007827E+03  0.23362248785E+03  0.00000000000E+00 0. -1.
         22    1    1    2    0    0  0.59408282764E+02  0.10757091675E+03 -0.22335835072E+02  0.12489890200E+03  0.00000000000E+00 0. -1.
<mgrwt>
<rscale>  0 0.42707337E+03</rscale>
<asrwt>0</asrwt>
<pdfrwt beam="1">  1        2 0.11737194E+00 0.42707337E+03</pdfrwt>
<pdfrwt beam="2">  1       -2 0.91950480E-02 0.42707337E+03</pdfrwt>
<totfact> 0.28733258E+03</totfact>
</mgrwt>
</event>
<event>
 6    1  0.4630212E-004  0.5678635E+03  0.7818608E-02  0.9974418E-01
         -2   -1    0    0    0  501 -0.00000000000E+00  0.00000000000E+00  0.52216049220E+02  0.52216049220E+02  0.00000000000E+00 0. -1.
          2   -1    0    0  501    0  0.00000000000E+00 -0.00000000000E+00 -0.15439166908E+04  0.15439166908E+04  0.00000000000E+00 0.  1.
         23    2    1    2    0    0  0.64795382185E+02  0.23081360090E+03 -0.11515217224E+04  0.11799656378E+04  0.94038658820E+02 0.  0.
         13    1    3    3    0    0  0.81979840465E+02  0.12071055435E+03 -0.67387219189E+03  0.68948927706E+03  0.00000000000E+00 0. -1.
        -13    1    3    3    0    0 -0.17184458280E+02  0.11010304655E+03 -0.47764953049E+03  0.49047636074E+03  0.00000000000E+00 0.  1.
         22    1    1    2    0    0 -0.64795382185E+02 -0.23081360090E+03 -0.34017891925E+03  0.41616710227E+03  0.00000000000E+00 0. -1.
<mgrwt>
<rscale>  0 0.56786347E+03</rscale>
<asrwt>0</asrwt>
<pdfrwt beam="1">  1        2 0.23752562E+00 0.56786347E+03</pdfrwt>
<pdfrwt beam="2">  1       -2 0.80332392E-02 0.56786347E+03</pdfrwt>
<totfact> 0.11960731E+03</totfact>
</mgrwt>
</event>
<event>
 6    1  0.4630212E-004  0.4418334E+04  0.7818608E-02  0.7925092E-01
         -2   -1    0    0    0  501 -0.00000000000E+00  0.00000000000E+00  0.20988701844E+04  0.20988701844E+04  0.00000000000E+00 0. -1.
          2   -1    0    0  501    0  0.00000000000E+00 -0.00000000000E+00 -0.23252599863E+04  0.23252599863E+04  0.00000000000E+00 0.  1.
         23    2    1    2    0    0  0.18696691445E+03 -0.13437375375E+04 -0.18578572817E+04  0.23022740647E+04  0.90801945841E+02 0.  0.
         13    1    3    3    0    0  0.75434573081E+02 -0.30564851105E+03 -0.46507012443E+03  0.56160627468E+03  0.00000000000E+00 0.  1.
        -13    1    3    3    0    0  0.11153234137E+03 -0.10380890264E+04 -0.13927871573E+04  0.17406677901E+04  0.00000000000E+00 0. -1.
         22    1    1    2    0    0 -0.18696691445E+03  0.13437375375E+04  0.16314674798E+04  0.21218561060E+04  0.00000000000E+00 0. -1.
<mgrwt>
<rscale>  0 0.44183340E+04</rscale>
<asrwt>0</asrwt>
<pdfrwt beam="1">  1        2 0.35773231E+00 0.44183340E+04</pdfrwt>
<pdfrwt beam="2">  1       -2 0.32290311E+00 0.44183340E+04</pdfrwt>
<totfact> 0.76858243E-02</totfact>
</mgrwt>
</event>
<event>
 6    1  0.4630212E-004  0.1769353E+04  0.7818608E-02  0.8722769E-01
         -2   -1    0    0    0  501 -0.00000000000E+00  0.00000000000E+00  0.35674690113E+03  0.35674690113E+03  0.00000000000E+00 0. -1.
          2   -1    0    0  501    0  0.00000000000E+00 -0.00000000000E+00 -0.21938599883E+04  0.21938599883E+04  0.00000000000E+00 0.  1.
         23    2    1    2    0    0 -0.76129027818E+03  0.44536831825E+03 -0.94707652014E+03  0.12975781918E+04  0.94018095020E+02 0.  0.
         11    1    3    3    0    0 -0.21814354578E+03  0.84676113263E+02 -0.27763494225E+03  0.36309476983E+03  0.00000000000E+00 0.  1.
        -11    1    3    3    0    0 -0.54314673240E+03  0.36069220499E+03 -0.66944157789E+03  0.93448342193E+03  0.00000000000E+00 0. -1.
         22    1    1    2    0    0  0.76129027818E+03 -0.44536831825E+03 -0.89003656705E+03  0.12530286977E+04  0.00000000000E+00 0. -1.
<mgrwt>
<rscale>  0 0.17693533E+04</rscale>
<asrwt>0</asrwt>
<pdfrwt beam="1">  1        2 0.33751692E+00 0.17693533E+04</pdfrwt>
<pdfrwt beam="2">  1       -2 0.54884139E-01 0.17693533E+04</pdfrwt>
<totfact> 0.15387248E+01</totfact>
</mgrwt>
</event>
<event>
 6    1  0.4630212E-004  0.3342861E+04  0.7818608E-02  0.8152074E-01
         -2   -1    0    0    0  501 -0.00000000000E+00  0.00000000000E+00  0.72369022263E+03  0.72369022263E+03  0.00000000000E+00 0. -1.
          2   -1    0    0  501    0  0.00000000000E+00 -0.00000000000E+00 -0.38603247507E+04  0.38603247507E+04  0.00000000000E+00 0.  1.
         23    2    1    2    0    0  0.99040041622E+03 -0.11491981191E+04 -0.61034757344E+03  0.16372073653E+04  0.79840435783E+02 0.  0.
         11    1    3    3    0    0  0.52489547150E+03 -0.65721846991E+03 -0.31196261341E+03  0.89709087909E+03  0.00000000000E+00 0.  1.
        -11    1    3    3    0    0  0.46550494472E+03 -0.49197964923E+03 -0.29838496003E+03  0.74011648623E+03  0.00000000000E+00 0. -1.
         22    1    1    2    0    0 -0.99040041622E+03  0.11491981191E+04 -0.25262869546E+04  0.29468076080E+04  0.00000000000E+00 0.  1.
<mgrwt>
<rscale>  0 0.33428606E+04</rscale>
<asrwt>0</asrwt>
<pdfrwt beam="1">  1        2 0.59389613E+00 0.33428606E+04</pdfrwt>
<pdfrwt beam="2">  1       -2 0.11133695E+00 0.33428606E+04</pdfrwt>
<totfact> 0.23394472E-01</totfact>
</mgrwt>
</event>
<event>
 6    1  0.4630212E-004  0.3380886E+04  0.7818608E-02  0.8142613E-01
         -2   -1    0    0    0  501 -0.00000000000E+00  0.00000000000E+00  0.17098082157E+04  0.17098082157E+04  0.00000000000E+00 0. -1.
          2   -1    0    0  501    0  0.00000000000E+00 -0.00000000000E+00 -0.16712971368E+04  0.16712971368E+04  0.00000000000E+00 0.  1.
         23    2    1    2    0    0  0.14980916924E+03  0.78163400465E+03  0.15088215388E+04  0.17092179900E+04  0.10718767212E+03 0.  0.
         11    1    3    3    0    0  0.12234747146E+03  0.35455227935E+03  0.70984479916E+03  0.80284236402E+03  0.00000000000E+00 0. -1.
        -11    1    3    3    0    0  0.27461697772E+02  0.42708172529E+03  0.79897673961E+03  0.90637562597E+03  0.00000000000E+00 0.  1.
         22    1    1    2    0    0 -0.14980916924E+03 -0.78163400465E+03 -0.14703104599E+04  0.16718873625E+04  0.00000000000E+00 0.  1.
<mgrwt>
<rscale>  0 0.33808860E+04</rscale>
<asrwt>0</asrwt>
<pdfrwt beam="1">  1        2 0.25712264E+00 0.33808860E+04</pdfrwt>
<pdfrwt beam="2">  1       -2 0.26304742E+00 0.33808860E+04</pdfrwt>
<totfact> 0.45123498E-01</totfact>
</mgrwt>
</event>
<event>
 6    1  0.4630212E-004  0.1843565E+04  0.7818608E-02  0.8683469E-01
         -2   -1    0    0    0  501 -0.00000000000E+00  0.00000000000E+00  0.77637385879E+03  0.77637385879E+03  0.00000000000E+00 0. -1.
          2   -1    0    0  501    0  0.00000000000E+00 -0.00000000000E+00 -0.10944252013E+04  0.10944252013E+04  0.00000000000E+00 0.  1.
         23    2    1    2    0    0 -0.69097497919E+03 -0.31737183470E+03 -0.68373250309E+03  0.10270609405E+04  0.95878758703E+02 0.  0.
         11    1    3    3    0    0 -0.21070747667E+03 -0.11892125720E+03 -0.16531854464E+03  0.29303605126E+03  0.00000000000E+00 0. -1.
        -11    1    3    3    0    0 -0.48026750251E+03 -0.19845057750E+03 -0.51841395845E+03  0.73402488922E+03  0.00000000000E+00 0.  1.
         22    1    1    2    0    0  0.69097497919E+03  0.31737183470E+03  0.36568116055E+03  0.84373811962E+03  0.00000000000E+00 0. -1.
<mgrwt>
<rscale>  0 0.18435652E+04</rscale>
<asrwt>0</asrwt>
<pdfrwt beam="1">  1        2 0.16837311E+00 0.18435652E+04</pdfrwt>
<pdfrwt beam="2">  1       -2 0.11944213E+00 0.18435652E+04</pdfrwt>
<totfact> 0.11099464E+01</totfact>
</mgrwt>
</event>
<event>
 6    1  0.4630212E-004  0.3456642E+04  0.7818608E-02  0.8124143E-01
          1   -1    0    0  501    0  0.00000000000E+00  0.00000000000E+00  0.39202473280E+04  0.39202473280E+04  0.00000000000E+00 0.  1.
         -1   -1    0    0    0  501 -0.00000000000E+00 -0.00000000000E+00 -0.76196551762E+03  0.76196551762E+03  0.00000000000E+00 0. -1.
         23    2    1    2    0    0  0.16792757678E+04  0.39465878123E+03  0.14669562300E+04  0.22663682983E+04  0.93498794821E+02 0.  0.
         11    1    3    3    0    0  0.99793584823E+03  0.18916385433E+03  0.84559845708E+03  0.13216261467E+04  0.00000000000E+00 0.  1.
        -11    1    3    3    0    0  0.68133991962E+03  0.20549492690E+03  0.62135777296E+03  0.94474215163E+03  0.00000000000E+00 0. -1.
         22    1    1    2    0    0 -0.16792757678E+04 -0.39465878123E+03  0.16913255803E+04  0.24158445473E+04  0.00000000000E+00 0. -1.
<mgrwt>
<rscale>  0 0.34566419E+04</rscale>
<asrwt>0</asrwt>
<pdfrwt beam="1">  1        1 0.60311496E+00 0.34566419E+04</pdfrwt>
<pdfrwt beam="2">  1       -1 0.11722547E+00 0.34566419E+04</pdfrwt>
<totfact> 0.60297951E-02</totfact>
</mgrwt>
</event>
<event>
 6    1  0.4630212E-004  0.1782305E+04  0.7818608E-02  0.8715767E-01
         -2   -1    0    0    0  501 -0.00000000000E+00  0.00000000000E+00  0.57669495256E+03  0.57669495256E+03  0.00000000000E+00 0. -1.
          2   -1    0    0  501    0  0.00000000000E+00 -0.00000000000E+00 -0.13770754924E+04  0.13770754924E+04  0.00000000000E+00 0.  1.
         23    2    1    2    0    0  0.66208692983E+03 -0.56405375976E+03 -0.60418576318E+03  0.10621381570E+04  0.81125098668E+02 0.  0.
         13    1    3    3    0    0  0.55088949512E+03 -0.49403181728E+03 -0.48510151949E+03  0.88479950076E+03  0.00000000000E+00 0. -1.
        -13    1    3    3    0    0  0.11119743471E+03 -0.70021942480E+02 -0.11908424369E+03  0.17733865627E+03  0.00000000000E+00 0.  1.
         22    1    1    2    0    0 -0.66208692983E+03  0.56405375976E+03 -0.19619477670E+03  0.89163228797E+03  0.00000000000E+00 0.  1.
<mgrwt>
<rscale>  0 0.17823047E+04</rscale>
<asrwt>0</asrwt>
<pdfrwt beam="1">  1        2 0.21185777E+00 0.17823047E+04</pdfrwt>
<pdfrwt beam="2">  1       -2 0.88722301E-01 0.17823047E+04</pdfrwt>
<totfact> 0.15403443E+01</totfact>
</mgrwt>
</event>
<event>
 6    1  0.4630212E-004  0.1328527E+04  0.7818608E-02  0.9007244E-01
          2   -1    0    0  501    0  0.00000000000E+00  0.00000000000E+00  0.21694698500E+04  0.21694698500E+04  0.00000000000E+00 0.  1.
         -2   -1    0    0    0  501 -0.00000000000E+00 -0.00000000000E+00 -0.20338874793E+03  0.20338874793E+03  0.00000000000E+00 0. -1.
         23    2    1    2    0    0 -0.31298087626E+03 -0.57571744362E+03  0.11450180920E+04  0.13223577315E+04  0.90310217195E+02 0.  0.
         13    1    3    3    0    0 -0.75063287043E+02 -0.18401405546E+03  0.41982374687E+03  0.46448643479E+03  0.00000000000E+00 0. -1.
        -13    1    3    3    0    0 -0.23791758922E+03 -0.39170338816E+03  0.72519434512E+03  0.85787129673E+03  0.00000000000E+00 0.  1.
         22    1    1    2    0    0  0.31298087626E+03  0.57571744362E+03  0.82106301009E+03  0.10505008664E+04  0.00000000000E+00 0. -1.
<mgrwt>
<rscale>  0 0.13285266E+04</rscale>
<asrwt>0</asrwt>
<pdfrwt beam="1">  1        2 0.33376458E+00 0.13285266E+04</pdfrwt>
<pdfrwt beam="2">  1       -2 0.31290578E-01 0.13285266E+04</pdfrwt>
<totfact> 0.49884403E+01</totfact>
</mgrwt>
</event>
<event>
 6    1  0.4630212E-004  0.2998563E+04  0.7818608E-02  0.8244141E-01
          2   -1    0    0  501    0  0.00000000000E+00  0.00000000000E+00  0.30455012562E+04  0.30455012562E+04  0.00000000000E+00 0.  1.
         -2   -1    0    0    0  501 -0.00000000000E+00 -0.00000000000E+00 -0.73808705870E+03  0.73808705870E+03  0.00000000000E+00 0. -1.
         23    2    1    2    0    0 -0.67700985324E+02  0.12209924514E+04  0.63212500634E+02  0.12278404310E+04  0.90500352615E+02 0.  0.
         11    1    3    3    0    0 -0.36681646817E+02  0.49388276485E+03  0.69134399842E+02  0.50004529182E+03  0.00000000000E+00 0.  1.
        -11    1    3    3    0    0 -0.31019338508E+02  0.72710968660E+03 -0.59218992082E+01  0.72779513917E+03  0.00000000000E+00 0. -1.
         22    1    1    2    0    0  0.67700985324E+02 -0.12209924514E+04  0.22442016969E+04  0.25557478839E+04  0.00000000000E+00 0.  1.
<mgrwt>
<rscale>  0 0.29985630E+04</rscale>
<asrwt>0</asrwt>
<pdfrwt beam="1">  1        2 0.46853865E+00 0.29985630E+04</pdfrwt>
<pdfrwt beam="2">  1       -2 0.11355186E+00 0.29985630E+04</pdfrwt>
<totfact> 0.84811402E-01</totfact>
</mgrwt>
</event>
<event>
 6    1  0.4630212E-004  0.7383761E+03  0.7818608E-02  0.9653765E-01
         -2   -1    0    0    0  501 -0.00000000000E+00  0.00000000000E+00  0.90118618156E+02  0.90118618156E+02  0.00000000000E+00 0. -1.
          2   -1    0    0  501    0  0.00000000000E+00 -0.00000000000E+00 -0.15124491581E+04  0.15124491581E+04  0.00000000000E+00 0.  1.
         23    2    1    2    0    0 -0.19295261039E+03  0.26261100497E+03 -0.37178021099E+03  0.50263539494E+03  0.90700414443E+02 0.  0.
         11    1    3    3    0    0 -0.13773955926E+03  0.18006611760E+03 -0.19128571053E+03  0.29662470556E+03  0.00000000000E+00 0. -1.
        -11    1    3    3    0    0 -0.55213051124E+02  0.82544887369E+02 -0.18049450046E+03  0.20601068939E+03  0.00000000000E+00 0.  1.
         22    1    1    2    0    0  0.19295261039E+03 -0.26261100497E+03 -0.10505503289E+04  0.10999323813E+04  0.00000000000E+00 0.  1.
<mgrwt>
<rscale>  0 0.73837613E+03</rscale>
<asrwt>0</asrwt>
<pdfrwt beam="1">  1        2 0.23268450E+00 0.73837613E+03</pdfrwt>
<pdfrwt beam="2">  1       -2 0.13864402E-01 0.73837613E+03</pdfrwt>
<totfact> 0.50633534E+02</totfact>
</mgrwt>
</event>
<event>
 6    1  0.4630212E-004  0.2096494E+04  0.7818608E-02  0.8562789E-01
         -2   -1    0    0    0  501 -0.00000000000E+00  0.00000000000E+00  0.85601028841E+03  0.85601028841E+03  0.00000000000E+00 0. -1.
          2   -1    0    0  501    0  0.00000000000E+00 -0.00000000000E+00 -0.12836554187E+04  0.12836554187E+04  0.00000000000E+00 0.  1.
         23    2    1    2    0    0  0.92896729045E+03  0.42450431378E+03  0.19005745564E+02  0.10249096154E+04  0.83032295861E+02 0.  0.
         13    1    3    3    0    0  0.61732390384E+03  0.32156432415E+03 -0.16322418131E+01  0.69605680877E+03  0.00000000000E+00 0. -1.
        -13    1    3    3    0    0  0.31164338661E+03  0.10293998963E+03  0.20637987378E+02  0.32885280659E+03  0.00000000000E+00 0.  1.
         22    1    1    2    0    0 -0.92896729045E+03 -0.42450431378E+03 -0.44665087581E+03  0.11147560917E+04  0.00000000000E+00 0. -1.
<mgrwt>
<rscale>  0 0.20964945E+04</rscale>
<asrwt>0</asrwt>
<pdfrwt beam="1">  1        2 0.19748545E+00 0.20964945E+04</pdfrwt>
<pdfrwt beam="2">  1       -2 0.13169389E+00 0.20964945E+04</pdfrwt>
<totfact> 0.65479386E+00</totfact>
</mgrwt>
</event>
<event>
 6    1  0.4630212E-004  0.1316915E+04  0.7818608E-02  0.9016258E-01
         -2   -1    0    0    0  501 -0.00000000000E+00  0.00000000000E+00  0.38582838863E+03  0.38582838863E+03  0.00000000000E+00 0. -1.
          2   -1    0    0  501    0  0.00000000000E+00 -0.00000000000E+00 -0.11237288095E+04  0.11237288095E+04  0.00000000000E+00 0.  1.
         23    2    1    2    0    0 -0.61339068408E+03  0.19871389163E+03 -0.23712953095E+03  0.69315850495E+03  0.92211476983E+02 0.  0.
         11    1    3    3    0    0 -0.32709809266E+03  0.14314465060E+03 -0.99339940198E+02  0.37061027635E+03  0.00000000000E+00 0. -1.
        -11    1    3    3    0    0 -0.28629259142E+03  0.55569241025E+02 -0.13778959075E+03  0.32254822859E+03  0.00000000000E+00 0.  1.
         22    1    1    2    0    0  0.61339068408E+03 -0.19871389163E+03 -0.50077088996E+03  0.81639869321E+03  0.00000000000E+00 0. -1.
<mgrwt>
<rscale>  0 0.13169153E+04</rscale>
<asrwt>0</asrwt>
<pdfrwt beam="1">  1        2 0.17288135E+00 0.13169153E+04</pdfrwt>
<pdfrwt beam="2">  1       -2 0.59358215E-01 0.13169153E+04</pdfrwt>
<totfact> 0.54645087E+01</totfact>
</mgrwt>
</event>
<event>
 6    1  0.4630212E-004  0.3198390E+04  0.7818608E-02  0.8189242E-01
         -2   -1    0    0    0  501 -0.00000000000E+00  0.00000000000E+00  0.14643817692E+04  0.14643817692E+04  0.00000000000E+00 0. -1.
          2   -1    0    0  501    0  0.00000000000E+00 -0.00000000000E+00 -0.17464198598E+04  0.17464198598E+04  0.00000000000E+00 0.  1.
         23    2    1    2    0    0 -0.85536430780E+03  0.12092363065E+03 -0.14906888138E+04  0.17251680288E+04  0.88209776025E+02 0.  0.
         13    1    3    3    0    0 -0.64635610091E+03  0.64757491955E+02 -0.11710613034E+04  0.13391617969E+04  0.00000000000E+00 0.  1.
        -13    1    3    3    0    0 -0.20900820689E+03  0.56166138692E+02 -0.31962751039E+03  0.38600623192E+03  0.00000000000E+00 0. -1.
         22    1    1    2    0    0  0.85536430780E+03 -0.12092363065E+03  0.12086507231E+04  0.14856336002E+04  0.00000000000E+00 0. -1.
<mgrwt>
<rscale>  0 0.31983905E+04</rscale>
<asrwt>0</asrwt>
<pdfrwt beam="1">  1        2 0.26867998E+00 0.31983905E+04</pdfrwt>
<pdfrwt beam="2">  1       -2 0.22528950E+00 0.31983905E+04</pdfrwt>
<totfact> 0.71229587E-01</totfact>
</mgrwt>
</event>
<event>
 6    1  0.4630212E-004  0.2276157E+04  0.7818608E-02  0.8487382E-01
          2   -1    0    0  501    0  0.00000000000E+00  0.00000000000E+00  0.24639695983E+04  0.24639695983E+04  0.00000000000E+00 0.  1.
         -2   -1    0    0    0  501 -0.00000000000E+00 -0.00000000000E+00 -0.52566488377E+03  0.52566488377E+03  0.00000000000E+00 0. -1.
         23    2    1    2    0    0  0.10975932866E+04  0.29377730966E+03  0.97346611444E+03  0.14990206305E+04  0.91708473807E+02 0.  0.
         13    1    3    3    0    0  0.56368055098E+03  0.11155408879E+03  0.45741544065E+03  0.73444466342E+03  0.00000000000E+00 0. -1.
        -13    1    3    3    0    0  0.53391273560E+03  0.18222322087E+03  0.51605067379E+03  0.76457596704E+03  0.00000000000E+00 0.  1.
         22    1    1    2    0    0 -0.10975932866E+04 -0.29377730966E+03  0.96483860012E+03  0.14906138516E+04  0.00000000000E+00 0.  1.
<mgrwt>
<rscale>  0 0.22761567E+04</rscale>
<asrwt>0</asrwt>
<pdfrwt beam="1">  1        2 0.37907224E+00 0.22761567E+04</pdfrwt>
<pdfrwt beam="2">  1       -2 0.80871522E-01 0.22761567E+04</pdfrwt>
<totfact> 0.44753192E+00</totfact>
</mgrwt>
</event>
<event>
 6    1  0.4630212E-004  0.2622168E+04  0.7818608E-02  0.8360710E-01
          2   -1    0    0  501    0  0.00000000000E+00  0.00000000000E+00  0.17617101987E+04  0.17617101987E+04  0.00000000000E+00 0.  1.
         -2   -1    0    0    0  501 -0.00000000000E+00 -0.00000000000E+00 -0.97572310705E+03  0.97572310705E+03  0.00000000000E+00 0. -1.
         23    2    1    2    0    0  0.71809152015E+03 -0.30779198545E+03  0.14905473084E+04  0.16853893728E+04  0.91731791605E+02 0.  0.
         13    1    3    3    0    0  0.13196187003E+03 -0.92806742874E+02  0.34154348325E+03  0.37772870902E+03  0.00000000000E+00 0.  1.
        -13    1    3    3    0    0  0.58612965011E+03 -0.21498524257E+03  0.11490038252E+04  0.13076606638E+04  0.00000000000E+00 0. -1.
         22    1    1    2    0    0 -0.71809152015E+03  0.30779198545E+03 -0.70456021685E+03  0.10520439329E+04  0.00000000000E+00 0. -1.
<mgrwt>
<rscale>  0 0.26221681E+04</rscale>
<asrwt>0</asrwt>
<pdfrwt beam="1">  1        2 0.27103234E+00 0.26221681E+04</pdfrwt>
<pdfrwt beam="2">  1       -2 0.15011125E+00 0.26221681E+04</pdfrwt>
<totfact> 0.23929103E+00</totfact>
</mgrwt>
</event>
<event>
 6    1  0.4630212E-004  0.2153718E+04  0.7818608E-02  0.8537942E-01
         -2   -1    0    0    0  501 -0.00000000000E+00  0.00000000000E+00  0.46555380351E+03  0.46555380351E+03  0.00000000000E+00 0. -1.
          2   -1    0    0  501    0  0.00000000000E+00 -0.00000000000E+00 -0.24908510323E+04  0.24908510323E+04  0.00000000000E+00 0.  1.
         23    2    1    2    0    0 -0.90502476710E+03 -0.22716714580E+03 -0.28190223415E+03  0.97900734201E+03  0.91168881152E+02 0.  0.
         11    1    3    3    0    0 -0.69004543922E+03 -0.13804686410E+03 -0.19113955919E+03  0.72921462956E+03  0.00000000000E+00 0.  1.
        -11    1    3    3    0    0 -0.21497932788E+03 -0.89120281698E+02 -0.90762674967E+02  0.24979271245E+03  0.00000000000E+00 0. -1.
         22    1    1    2    0    0  0.90502476710E+03  0.22716714580E+03 -0.17433949946E+04  0.19773974938E+04  0.00000000000E+00 0.  1.
<mgrwt>
<rscale>  0 0.21537179E+04</rscale>
<asrwt>0</asrwt>
<pdfrwt beam="1">  1        2 0.38320785E+00 0.21537179E+04</pdfrwt>
<pdfrwt beam="2">  1       -2 0.71623662E-01 0.21537179E+04</pdfrwt>
<totfact> 0.57166936E+00</totfact>
</mgrwt>
</event>
<event>
 6    1  0.4630212E-004  0.2899978E+04  0.7818608E-02  0.8272884E-01
         -2   -1    0    0    0  501 -0.00000000000E+00  0.00000000000E+00  0.72669421620E+03  0.72669421620E+03  0.00000000000E+00 0. -1.
          2   -1    0    0  501    0  0.00000000000E+00 -0.00000000000E+00 -0.28931946620E+04  0.28931946620E+04  0.00000000000E+00 0.  1.
         23    2    1    2    0    0 -0.62784484634E+03 -0.19201048585E+03  0.52639217871E+03  0.84811546305E+03  0.10561219206E+03 0.  0.
         13    1    3    3    0    0 -0.29792797230E+03 -0.14587373507E+03  0.25396342821E+03  0.41777702920E+03  0.00000000000E+00 0.  1.
        -13    1    3    3    0    0 -0.32991687404E+03 -0.46136750779E+02  0.27242875050E+03  0.43033843385E+03  0.00000000000E+00 0. -1.
         22    1    1    2    0    0  0.62784484634E+03  0.19201048585E+03 -0.26928926245E+04  0.27717734151E+04  0.00000000000E+00 0.  1.
<mgrwt>
<rscale>  0 0.28999778E+04</rscale>
<asrwt>0</asrwt>
<pdfrwt beam="1">  1        2 0.44510687E+00 0.28999778E+04</pdfrwt>
<pdfrwt beam="2">  1       -2 0.11179911E+00 0.28999778E+04</pdfrwt>
<totfact> 0.11053386E+00</totfact>
</mgrwt>
</event>
<event>
 6    1  0.4630212E-004  0.2892138E+04  0.7818608E-02  0.8275221E-01
         -2   -1    0    0    0  501 -0.00000000000E+00  0.00000000000E+00  0.23544521961E+04  0.23544521961E+04  0.00000000000E+00 0. -1.
          2   -1    0    0  501    0  0.00000000000E+00 -0.00000000000E+00 -0.88815371010E+03  0.88815371010E+03  0.00000000000E+00 0.  1.
         23    2    1    2    0    0 -0.15759039101E+03  0.72646869316E+03 -0.65493237473E+03  0.99489332270E+03  0.91020956999E+02 0.  0.
         11    1    3    3    0    0 -0.42568784730E+02  0.19237442837E+03 -0.22932832780E+03  0.30234335458E+03  0.00000000000E+00 0.  1.
        -11    1    3    3    0    0 -0.11502160628E+03  0.53409426479E+03 -0.42560404693E+03  0.69254996813E+03  0.00000000000E+00 0. -1.
         22    1    1    2    0    0  0.15759039101E+03 -0.72646869316E+03  0.21212308607E+04  0.22477125835E+04  0.00000000000E+00 0. -1.
<mgrwt>
<rscale>  0 0.28921379E+04</rscale>
<asrwt>0</asrwt>
<pdfrwt beam="1">  1        2 0.13663903E+00 0.28921379E+04</pdfrwt>
<pdfrwt beam="2">  1       -2 0.36222341E+00 0.28921379E+04</pdfrwt>
<totfact> 0.33571137E-01</totfact>
</mgrwt>
</event>
<event>
 6    1  0.4630212E-004  0.1535454E+04  0.7818608E-02  0.8861213E-01
         -2   -1    0    0    0  501 -0.00000000000E+00  0.00000000000E+00  0.13200488261E+04  0.13200488261E+04  0.00000000000E+00 0. -1.
          2   -1    0    0  501    0  0.00000000000E+00 -0.00000000000E+00 -0.44650213690E+03  0.44650213690E+03  0.00000000000E+00 0.  1.
         23    2    1    2    0    0  0.42578307912E+03  0.58977800486E+03  0.16573271771E+03  0.75159778984E+03  0.91118486023E+02 0.  0.
         11    1    3    3    0    0  0.22976909447E+03  0.24172477521E+03  0.82753522197E+02  0.34361730043E+03  0.00000000000E+00 0.  1.
        -11    1    3    3    0    0  0.19601398466E+03  0.34805322965E+03  0.82979195509E+02  0.40798048941E+03  0.00000000000E+00 0. -1.
         22    1    1    2    0    0 -0.42578307912E+03 -0.58977800486E+03  0.70781397153E+03  0.10149531732E+04  0.00000000000E+00 0. -1.
<mgrwt>
<rscale>  0 0.15354538E+04</rscale>
<asrwt>0</asrwt>
<pdfrwt beam="1">  1        2 0.68692637E-01 0.15354538E+04</pdfrwt>
<pdfrwt beam="2">  1       -2 0.20308443E+00 0.15354538E+04</pdfrwt>
<totfact> 0.85763650E+00</totfact>
</mgrwt>
</event>
<event>
 6    1  0.4630212E-004  0.3350430E+04  0.7818608E-02  0.8150181E-01
         -2   -1    0    0    0  501 -0.00000000000E+00  0.00000000000E+00  0.12888141177E+04  0.12888141177E+04  0.00000000000E+00 0. -1.
          2   -1    0    0  501    0  0.00000000000E+00 -0.00000000000E+00 -0.21774632480E+04  0.21774632480E+04  0.00000000000E+00 0.  1.
         23    2    1    2    0    0  0.14999246317E+04 -0.66696869081E+03 -0.10556067362E+03  0.16475281619E+04  0.92654482253E+02 0.  0.
         11    1    3    3    0    0  0.12167064944E+04 -0.57388618345E+03 -0.10571755496E+03  0.13494058864E+04  0.00000000000E+00 0.  1.
        -11    1    3    3    0    0  0.28321813736E+03 -0.93082507363E+02  0.15688133170E+00  0.29812227545E+03  0.00000000000E+00 0. -1.
         22    1    1    2    0    0 -0.14999246317E+04  0.66696869081E+03 -0.78308845666E+03  0.18187492038E+04  0.00000000000E+00 0.  1.
<mgrwt>
<rscale>  0 0.33504300E+04</rscale>
<asrwt>0</asrwt>
<pdfrwt beam="1">  1        2 0.33499434E+00 0.33504300E+04</pdfrwt>
<pdfrwt beam="2">  1       -2 0.19827910E+00 0.33504300E+04</pdfrwt>
<totfact> 0.60374769E-01</totfact>
</mgrwt>
</event>
<event>
 6    1  0.4799188E-004  0.2198880E+04  0.7818608E-02  0.8518895E-01
         -2   -1    0    0    0  501 -0.00000000000E+00  0.00000000000E+00  0.52167371463E+03  0.52167371463E+03  0.00000000000E+00 0. -1.
          2   -1    0    0  501    0  0.00000000000E+00 -0.00000000000E+00 -0.23170954759E+04  0.23170954759E+04  0.00000000000E+00 0.  1.
         23    2    1    2    0    0  0.10149109876E+04 -0.24040305563E+03 -0.13405572386E+04  0.17009029085E+04  0.90216695367E+02 0.  0.
         11    1    3    3    0    0  0.42283384137E+03 -0.10905333487E+03 -0.49101423061E+03  0.65709669145E+03  0.00000000000E+00 0.  1.
        -11    1    3    3    0    0  0.59207714622E+03 -0.13134972076E+03 -0.84954300802E+03  0.10438062170E+04  0.00000000000E+00 0. -1.
         22    1    1    2    0    0 -0.10149109876E+04  0.24040305563E+03 -0.45486452263E+03  0.11378662821E+04  0.00000000000E+00 0. -1.
<mgrwt>
<rscale>  0 0.21988795E+04</rscale>
<asrwt>0</asrwt>
<pdfrwt beam="1">  1        2 0.35647622E+00 0.21988795E+04</pdfrwt>
<pdfrwt beam="2">  1       -2 0.80257496E-01 0.21988795E+04</pdfrwt>
<totfact> 0.55611401E+00</totfact>
</mgrwt>
</event>
<event>
 6    1  0.4630212E-004  0.2326073E+04  0.7818608E-02  0.8467711E-01
          2   -1    0    0  501    0  0.00000000000E+00  0.00000000000E+00  0.85832594357E+03  0.85832594357E+03  0.00000000000E+00 0.  1.
         -2   -1    0    0    0  501 -0.00000000000E+00 -0.00000000000E+00 -0.15759211102E+04  0.15759211102E+04  0.00000000000E+00 0. -1.
         23    2    1    2    0    0 -0.27344554112E+02 -0.54810964595E+03 -0.14303003931E+04  0.15347357150E+04  0.92100986627E+02 0.  0.
         13    1    3    3    0    0  0.25802875543E+02 -0.24431422663E+03 -0.56436956585E+03  0.61552273441E+03  0.00000000000E+00 0.  1.
        -13    1    3    3    0    0 -0.53147429655E+02 -0.30379541931E+03 -0.86593082726E+03  0.91921298058E+03  0.00000000000E+00 0. -1.
         22    1    1    2    0    0  0.27344554112E+02  0.54810964595E+03  0.71270522651E+03  0.89951133873E+03  0.00000000000E+00 0.  1.
<mgrwt>
<rscale>  0 0.23260731E+04</rscale>
<asrwt>0</asrwt>
<pdfrwt beam="1">  1        2 0.13205015E+00 0.23260731E+04</pdfrwt>
<pdfrwt beam="2">  1       -2 0.24244940E+00 0.23260731E+04</pdfrwt>
<totfact> 0.20263112E+00</totfact>
</mgrwt>
</event>
<event>
 6    1  0.4630212E-004  0.1497478E+04  0.7818608E-02  0.8886132E-01
         -2   -1    0    0    0  501 -0.00000000000E+00  0.00000000000E+00  0.50252766621E+03  0.50252766621E+03  0.00000000000E+00 0. -1.
          2   -1    0    0  501    0  0.00000000000E+00 -0.00000000000E+00 -0.11155798458E+04  0.11155798458E+04  0.00000000000E+00 0.  1.
         23    2    1    2    0    0 -0.53519187695E+03 -0.16699894208E+02 -0.86892134328E+03  0.10246614231E+04  0.90540043645E+02 0.  0.
         13    1    3    3    0    0 -0.16359634513E+03 -0.36972407357E+02 -0.32318563970E+03  0.36411492795E+03  0.00000000000E+00 0. -1.
        -13    1    3    3    0    0 -0.37159553183E+03  0.20272513149E+02 -0.54573570358E+03  0.66054649513E+03  0.00000000000E+00 0.  1.
         22    1    1    2    0    0  0.53519187695E+03  0.16699894208E+02  0.25586916365E+03  0.59344608898E+03  0.00000000000E+00 0. -1.
<mgrwt>
<rscale>  0 0.14974775E+04</rscale>
<asrwt>0</asrwt>
<pdfrwt beam="1">  1        2 0.17162767E+00 0.14974775E+04</pdfrwt>
<pdfrwt beam="2">  1       -2 0.77311949E-01 0.14974775E+04</pdfrwt>
<totfact> 0.30739146E+01</totfact>
</mgrwt>
</event>
<event>
 6    1  0.4630212E-004  0.3687707E+04  0.7818608E-02  0.8070692E-01
         -2   -1    0    0    0  501 -0.00000000000E+00  0.00000000000E+00  0.97781147093E+03  0.97781147093E+03  0.00000000000E+00 0. -1.
          2   -1    0    0  501    0  0.00000000000E+00 -0.00000000000E+00 -0.34769441062E+04  0.34769441062E+04  0.00000000000E+00 0.  1.
         23    2    1    2    0    0  0.66816072750E+03 -0.12908701768E+04  0.11792474019E+03  0.14611333769E+04  0.90663827554E+02 0.  0.
         11    1    3    3    0    0  0.21851632479E+03 -0.48543173438E+03  0.75874493729E+02  0.53772696765E+03  0.00000000000E+00 0.  1.
        -11    1    3    3    0    0  0.44964440271E+03 -0.80543844243E+03  0.42050246461E+02  0.92340640926E+03  0.00000000000E+00 0. -1.
         22    1    1    2    0    0 -0.66816072750E+03  0.12908701768E+04 -0.26170573754E+04  0.29936222002E+04  0.00000000000E+00 0.  1.
<mgrwt>
<rscale>  0 0.36877071E+04</rscale>
<asrwt>0</asrwt>
<pdfrwt beam="1">  1        2 0.53491448E+00 0.36877071E+04</pdfrwt>
<pdfrwt beam="2">  1       -2 0.15043253E+00 0.36877071E+04</pdfrwt>
<totfact> 0.20266124E-01</totfact>
</mgrwt>
</event>
<event>
 6    1  0.4630212E-004  0.2286278E+04  0.7818608E-02  0.8483351E-01
          2   -1    0    0  501    0  0.00000000000E+00  0.00000000000E+00  0.19694122146E+04  0.19694122146E+04  0.00000000000E+00 0.  1.
         -2   -1    0    0    0  501 -0.00000000000E+00 -0.00000000000E+00 -0.66353120328E+03  0.66353120328E+03  0.00000000000E+00 0. -1.
         23    2    1    2    0    0  0.62830650212E+03  0.89833783989E+03  0.10196703075E+04  0.14999401071E+04  0.91174853294E+02 0.  0.
         11    1    3    3    0    0  0.15803184012E+03  0.16677794153E+03  0.19315937342E+03  0.30016576722E+03  0.00000000000E+00 0.  1.
        -11    1    3    3    0    0  0.47027466200E+03  0.73155989836E+03  0.82651093405E+03  0.11997743399E+04  0.00000000000E+00 0. -1.
         22    1    1    2    0    0 -0.62830650212E+03 -0.89833783989E+03  0.28621070385E+03  0.11330033108E+04  0.00000000000E+00 0. -1.
<mgrwt>
<rscale>  0 0.22862777E+04</rscale>
<asrwt>0</asrwt>
<pdfrwt beam="1">  1        2 0.30298649E+00 0.22862777E+04</pdfrwt>
<pdfrwt beam="2">  1       -2 0.10208172E+00 0.22862777E+04</pdfrwt>
<totfact> 0.49593371E+00</totfact>
</mgrwt>
</event>
<event>
 6    1  0.4630212E-004  0.2699542E+04  0.7818608E-02  0.8335154E-01
         -2   -1    0    0    0  501 -0.00000000000E+00  0.00000000000E+00  0.14017312580E+04  0.14017312580E+04  0.00000000000E+00 0. -1.
          2   -1    0    0  501    0  0.00000000000E+00 -0.00000000000E+00 -0.12997370713E+04  0.12997370713E+04  0.00000000000E+00 0.  1.
         23    2    1    2    0    0 -0.34520250005E+03  0.12357364931E+04 -0.36346600455E+03  0.13366010698E+04  0.90473404314E+02 0.  0.
         11    1    3    3    0    0 -0.29093082041E+03  0.10814757144E+04 -0.34593184808E+03  0.11721345088E+04  0.00000000000E+00 0.  1.
        -11    1    3    3    0    0 -0.54271679639E+02  0.15426077870E+03 -0.17534156470E+02  0.16446656103E+03  0.00000000000E+00 0. -1.
         22    1    1    2    0    0  0.34520250005E+03 -0.12357364931E+04  0.46546019125E+03  0.13648672595E+04  0.00000000000E+00 0. -1.
<mgrwt>
<rscale>  0 0.26995422E+04</rscale>
<asrwt>0</asrwt>
<pdfrwt beam="1">  1        2 0.19995955E+00 0.26995422E+04</pdfrwt>
<pdfrwt beam="2">  1       -2 0.21565096E+00 0.26995422E+04</pdfrwt>
<totfact> 0.15283408E+00</totfact>
</mgrwt>
</event>
<event>
 6    1  0.4630212E-004  0.1085302E+04  0.7818608E-02  0.9219637E-01
          2   -1    0    0  501    0  0.00000000000E+00  0.00000000000E+00  0.13972877261E+04  0.13972877261E+04  0.00000000000E+00 0.  1.
         -2   -1    0    0    0  501 -0.00000000000E+00 -0.00000000000E+00 -0.21074423731E+03  0.21074423731E+03  0.00000000000E+00 0. -1.
         23    2    1    2    0    0 -0.48070247695E+03 -0.19437709219E+03  0.81539322210E+03  0.97037230044E+03  0.88876146966E+02 0.  0.
         13    1    3    3    0    0 -0.29368062395E+03 -0.71525378368E+02  0.47504877602E+03  0.56305908059E+03  0.00000000000E+00 0. -1.
        -13    1    3    3    0    0 -0.18702185300E+03 -0.12285171382E+03  0.34034444608E+03  0.40731321985E+03  0.00000000000E+00 0.  1.
         22    1    1    2    0    0  0.48070247695E+03  0.19437709219E+03  0.37115026666E+03  0.63765966295E+03  0.00000000000E+00 0.  1.
<mgrwt>
<rscale>  0 0.10853024E+04</rscale>
<asrwt>0</asrwt>
<pdfrwt beam="1">  1        2 0.21496734E+00 0.10853024E+04</pdfrwt>
<pdfrwt beam="2">  1       -2 0.32422191E-01 0.10853024E+04</pdfrwt>
<totfact> 0.12776291E+02</totfact>
</mgrwt>
</event>
<event>
 6    1  0.4630212E-004  0.1015981E+04  0.7818608E-02  0.9291189E-01
          2   -1    0    0  501    0  0.00000000000E+00  0.00000000000E+00  0.24998049231E+04  0.24998049231E+04  0.00000000000E+00 0.  1.
         -2   -1    0    0    0  501 -0.00000000000E+00 -0.00000000000E+00 -0.10322970198E+03  0.10322970198E+03  0.00000000000E+00 0. -1.
         23    2    1    2    0    0 -0.48206019884E+03 -0.14436512489E+03  0.11348534046E+04  0.12446660202E+04  0.89877289631E+02 0.  0.
         13    1    3    3    0    0 -0.14468643979E+03 -0.75361548773E+02  0.43742674749E+03  0.46685724618E+03  0.00000000000E+00 0. -1.
        -13    1    3    3    0    0 -0.33737375905E+03 -0.69003576113E+02  0.69742665712E+03  0.77780877397E+03  0.00000000000E+00 0.  1.
         22    1    1    2    0    0  0.48206019884E+03  0.14436512489E+03  0.12617218165E+04  0.13583686049E+04  0.00000000000E+00 0.  1.
<mgrwt>
<rscale>  0 0.10159805E+04</rscale>
<asrwt>0</asrwt>
<pdfrwt beam="1">  1        2 0.38458533E+00 0.10159805E+04</pdfrwt>
<pdfrwt beam="2">  1       -2 0.15881495E-01 0.10159805E+04</pdfrwt>
<totfact> 0.11198611E+02</totfact>
</mgrwt>
</event>
<event>
 6    1  0.4630212E-004  0.5133621E+03  0.7818608E-02  0.1010349E+00
          2   -1    0    0  501    0  0.00000000000E+00  0.00000000000E+00  0.25008951150E+04  0.25008951150E+04  0.00000000000E+00 0.  1.
         -2   -1    0    0    0  501 -0.00000000000E+00 -0.00000000000E+00 -0.26344632974E+02  0.26344632974E+02  0.00000000000E+00 0. -1.
         23    2    1    2    0    0 -0.40633269245E+01  0.10133377663E+03  0.23936140642E+04  0.23974871039E+04  0.90945478809E+02 0.  0.
         13    1    3    3    0    0  0.34157261474E+02  0.77447914272E+01  0.65774397373E+03  0.65867581957E+03  0.00000000000E+00 0. -1.
        -13    1    3    3    0    0 -0.38220588399E+02  0.93588985207E+02  0.17358700904E+04  0.17388112843E+04  0.00000000000E+00 0.  1.
         22    1    1    2    0    0  0.40633269245E+01 -0.10133377663E+03  0.80936417813E+02  0.12975264406E+03  0.00000000000E+00 0. -1.
<mgrwt>
<rscale>  0 0.51336211E+03</rscale>
<asrwt>0</asrwt>
<pdfrwt beam="1">  1        2 0.38475291E+00 0.51336211E+03</pdfrwt>
<pdfrwt beam="2">  1       -2 0.40530224E-02 0.51336211E+03</pdfrwt>
<totfact> 0.10503005E+03</totfact>
</mgrwt>
</event>
<event>
 6    1  0.4630212E-004  0.2637568E+04  0.7818608E-02  0.8355551E-01
         -1   -1    0    0    0  501 -0.00000000000E+00  0.00000000000E+00  0.12677760174E+04  0.12677760174E+04  0.00000000000E+00 0.  1.
          1   -1    0    0  501    0  0.00000000000E+00 -0.00000000000E+00 -0.13718442537E+04  0.13718442537E+04  0.00000000000E+00 0. -1.
         23    2    1    2    0    0  0.65351453063E+03 -0.47650195326E+03  0.98831721955E+03  0.12804141288E+04  0.92488170361E+02 0.  0.
         11    1    3    3    0    0  0.39557341538E+03 -0.31895472163E+03  0.55988198616E+03  0.75609409456E+03  0.00000000000E+00 0.  1.
        -11    1    3    3    0    0  0.25794111525E+03 -0.15754723163E+03  0.42843523339E+03  0.52432003427E+03  0.00000000000E+00 0. -1.
         22    1    1    2    0    0 -0.65351453063E+03  0.47650195326E+03 -0.10923854558E+04  0.13592061423E+04  0.00000000000E+00 0. -1.
<mgrwt>
<rscale>  0 0.26375680E+04</rscale>
<asrwt>0</asrwt>
<pdfrwt beam="1">  1        1 0.21105296E+00 0.26375680E+04</pdfrwt>
<pdfrwt beam="2">  1       -1 0.19504246E+00 0.26375680E+04</pdfrwt>
<totfact> 0.11501649E+00</totfact>
</mgrwt>
</event>
<event>
 6    1  0.4630212E-004  0.1778918E+04  0.7818608E-02  0.8717591E-01
         -2   -1    0    0    0  501 -0.00000000000E+00  0.00000000000E+00  0.42251637703E+03  0.42251637703E+03  0.00000000000E+00 0. -1.
          2   -1    0    0  501    0  0.00000000000E+00 -0.00000000000E+00 -0.18724424597E+04  0.18724424597E+04  0.00000000000E+00 0.  1.
         23    2    1    2    0    0  0.46675023853E+03  0.75313801643E+03 -0.67115954924E+03  0.11153190737E+04  0.91699719828E+02 0.  0.
         11    1    3    3    0    0  0.26467383991E+03  0.38548551727E+03 -0.30328122940E+03  0.55734265014E+03  0.00000000000E+00 0. -1.
        -11    1    3    3    0    0  0.20207639862E+03  0.36765249916E+03 -0.36787831984E+03  0.55797642354E+03  0.00000000000E+00 0.  1.
         22    1    1    2    0    0 -0.46675023853E+03 -0.75313801643E+03 -0.77876653343E+03  0.11796397630E+04  0.00000000000E+00 0.  1.
<mgrwt>
<rscale>  0 0.17789183E+04</rscale>
<asrwt>0</asrwt>
<pdfrwt beam="1">  1        2 0.28806807E+00 0.17789183E+04</pdfrwt>
<pdfrwt beam="2">  1       -2 0.65002519E-01 0.17789183E+04</pdfrwt>
<totfact> 0.16236107E+01</totfact>
</mgrwt>
</event>
<event>
 6    1  0.4630212E-004  0.2329094E+04  0.7818608E-02  0.8466537E-01
         -2   -1    0    0    0  501 -0.00000000000E+00  0.00000000000E+00  0.14153012766E+04  0.14153012766E+04  0.00000000000E+00 0. -1.
          2   -1    0    0  501    0  0.00000000000E+00 -0.00000000000E+00 -0.95821963092E+03  0.95821963092E+03  0.00000000000E+00 0.  1.
         23    2    1    2    0    0 -0.67178013934E+03 -0.36246010451E+02  0.11953757290E+04  0.13746813396E+04  0.90682539808E+02 0.  0.
         11    1    3    3    0    0 -0.48464260924E+03 -0.23064141085E+02  0.93965488320E+03  0.10575262232E+04  0.00000000000E+00 0.  1.
        -11    1    3    3    0    0 -0.18713753010E+03 -0.13181869366E+02  0.25572084579E+03  0.31715511635E+03  0.00000000000E+00 0. -1.
         22    1    1    2    0    0  0.67178013934E+03  0.36246010451E+02 -0.73829408336E+03  0.99883956790E+03  0.00000000000E+00 0.  1.
<mgrwt>
<rscale>  0 0.23290938E+04</rscale>
<asrwt>0</asrwt>
<pdfrwt beam="1">  1        2 0.14741840E+00 0.23290938E+04</pdfrwt>
<pdfrwt beam="2">  1       -2 0.21773866E+00 0.23290938E+04</pdfrwt>
<totfact> 0.24769474E+00</totfact>
</mgrwt>
</event>
<event>
 6    1  0.4630212E-004  0.3504290E+04  0.7818608E-02  0.8112774E-01
          2   -1    0    0  501    0  0.00000000000E+00  0.00000000000E+00  0.18344350416E+04  0.18344350416E+04  0.00000000000E+00 0.  1.
         -2   -1    0    0    0  501 -0.00000000000E+00 -0.00000000000E+00 -0.16735459371E+04  0.16735459371E+04  0.00000000000E+00 0. -1.
         23    2    1    2    0    0 -0.51020560275E+03 -0.12383144836E+04  0.12096540437E+04  0.18069106053E+04  0.89053426903E+02 0.  0.
         11    1    3    3    0    0 -0.58451712451E+02 -0.22309660565E+03  0.19069195939E+03  0.29925260486E+03  0.00000000000E+00 0. -1.
        -11    1    3    3    0    0 -0.45175389030E+03 -0.10152178779E+04  0.10189620843E+04  0.15076580005E+04  0.00000000000E+00 0.  1.
         22    1    1    2    0    0  0.51020560275E+03  0.12383144836E+04 -0.10487649392E+04  0.17010703733E+04  0.00000000000E+00 0. -1.
<mgrwt>
<rscale>  0 0.35042895E+04</rscale>
<asrwt>0</asrwt>
<pdfrwt beam="1">  1        2 0.28222078E+00 0.35042895E+04</pdfrwt>
<pdfrwt beam="2">  1       -2 0.25746861E+00 0.35042895E+04</pdfrwt>
<totfact> 0.39219721E-01</totfact>
</mgrwt>
</event>
<event>
 6    1  0.4630212E-004  0.1578597E+04  0.7818608E-02  0.8833806E-01
         -2   -1    0    0    0  501 -0.00000000000E+00  0.00000000000E+00  0.24981634502E+03  0.24981634502E+03  0.00000000000E+00 0. -1.
          2   -1    0    0  501    0  0.00000000000E+00 -0.00000000000E+00 -0.24938006439E+04  0.24938006439E+04  0.00000000000E+00 0.  1.
         23    2    1    2    0    0  0.10742207581E+03 -0.38874304930E+03  0.48168828909E+02  0.41625225130E+03  0.91022194423E+02 0.  0.
         11    1    3    3    0    0  0.83166038824E+02 -0.19327685390E+03 -0.10686189771E+02  0.21068157707E+03  0.00000000000E+00 0. -1.
        -11    1    3    3    0    0  0.24256036986E+02 -0.19546619540E+03  0.58855018680E+02  0.20557067422E+03  0.00000000000E+00 0.  1.
         22    1    1    2    0    0 -0.10742207581E+03  0.38874304930E+03 -0.22921531278E+04  0.23273647377E+04  0.00000000000E+00 0.  1.
<mgrwt>
<rscale>  0 0.15785971E+04</rscale>
<asrwt>0</asrwt>
<pdfrwt beam="1">  1        2 0.38366166E+00 0.15785971E+04</pdfrwt>
<pdfrwt beam="2">  1       -2 0.38433282E-01 0.15785971E+04</pdfrwt>
<totfact> 0.21606291E+01</totfact>
</mgrwt>
</event>
<event>
 6    1  0.4630212E-004  0.4810043E+04  0.7818608E-02  0.7858497E-01
          2   -1    0    0  501    0  0.00000000000E+00  0.00000000000E+00  0.37057617523E+04  0.37057617523E+04  0.00000000000E+00 0.  1.
         -2   -1    0    0    0  501 -0.00000000000E+00 -0.00000000000E+00 -0.15608473665E+04  0.15608473665E+04  0.00000000000E+00 0. -1.
         23    2    1    2    0    0 -0.16611216479E+04 -0.16403971099E+04  0.44429584630E+03  0.23782997130E+04  0.93182178506E+02 0.  0.
         11    1    3    3    0    0 -0.78702806635E+03 -0.82846952487E+03  0.18787502617E+03  0.11580466123E+04  0.00000000000E+00 0.  1.
        -11    1    3    3    0    0 -0.87409358154E+03 -0.81192758502E+03  0.25642082013E+03  0.12202531006E+04  0.00000000000E+00 0. -1.
         22    1    1    2    0    0  0.16611216479E+04  0.16403971099E+04  0.17006185395E+04  0.28883094059E+04  0.00000000000E+00 0.  1.
<mgrwt>
<rscale>  0 0.48100430E+04</rscale>
<asrwt>0</asrwt>
<pdfrwt beam="1">  1        2 0.57011719E+00 0.48100430E+04</pdfrwt>
<pdfrwt beam="2">  1       -2 0.24013037E+00 0.48100430E+04</pdfrwt>
<totfact> 0.31495093E-02</totfact>
</mgrwt>
</event>
<event>
 6    1  0.4630212E-004  0.5312691E+04  0.7818608E-02  0.7782002E-01
         -2   -1    0    0    0  501 -0.00000000000E+00  0.00000000000E+00  0.46815126330E+04  0.46815126330E+04  0.00000000000E+00 0. -1.
          2   -1    0    0  501    0  0.00000000000E+00 -0.00000000000E+00 -0.15072414995E+04  0.15072414995E+04  0.00000000000E+00 0.  1.
         23    2    1    2    0    0 -0.17132037637E+03  0.16785490726E+04 -0.80123808604E+03  0.18700099614E+04  0.89872825557E+02 0.  0.
         13    1    3    3    0    0 -0.13597924502E+03  0.15550220157E+04 -0.73217803963E+03  0.17241428323E+04  0.00000000000E+00 0.  1.
        -13    1    3    3    0    0 -0.35341131348E+02  0.12352705693E+03 -0.69060046407E+02  0.14586712916E+03  0.00000000000E+00 0. -1.
         22    1    1    2    0    0  0.17132037637E+03 -0.16785490726E+04  0.39755092195E+04  0.43187441710E+04  0.00000000000E+00 0. -1.
<mgrwt>
<rscale>  0 0.53126905E+04</rscale>
<asrwt>0</asrwt>
<pdfrwt beam="1">  1        2 0.23188331E+00 0.53126905E+04</pdfrwt>
<pdfrwt beam="2">  1       -2 0.72023271E+00 0.53126905E+04</pdfrwt>
<totfact> 0.17258737E-03</totfact>
</mgrwt>
</event>
<event>
 6    1  0.4630212E-004  0.1493630E+04  0.7818608E-02  0.8888700E-01
         -2   -1    0    0    0  501 -0.00000000000E+00  0.00000000000E+00  0.56557215251E+03  0.56557215251E+03  0.00000000000E+00 0. -1.
          2   -1    0    0  501    0  0.00000000000E+00 -0.00000000000E+00 -0.98613836724E+03  0.98613836724E+03  0.00000000000E+00 0.  1.
         23    2    1    2    0    0 -0.19770253140E+03 -0.68936536879E+03 -0.41622350101E+03  0.83454264417E+03  0.94384953972E+02 0.  0.
         11    1    3    3    0    0 -0.12545815632E+03 -0.41476544876E+03 -0.30351165479E+03  0.52904579298E+03  0.00000000000E+00 0.  1.
        -11    1    3    3    0    0 -0.72244375083E+02 -0.27459992003E+03 -0.11271184622E+03  0.30549685119E+03  0.00000000000E+00 0. -1.
         22    1    1    2    0    0  0.19770253140E+03  0.68936536879E+03 -0.43427137228E+01  0.71716787558E+03  0.00000000000E+00 0. -1.
<mgrwt>
<rscale>  0 0.14936297E+04</rscale>
<asrwt>0</asrwt>
<pdfrwt beam="1">  1        2 0.15171359E+00 0.14936297E+04</pdfrwt>
<pdfrwt beam="2">  1       -2 0.87011101E-01 0.14936297E+04</pdfrwt>
<totfact> 0.28397095E+01</totfact>
</mgrwt>
</event>
<event>
 6    1  0.4630212E-004  0.1125405E+04  0.7818608E-02  0.9180779E-01
          2   -1    0    0  501    0  0.00000000000E+00  0.00000000000E+00  0.23491588910E+04  0.23491588910E+04  0.00000000000E+00 0.  1.
         -2   -1    0    0    0  501 -0.00000000000E+00 -0.00000000000E+00 -0.13478605592E+03  0.13478605592E+03  0.00000000000E+00 0. -1.
         23    2    1    2    0    0  0.42709721620E+03 -0.32244569092E+03  0.75639095921E+03  0.93085306101E+03  0.89313393952E+02 0.  0.
         11    1    3    3    0    0  0.16702196540E+03 -0.15963515824E+03  0.38619632473E+03  0.45003035665E+03  0.00000000000E+00 0. -1.
        -11    1    3    3    0    0  0.26007525080E+03 -0.16281053268E+03  0.37019463448E+03  0.48082270436E+03  0.00000000000E+00 0.  1.
         22    1    1    2    0    0 -0.42709721620E+03  0.32244569092E+03  0.14579818758E+04  0.15530918859E+04  0.00000000000E+00 0.  1.
<mgrwt>
<rscale>  0 0.11254046E+04</rscale>
<asrwt>0</asrwt>
<pdfrwt beam="1">  1        2 0.36140903E+00 0.11254046E+04</pdfrwt>
<pdfrwt beam="2">  1       -2 0.20736318E-01 0.11254046E+04</pdfrwt>
<totfact> 0.85009668E+01</totfact>
</mgrwt>
</event>
<event>
 6    1  0.4630212E-004  0.1238663E+04  0.7818608E-02  0.9079672E-01
         -2   -1    0    0    0  501 -0.00000000000E+00  0.00000000000E+00  0.21529285420E+03  0.21529285420E+03  0.00000000000E+00 0. -1.
          2   -1    0    0  501    0  0.00000000000E+00 -0.00000000000E+00 -0.17816275522E+04  0.17816275522E+04  0.00000000000E+00 0.  1.
         23    2    1    2    0    0 -0.36431196172E+03  0.47763567626E+03 -0.56711486020E+03  0.83103047639E+03  0.90185050557E+02 0.  0.
         11    1    3    3    0    0 -0.21522117797E+03  0.27530004209E+03 -0.38946494666E+03  0.52325253301E+03  0.00000000000E+00 0.  1.
        -11    1    3    3    0    0 -0.14909078374E+03  0.20233563416E+03 -0.17764991354E+03  0.30777794338E+03  0.00000000000E+00 0. -1.
         22    1    1    2    0    0  0.36431196172E+03 -0.47763567626E+03 -0.99921983783E+03  0.11658899301E+04  0.00000000000E+00 0.  1.
<mgrwt>
<rscale>  0 0.12386633E+04</rscale>
<asrwt>0</asrwt>
<pdfrwt beam="1">  1        2 0.27409655E+00 0.12386633E+04</pdfrwt>
<pdfrwt beam="2">  1       -2 0.33121977E-01 0.12386633E+04</pdfrwt>
<totfact> 0.74001979E+01</totfact>
</mgrwt>
</event>
<event>
 6    1  0.4630212E-004  0.1238458E+04  0.7818608E-02  0.9079845E-01
         -4   -1    0    0    0  501 -0.00000000000E+00  0.00000000000E+00  0.45170153432E+03  0.45170153432E+03  0.00000000000E+00 0. -1.
          4   -1    0    0  501    0  0.00000000000E+00 -0.00000000000E+00 -0.84888932103E+03  0.84888932103E+03  0.00000000000E+00 0.  1.
         23    2    1    2    0    0 -0.38200652327E+03 -0.11684921508E+03 -0.69133074245E+03  0.80450336175E+03  0.98512642426E+02 0.  0.
         11    1    3    3    0    0 -0.29520561819E+03 -0.11633458112E+03 -0.47319239686E+03  0.56972900244E+03  0.00000000000E+00 0. -1.
        -11    1    3    3    0    0 -0.86800905081E+02 -0.51463396534E+00 -0.21813834559E+03  0.23477435931E+03  0.00000000000E+00 0.  1.
         22    1    1    2    0    0  0.38200652327E+03  0.11684921508E+03  0.29414295574E+03  0.49608749360E+03  0.00000000000E+00 0. -1.
<mgrwt>
<rscale>  0 0.12384581E+04</rscale>
<asrwt>0</asrwt>
<pdfrwt beam="1">  1        4 0.13059836E+00 0.12384581E+04</pdfrwt>
<pdfrwt beam="2">  1       -4 0.69492544E-01 0.12384581E+04</pdfrwt>
<totfact> 0.15974020E+00</totfact>
</mgrwt>
</event>
<event>
 6    1  0.4630212E-004  0.1832117E+04  0.7818608E-02  0.8689404E-01
         -2   -1    0    0    0  501 -0.00000000000E+00  0.00000000000E+00  0.35328391998E+03  0.35328391998E+03  0.00000000000E+00 0.  1.
          2   -1    0    0  501    0  0.00000000000E+00 -0.00000000000E+00 -0.23753215071E+04  0.23753215071E+04  0.00000000000E+00 0. -1.
         23    2    1    2    0    0  0.23797096023E+03 -0.57854454470E+03 -0.20054833198E+04  0.21028115218E+04  0.92244142433E+02 0.  0.
         11    1    3    3    0    0  0.19425119310E+03 -0.43880478503E+03 -0.14032827939E+04  0.14830663387E+04  0.00000000000E+00 0. -1.
        -11    1    3    3    0    0  0.43719767123E+02 -0.13973975967E+03 -0.60220052594E+03  0.61974518305E+03  0.00000000000E+00 0.  1.
         22    1    1    2    0    0 -0.23797096023E+03  0.57854454470E+03 -0.16554267240E+02  0.62579390528E+03  0.00000000000E+00 0. -1.
<mgrwt>
<rscale>  0 0.18321167E+04</rscale>
<asrwt>0</asrwt>
<pdfrwt beam="1">  1        2 0.36543407E+00 0.18321167E+04</pdfrwt>
<pdfrwt beam="2">  1       -2 0.54351373E-01 0.18321167E+04</pdfrwt>
<totfact> 0.12331734E+01</totfact>
</mgrwt>
</event>
<event>
 6    1  0.4630212E-004  0.4788134E+04  0.7818608E-02  0.7862047E-01
         -2   -1    0    0    0  501 -0.00000000000E+00  0.00000000000E+00  0.19390808878E+04  0.19390808878E+04  0.00000000000E+00 0.  1.
          2   -1    0    0  501    0  0.00000000000E+00 -0.00000000000E+00 -0.29558111300E+04  0.29558111300E+04  0.00000000000E+00 0. -1.
         23    2    1    2    0    0 -0.39028897182E+03  0.23433929193E+04 -0.80416171878E+03  0.25097292912E+04  0.90825048019E+02 0.  0.
         13    1    3    3    0    0 -0.33066652298E+03  0.17717548977E+04 -0.62733076700E+03  0.19084023837E+04  0.00000000000E+00 0.  1.
        -13    1    3    3    0    0 -0.59622448840E+02  0.57163802158E+03 -0.17683095178E+03  0.60132690745E+03  0.00000000000E+00 0. -1.
         22    1    1    2    0    0  0.39028897182E+03 -0.23433929193E+04 -0.21256852338E+03  0.23851627267E+04  0.00000000000E+00 0. -1.
<mgrwt>
<rscale>  0 0.47881340E+04</rscale>
<asrwt>0</asrwt>
<pdfrwt beam="1">  1        2 0.45474017E+00 0.47881340E+04</pdfrwt>
<pdfrwt beam="2">  1       -2 0.29832014E+00 0.47881340E+04</pdfrwt>
<totfact> 0.44687731E-02</totfact>
</mgrwt>
</event>
<event>
 6    1  0.4630212E-004  0.6972538E+03  0.7818608E-02  0.9721940E-01
         -2   -1    0    0    0  501 -0.00000000000E+00  0.00000000000E+00  0.56169951674E+02  0.56169951674E+02  0.00000000000E+00 0. -1.
          2   -1    0    0  501    0  0.00000000000E+00 -0.00000000000E+00 -0.21638032673E+04  0.21638032673E+04  0.00000000000E+00 0.  1.
         23    2    1    2    0    0  0.24003120457E+02  0.33673292322E+03 -0.12586531853E+04  0.13063362708E+04  0.91331266128E+02 0.  0.
         13    1    3    3    0    0  0.12740400783E+02  0.19918663808E+03 -0.56848775619E+03  0.60250806098E+03  0.00000000000E+00 0. -1.
        -13    1    3    3    0    0  0.11262719675E+02  0.13754628515E+03 -0.69016542909E+03  0.70382820981E+03  0.00000000000E+00 0.  1.
         22    1    1    2    0    0 -0.24003120457E+02 -0.33673292322E+03 -0.84898013032E+03  0.91363694816E+03  0.00000000000E+00 0. -1.
<mgrwt>
<rscale>  0 0.69725383E+03</rscale>
<asrwt>0</asrwt>
<pdfrwt beam="1">  1        2 0.33289276E+00 0.69725383E+03</pdfrwt>
<pdfrwt beam="2">  1       -2 0.86415324E-02 0.69725383E+03</pdfrwt>
<totfact> 0.48557227E+02</totfact>
</mgrwt>
</event>
<event>
 6    1  0.4630212E-004  0.2926197E+04  0.7818608E-02  0.8265125E-01
          2   -1    0    0  501    0  0.00000000000E+00  0.00000000000E+00  0.23227594762E+04  0.23227594762E+04  0.00000000000E+00 0.  1.
         -2   -1    0    0    0  501 -0.00000000000E+00 -0.00000000000E+00 -0.92160101622E+03  0.92160101622E+03  0.00000000000E+00 0. -1.
         23    2    1    2    0    0  0.11467277584E+04  0.89975875337E+03  0.57862574344E+03  0.15707086660E+04  0.88133967624E+02 0.  0.
         11    1    3    3    0    0  0.50866375827E+03  0.43450869468E+03  0.30195437531E+03  0.73397075521E+03  0.00000000000E+00 0.  1.
        -11    1    3    3    0    0  0.63806400018E+03  0.46525005869E+03  0.27667136813E+03  0.83673791081E+03  0.00000000000E+00 0. -1.
         22    1    1    2    0    0 -0.11467277584E+04 -0.89975875337E+03  0.82253271655E+03  0.16736518264E+04  0.00000000000E+00 0.  1.
<mgrwt>
<rscale>  0 0.29261972E+04</rscale>
<asrwt>0</asrwt>
<pdfrwt beam="1">  1        2 0.35734761E+00 0.29261972E+04</pdfrwt>
<pdfrwt beam="2">  1       -2 0.14178477E+00 0.29261972E+04</pdfrwt>
<totfact> 0.13168188E+00</totfact>
</mgrwt>
</event>
<event>
 6    1  0.4630212E-004  0.3616159E+04  0.7818608E-02  0.8086800E-01
          2   -1    0    0  501    0  0.00000000000E+00  0.00000000000E+00  0.12937275541E+04  0.12937275541E+04  0.00000000000E+00 0.  1.
         -2   -1    0    0    0  501 -0.00000000000E+00 -0.00000000000E+00 -0.25269244078E+04  0.25269244078E+04  0.00000000000E+00 0. -1.
         23    2    1    2    0    0 -0.61382362525E+03  0.12623554273E+04 -0.18192345877E+04  0.22995468067E+04  0.89332878263E+02 0.  0.
         13    1    3    3    0    0 -0.22794901035E+03  0.55576075479E+03 -0.81428492855E+03  0.10118748503E+04  0.00000000000E+00 0. -1.
        -13    1    3    3    0    0 -0.38587461490E+03  0.70659467252E+03 -0.10049496591E+04  0.12876719563E+04  0.00000000000E+00 0.  1.
         22    1    1    2    0    0  0.61382362525E+03 -0.12623554273E+04  0.58603773396E+03  0.15211051553E+04  0.00000000000E+00 0.  1.
<mgrwt>
<rscale>  0 0.36161591E+04</rscale>
<asrwt>0</asrwt>
<pdfrwt beam="1">  1        2 0.19903501E+00 0.36161591E+04</pdfrwt>
<pdfrwt beam="2">  1       -2 0.38875760E+00 0.36161591E+04</pdfrwt>
<totfact> 0.11914911E-01</totfact>
</mgrwt>
</event>
<event>
 6    1  0.4630212E-004  0.1083597E+04  0.7818608E-02  0.9221329E-01
          2   -1    0    0  501    0  0.00000000000E+00  0.00000000000E+00  0.10541365693E+04  0.10541365693E+04  0.00000000000E+00 0.  1.
         -2   -1    0    0    0  501 -0.00000000000E+00 -0.00000000000E+00 -0.27847002592E+03  0.27847002592E+03  0.00000000000E+00 0. -1.
         23    2    1    2    0    0 -0.23496689228E+03 -0.37607222486E+01  0.98570622080E+03  0.10174237125E+04  0.91162895574E+02 0.  0.
         13    1    3    3    0    0 -0.18522840881E+03 -0.25849830342E+02  0.61698924067E+03  0.64471195139E+03  0.00000000000E+00 0. -1.
        -13    1    3    3    0    0 -0.49738483474E+02  0.22089108094E+02  0.36871698013E+03  0.37271176111E+03  0.00000000000E+00 0.  1.
         22    1    1    2    0    0  0.23496689228E+03  0.37607222486E+01 -0.21003967739E+03  0.31518288275E+03  0.00000000000E+00 0. -1.
<mgrwt>
<rscale>  0 0.10835967E+04</rscale>
<asrwt>0</asrwt>
<pdfrwt beam="1">  1        2 0.16217485E+00 0.10835967E+04</pdfrwt>
<pdfrwt beam="2">  1       -2 0.42841543E-01 0.10835967E+04</pdfrwt>
<totfact> 0.11937353E+02</totfact>
</mgrwt>
</event>
<event>
 6    1  0.4630212E-004  0.4046517E+04  0.7818608E-02  0.7995228E-01
         -2   -1    0    0    0  501 -0.00000000000E+00  0.00000000000E+00  0.99225611609E+03  0.99225611609E+03  0.00000000000E+00 0. -1.
          2   -1    0    0  501    0  0.00000000000E+00 -0.00000000000E+00 -0.41255229587E+04  0.41255229587E+04  0.00000000000E+00 0.  1.
         23    2    1    2    0    0  0.19849054750E+04  0.37650354906E+02 -0.10803377658E+04  0.22619455558E+04  0.89446717568E+02 0.  0.
         11    1    3    3    0    0  0.11585685981E+04  0.50566508107E+02 -0.59248623409E+03  0.13022588475E+04  0.00000000000E+00 0.  1.
        -11    1    3    3    0    0  0.82633687688E+03 -0.12916153201E+02 -0.48785153175E+03  0.95968670833E+03  0.00000000000E+00 0. -1.
         22    1    1    2    0    0 -0.19849054750E+04 -0.37650354906E+02 -0.20529290768E+04  0.28558335190E+04  0.00000000000E+00 0.  1.
<mgrwt>
<rscale>  0 0.40465172E+04</rscale>
<asrwt>0</asrwt>
<pdfrwt beam="1">  1        2 0.63469583E+00 0.40465172E+04</pdfrwt>
<pdfrwt beam="2">  1       -2 0.15265479E+00 0.40465172E+04</pdfrwt>
<totfact> 0.60262888E-02</totfact>
</mgrwt>
</event>
<event>
 6    1  0.4630212E-004  0.2125237E+04  0.7818608E-02  0.8550207E-01
         -2   -1    0    0    0  501 -0.00000000000E+00  0.00000000000E+00  0.89175571092E+03  0.89175571092E+03  0.00000000000E+00 0. -1.
          2   -1    0    0  501    0  0.00000000000E+00 -0.00000000000E+00 -0.12662191364E+04  0.12662191364E+04  0.00000000000E+00 0.  1.
         23    2    1    2    0    0 -0.95915802797E+03  0.20926281127E+03 -0.59565841808E+03  0.11516437529E+04  0.87745859359E+02 0.  0.
         11    1    3    3    0    0 -0.77556016094E+03  0.15454242733E+03 -0.44122099176E+03  0.90556771621E+03  0.00000000000E+00 0. -1.
        -11    1    3    3    0    0 -0.18359786703E+03  0.54720383939E+02 -0.15443742633E+03  0.24607603671E+03  0.00000000000E+00 0.  1.
         22    1    1    2    0    0  0.95915802797E+03 -0.20926281127E+03  0.22119499259E+03  0.10063310944E+04  0.00000000000E+00 0.  1.
<mgrwt>
<rscale>  0 0.21252371E+04</rscale>
<asrwt>0</asrwt>
<pdfrwt beam="1">  1        2 0.19480294E+00 0.21252371E+04</pdfrwt>
<pdfrwt beam="2">  1       -2 0.13719319E+00 0.21252371E+04</pdfrwt>
<totfact> 0.60241667E+00</totfact>
</mgrwt>
</event>
<event>
 6    1  0.4630212E-004  0.1684914E+04  0.7818608E-02  0.8770015E-01
          2   -1    0    0  501    0  0.00000000000E+00  0.00000000000E+00  0.40614722095E+04  0.40614722095E+04  0.00000000000E+00 0.  1.
         -2   -1    0    0    0  501 -0.00000000000E+00 -0.00000000000E+00 -0.17474797387E+03  0.17474797387E+03  0.00000000000E+00 0. -1.
         23    2    1    2    0    0  0.62873130523E+03  0.53736850477E+03  0.15801412888E+04  0.17858339169E+04  0.91040223103E+02 0.  0.
         13    1    3    3    0    0  0.49433987779E+03  0.46003204509E+03  0.12378724426E+04  0.14100814095E+04  0.00000000000E+00 0. -1.
        -13    1    3    3    0    0  0.13439142744E+03  0.77336459681E+02  0.34226884613E+03  0.37575250738E+03  0.00000000000E+00 0.  1.
         22    1    1    2    0    0 -0.62873130523E+03 -0.53736850477E+03  0.23065829469E+04  0.24503862665E+04  0.00000000000E+00 0.  1.
<mgrwt>
<rscale>  0 0.16849143E+04</rscale>
<asrwt>0</asrwt>
<pdfrwt beam="1">  1        2 0.62484180E+00 0.16849143E+04</pdfrwt>
<pdfrwt beam="2">  1       -2 0.26884307E-01 0.16849143E+04</pdfrwt>
<totfact> 0.37158696E+00</totfact>
</mgrwt>
</event>
<event>
 6    1  0.4630212E-004  0.3208053E+04  0.7818608E-02  0.8186694E-01
          2   -1    0    0  501    0  0.00000000000E+00  0.00000000000E+00  0.23262829220E+04  0.23262829220E+04  0.00000000000E+00 0.  1.
         -2   -1    0    0    0  501 -0.00000000000E+00 -0.00000000000E+00 -0.11060138116E+04  0.11060138116E+04  0.00000000000E+00 0. -1.
         23    2    1    2    0    0 -0.23276025926E+03 -0.12566292247E+04  0.16451025241E+04  0.20855310614E+04  0.98909791856E+02 0.  0.
         13    1    3    3    0    0 -0.15307389476E+03 -0.66989355356E+03  0.94889466998E+03  0.11715758981E+04  0.00000000000E+00 0.  1.
        -13    1    3    3    0    0 -0.79686364499E+02 -0.58673567110E+03  0.69620785409E+03  0.91395516330E+03  0.00000000000E+00 0. -1.
         22    1    1    2    0    0  0.23276025926E+03  0.12566292247E+04 -0.42483341363E+03  0.13467656722E+04  0.00000000000E+00 0. -1.
<mgrwt>
<rscale>  0 0.32080530E+04</rscale>
<asrwt>0</asrwt>
<pdfrwt beam="1">  1        2 0.35788968E+00 0.32080530E+04</pdfrwt>
<pdfrwt beam="2">  1       -2 0.17015597E+00 0.32080530E+04</pdfrwt>
<totfact> 0.78355766E-01</totfact>
</mgrwt>
</event>
<event>
 6    1  0.4630212E-004  0.4716545E+03  0.7818608E-02  0.1021454E+00
         -2   -1    0    0    0  501 -0.00000000000E+00  0.00000000000E+00  0.25682099429E+03  0.25682099429E+03  0.00000000000E+00 0. -1.
          2   -1    0    0  501    0  0.00000000000E+00 -0.00000000000E+00 -0.21654960499E+03  0.21654960499E+03  0.00000000000E+00 0.  1.
         23    2    1    2    0    0 -0.92771582894E+02 -0.13449915213E+03  0.17902188762E+03  0.25901507847E+03  0.91342137660E+02 0.  0.
         11    1    3    3    0    0 -0.76103564517E+02 -0.31693584041E+02  0.68852268778E+02  0.10740982598E+03  0.00000000000E+00 0. -1.
        -11    1    3    3    0    0 -0.16668018377E+02 -0.10280556809E+03  0.11016961884E+03  0.15160525249E+03  0.00000000000E+00 0.  1.
         22    1    1    2    0    0  0.92771582894E+02  0.13449915213E+03 -0.13875049833E+03  0.21435552081E+03  0.00000000000E+00 0.  1.
<mgrwt>
<rscale>  0 0.47165447E+03</rscale>
<asrwt>0</asrwt>
<pdfrwt beam="1">  1        2 0.33315324E-01 0.47165447E+03</pdfrwt>
<pdfrwt beam="2">  1       -2 0.39510923E-01 0.47165447E+03</pdfrwt>
<totfact> 0.95929189E+02</totfact>
</mgrwt>
</event>
<event>
 6    1  0.4630212E-004  0.1843883E+04  0.7818608E-02  0.8683305E-01
         -2   -1    0    0    0  501 -0.00000000000E+00  0.00000000000E+00  0.13802756493E+04  0.13802756493E+04  0.00000000000E+00 0. -1.
          2   -1    0    0  501    0  0.00000000000E+00 -0.00000000000E+00 -0.61580143119E+03  0.61580143119E+03  0.00000000000E+00 0.  1.
         23    2    1    2    0    0 -0.38930546348E+03  0.80461874319E+03  0.14914503148E+03  0.91090424922E+03  0.92370152271E+02 0.  0.
         11    1    3    3    0    0 -0.38749160928E+03  0.76877361688E+03  0.15435848148E+03  0.87463658858E+03  0.00000000000E+00 0.  1.
        -11    1    3    3    0    0 -0.18138542086E+01  0.35845126313E+02 -0.52134500018E+01  0.36267660642E+02  0.00000000000E+00 0. -1.
         22    1    1    2    0    0  0.38930546348E+03 -0.80461874319E+03  0.61532918662E+03  0.10851728313E+04  0.00000000000E+00 0. -1.
<mgrwt>
<rscale>  0 0.18438826E+04</rscale>
<asrwt>0</asrwt>
<pdfrwt beam="1">  1        2 0.94738682E-01 0.18438826E+04</pdfrwt>
<pdfrwt beam="2">  1       -2 0.21235010E+00 0.18438826E+04</pdfrwt>
<totfact> 0.49957808E+00</totfact>
</mgrwt>
</event>
<event>
 6    1  0.4630212E-004  0.2181974E+04  0.7818608E-02  0.8525968E-01
         -2   -1    0    0    0  501 -0.00000000000E+00  0.00000000000E+00  0.23317839493E+04  0.23317839493E+04  0.00000000000E+00 0. -1.
          2   -1    0    0  501    0  0.00000000000E+00 -0.00000000000E+00 -0.51044731591E+03  0.51044731591E+03  0.00000000000E+00 0.  1.
         23    2    1    2    0    0  0.23060851253E+03  0.10589128793E+04  0.76947266533E+03  0.13319681824E+04  0.87030364017E+02 0.  0.
         11    1    3    3    0    0  0.13257696827E+03  0.55649356990E+03  0.45742145057E+03  0.73245896083E+03  0.00000000000E+00 0. -1.
        -11    1    3    3    0    0  0.98031544261E+02  0.50241930940E+03  0.31205121476E+03  0.59950922158E+03  0.00000000000E+00 0.  1.
         22    1    1    2    0    0 -0.23060851253E+03 -0.10589128793E+04  0.10518639681E+04  0.15102630828E+04  0.00000000000E+00 0. -1.
<mgrwt>
<rscale>  0 0.21819742E+04</rscale>
<asrwt>0</asrwt>
<pdfrwt beam="1">  1        2 0.78530358E-01 0.21819742E+04</pdfrwt>
<pdfrwt beam="2">  1       -2 0.35873598E+00 0.21819742E+04</pdfrwt>
<totfact> 0.75497616E-01</totfact>
</mgrwt>
</event>
<event>
 6    1  0.4630212E-004  0.7291022E+03  0.7818608E-02  0.9668718E-01
          2   -1    0    0  501    0  0.00000000000E+00  0.00000000000E+00  0.36677985228E+03  0.36677985228E+03  0.00000000000E+00 0.  1.
         -2   -1    0    0    0  501 -0.00000000000E+00 -0.00000000000E+00 -0.36233586088E+03  0.36233586088E+03  0.00000000000E+00 0. -1.
         23    2    1    2    0    0 -0.20604779880E+03 -0.25803588655E+03  0.14425329901E+03  0.37052840632E+03  0.86279032642E+02 0.  0.
         13    1    3    3    0    0 -0.13974455986E+03 -0.21266357202E+03  0.77313076099E+02  0.26595422278E+03  0.00000000000E+00 0. -1.
        -13    1    3    3    0    0 -0.66303238939E+02 -0.45372314525E+02  0.66940222915E+02  0.10457418354E+03  0.00000000000E+00 0.  1.
         22    1    1    2    0    0  0.20604779880E+03  0.25803588655E+03 -0.13980930761E+03  0.35858730685E+03  0.00000000000E+00 0. -1.
<mgrwt>
<rscale>  0 0.72910217E+03</rscale>
<asrwt>0</asrwt>
<pdfrwt beam="1">  1        2 0.56427670E-01 0.72910217E+03</pdfrwt>
<pdfrwt beam="2">  1       -2 0.55743978E-01 0.72910217E+03</pdfrwt>
<totfact> 0.26748830E+02</totfact>
</mgrwt>
</event>
<event>
 6    1  0.4630212E-004  0.9859889E+03  0.7818608E-02  0.9324047E-01
         -1   -1    0    0    0  501 -0.00000000000E+00  0.00000000000E+00  0.25874681022E+03  0.25874681022E+03  0.00000000000E+00 0. -1.
          1   -1    0    0  501    0  0.00000000000E+00 -0.00000000000E+00 -0.93931025804E+03  0.93931025804E+03  0.00000000000E+00 0.  1.
         23    2    1    2    0    0  0.32480536820E+03  0.25428436209E+03 -0.66221859709E+03  0.78514594276E+03  0.88100040185E+02 0.  0.
         11    1    3    3    0    0  0.23785201993E+03  0.21159305725E+03 -0.44341938106E+03  0.54586257681E+03  0.00000000000E+00 0. -1.
        -11    1    3    3    0    0  0.86953348272E+02  0.42691304842E+02 -0.21879921602E+03  0.23928336594E+03  0.00000000000E+00 0.  1.
         22    1    1    2    0    0 -0.32480536820E+03 -0.25428436209E+03 -0.18344850729E+02  0.41291112551E+03  0.00000000000E+00 0. -1.
<mgrwt>
<rscale>  0 0.98598891E+03</rscale>
<asrwt>0</asrwt>
<pdfrwt beam="1">  1        1 0.14450927E+00 0.98598891E+03</pdfrwt>
<pdfrwt beam="2">  1       -1 0.39807202E-01 0.98598891E+03</pdfrwt>
<totfact> 0.10413799E+02</totfact>
</mgrwt>
</event>
<event>
 6    1  0.4630212E-004  0.4458961E+04  0.7818608E-02  0.7917861E-01
         -2   -1    0    0    0  501 -0.00000000000E+00  0.00000000000E+00  0.18852635789E+04  0.18852635789E+04  0.00000000000E+00 0. -1.
          2   -1    0    0  501    0  0.00000000000E+00 -0.00000000000E+00 -0.26365451513E+04  0.26365451513E+04  0.00000000000E+00 0.  1.
         23    2    1    2    0    0  0.10362659469E+04  0.83607609953E+03  0.14364698771E+04  0.19607295120E+04  0.90244968836E+02 0.  0.
         11    1    3    3    0    0  0.16151803932E+03  0.10710276140E+03  0.24902713015E+03  0.31555283246E+03  0.00000000000E+00 0. -1.
        -11    1    3    3    0    0  0.87474790761E+03  0.72897333814E+03  0.11874427470E+04  0.16451766796E+04  0.00000000000E+00 0.  1.
         22    1    1    2    0    0 -0.10362659469E+04 -0.83607609953E+03 -0.21877514495E+04  0.25610792182E+04  0.00000000000E+00 0.  1.
<mgrwt>
<rscale>  0 0.44589607E+04</rscale>
<asrwt>0</asrwt>
<pdfrwt beam="1">  1        2 0.40562233E+00 0.44589607E+04</pdfrwt>
<pdfrwt beam="2">  1       -2 0.29004055E+00 0.44589607E+04</pdfrwt>
<totfact> 0.80506031E-02</totfact>
</mgrwt>
</event>
<event>
 6    1  0.4630212E-004  0.1037503E+04  0.7818608E-02  0.9268342E-01
         -2   -1    0    0    0  501 -0.00000000000E+00  0.00000000000E+00  0.22913848270E+03  0.22913848270E+03  0.00000000000E+00 0. -1.
          2   -1    0    0  501    0  0.00000000000E+00 -0.00000000000E+00 -0.11744125207E+04  0.11744125207E+04  0.00000000000E+00 0.  1.
         23    2    1    2    0    0  0.41338895591E+03 -0.30002240213E+03 -0.56331766832E+03  0.76574653573E+03  0.90205825213E+02 0.  0.
         11    1    3    3    0    0  0.25630812354E+03 -0.18159419461E+03 -0.40908366200E+03  0.51577102306E+03  0.00000000000E+00 0. -1.
        -11    1    3    3    0    0  0.15708083236E+03 -0.11842820752E+03 -0.15423400632E+03  0.24997551268E+03  0.00000000000E+00 0.  1.
         22    1    1    2    0    0 -0.41338895591E+03  0.30002240213E+03 -0.38195636972E+03  0.63780446770E+03  0.00000000000E+00 0.  1.
<mgrwt>
<rscale>  0 0.10375030E+04</rscale>
<asrwt>0</asrwt>
<pdfrwt beam="1">  1        2 0.18067885E+00 0.10375030E+04</pdfrwt>
<pdfrwt beam="2">  1       -2 0.35252075E-01 0.10375030E+04</pdfrwt>
<totfact> 0.14757010E+02</totfact>
</mgrwt>
</event>
<event>
 6    1  0.4630212E-004  0.2633990E+04  0.7818608E-02  0.8356746E-01
          2   -1    0    0  501    0  0.00000000000E+00  0.00000000000E+00  0.23542252454E+04  0.23542252454E+04  0.00000000000E+00 0.  1.
         -2   -1    0    0    0  501 -0.00000000000E+00 -0.00000000000E+00 -0.73675006098E+03  0.73675006098E+03  0.00000000000E+00 0. -1.
         23    2    1    2    0    0 -0.51294058531E+03 -0.88537065548E+03  0.17797532462E+04  0.20549620772E+04  0.91423629259E+02 0.  0.
         11    1    3    3    0    0 -0.13661820593E+03 -0.24531134491E+03  0.57262736093E+03  0.63776507008E+03  0.00000000000E+00 0.  1.
        -11    1    3    3    0    0 -0.37632237938E+03 -0.64005931057E+03  0.12071258852E+04  0.14171970071E+04  0.00000000000E+00 0. -1.
         22    1    1    2    0    0  0.51294058531E+03  0.88537065548E+03 -0.16227806174E+03  0.10360132291E+04  0.00000000000E+00 0. -1.
<mgrwt>
<rscale>  0 0.26339898E+04</rscale>
<asrwt>0</asrwt>
<pdfrwt beam="1">  1        2 0.36218850E+00 0.26339898E+04</pdfrwt>
<pdfrwt beam="2">  1       -2 0.11334616E+00 0.26339898E+04</pdfrwt>
<totfact> 0.22748765E+00</totfact>
</mgrwt>
</event>
<event>
 6    1  0.4630212E-004  0.1907916E+04  0.7818608E-02  0.8650926E-01
         -2   -1    0    0    0  501 -0.00000000000E+00  0.00000000000E+00  0.31814392901E+03  0.31814392901E+03  0.00000000000E+00 0. -1.
          2   -1    0    0  501    0  0.00000000000E+00 -0.00000000000E+00 -0.28604530362E+04  0.28604530362E+04  0.00000000000E+00 0.  1.
         23    2    1    2    0    0 -0.55605970376E+03 -0.26877780684E+03 -0.24805063305E+04  0.25579009955E+04  0.92205985320E+02 0.  0.
         11    1    3    3    0    0 -0.14020609138E+03 -0.28346541315E+02 -0.63406792219E+03  0.65000261877E+03  0.00000000000E+00 0.  1.
        -11    1    3    3    0    0 -0.41585361238E+03 -0.24043126552E+03 -0.18464384083E+04  0.19078983767E+04  0.00000000000E+00 0. -1.
         22    1    1    2    0    0  0.55605970376E+03  0.26877780684E+03 -0.61802776715E+02  0.62069596970E+03  0.00000000000E+00 0. -1.
<mgrwt>
<rscale>  0 0.19079159E+04</rscale>
<asrwt>0</asrwt>
<pdfrwt beam="1">  1        2 0.44006966E+00 0.19079159E+04</pdfrwt>
<pdfrwt beam="2">  1       -2 0.48945224E-01 0.19079159E+04</pdfrwt>
<totfact> 0.78771939E+00</totfact>
</mgrwt>
</event>
<event>
 6    1  0.4630212E-004  0.1997046E+04  0.7818608E-02  0.8608003E-01
          2   -1    0    0  501    0  0.00000000000E+00  0.00000000000E+00  0.13656513245E+04  0.13656513245E+04  0.00000000000E+00 0.  1.
         -2   -1    0    0    0  501 -0.00000000000E+00 -0.00000000000E+00 -0.73008981248E+03  0.73008981248E+03  0.00000000000E+00 0. -1.
         23    2    1    2    0    0  0.71196681080E+03  0.69420895644E+03  0.25158591930E+03  0.10297861329E+04  0.91330114630E+02 0.  0.
         13    1    3    3    0    0  0.49525194493E+03  0.42933324880E+03  0.18603990371E+03  0.68133132414E+03  0.00000000000E+00 0. -1.
        -13    1    3    3    0    0  0.21671486587E+03  0.26487570764E+03  0.65546015586E+02  0.34845480876E+03  0.00000000000E+00 0.  1.
         22    1    1    2    0    0 -0.71196681080E+03 -0.69420895644E+03  0.38397559268E+03  0.10659550040E+04  0.00000000000E+00 0. -1.
<mgrwt>
<rscale>  0 0.19970459E+04</rscale>
<asrwt>0</asrwt>
<pdfrwt beam="1">  1        2 0.21010020E+00 0.19970459E+04</pdfrwt>
<pdfrwt beam="2">  1       -2 0.11232151E+00 0.19970459E+04</pdfrwt>
<totfact> 0.87902637E+00</totfact>
</mgrwt>
</event>
<event>
 6    1  0.4630212E-004  0.2243442E+04  0.7818608E-02  0.8500561E-01
         -2   -1    0    0    0  501 -0.00000000000E+00  0.00000000000E+00  0.10750838081E+04  0.10750838081E+04  0.00000000000E+00 0. -1.
          2   -1    0    0  501    0  0.00000000000E+00 -0.00000000000E+00 -0.11703818179E+04  0.11703818179E+04  0.00000000000E+00 0.  1.
         23    2    1    2    0    0 -0.29800711545E+03  0.54537608362E+03  0.88445506746E+03  0.10852245279E+04  0.95959346165E+02 0.  0.
         13    1    3    3    0    0 -0.21976311653E+02  0.10573720999E+03  0.18446436247E+03  0.21375316810E+03  0.00000000000E+00 0.  1.
        -13    1    3    3    0    0 -0.27603080379E+03  0.43963887363E+03  0.69999070499E+03  0.87147135978E+03  0.00000000000E+00 0. -1.
         22    1    1    2    0    0  0.29800711545E+03 -0.54537608362E+03 -0.97975307725E+03  0.11602410981E+04  0.00000000000E+00 0.  1.
<mgrwt>
<rscale>  0 0.22434425E+04</rscale>
<asrwt>0</asrwt>
<pdfrwt beam="1">  1        2 0.18005874E+00 0.22434425E+04</pdfrwt>
<pdfrwt beam="2">  1       -2 0.16539751E+00 0.22434425E+04</pdfrwt>
<totfact> 0.41336824E+00</totfact>
</mgrwt>
</event>
<event>
 6    1  0.4630212E-004  0.2694858E+04  0.7818608E-02  0.8336675E-01
          2   -1    0    0  501    0  0.00000000000E+00  0.00000000000E+00  0.15764561956E+04  0.15764561956E+04  0.00000000000E+00 0.  1.
         -2   -1    0    0    0  501 -0.00000000000E+00 -0.00000000000E+00 -0.11516751461E+04  0.11516751461E+04  0.00000000000E+00 0. -1.
         23    2    1    2    0    0 -0.70672314655E+03 -0.11111859838E+04 -0.68934596807E+02  0.13217362920E+04  0.89682497852E+02 0.  0.
         13    1    3    3    0    0 -0.21879930087E+02 -0.50451846143E+02  0.12896427586E+02  0.56483962010E+02  0.00000000000E+00 0.  1.
        -13    1    3    3    0    0 -0.68484321646E+03 -0.10607341377E+04 -0.81831024393E+02  0.12652523300E+04  0.00000000000E+00 0. -1.
         22    1    1    2    0    0  0.70672314655E+03  0.11111859838E+04  0.49371564627E+03  0.14063950497E+04  0.00000000000E+00 0. -1.
<mgrwt>
<rscale>  0 0.26948584E+04</rscale>
<asrwt>0</asrwt>
<pdfrwt beam="1">  1        2 0.24253172E+00 0.26948584E+04</pdfrwt>
<pdfrwt beam="2">  1       -2 0.17718079E+00 0.26948584E+04</pdfrwt>
<totfact> 0.19142075E+00</totfact>
</mgrwt>
</event>
<event>
 6    1  0.4630212E-004  0.1521528E+04  0.7818608E-02  0.8870262E-01
         -2   -1    0    0    0  501 -0.00000000000E+00  0.00000000000E+00  0.11426494854E+04  0.11426494854E+04  0.00000000000E+00 0. -1.
          2   -1    0    0  501    0  0.00000000000E+00 -0.00000000000E+00 -0.50650855541E+03  0.50650855541E+03  0.00000000000E+00 0.  1.
         23    2    1    2    0    0  0.28853548132E+03  0.50607460629E+03  0.84474156753E+03  0.10303863082E+04  0.93506134367E+02 0.  0.
         13    1    3    3    0    0  0.25742569278E+03  0.37340719735E+03  0.66066827048E+03  0.80136351673E+03  0.00000000000E+00 0. -1.
        -13    1    3    3    0    0  0.31109788545E+02  0.13266740894E+03  0.18407329705E+03  0.22902279150E+03  0.00000000000E+00 0.  1.
         22    1    1    2    0    0 -0.28853548132E+03 -0.50607460629E+03 -0.20860063751E+03  0.61877173261E+03  0.00000000000E+00 0.  1.
<mgrwt>
<rscale>  0 0.15215278E+04</rscale>
<asrwt>0</asrwt>
<pdfrwt beam="1">  1        2 0.77924394E-01 0.15215278E+04</pdfrwt>
<pdfrwt beam="2">  1       -2 0.17579223E+00 0.15215278E+04</pdfrwt>
<totfact> 0.11338072E+01</totfact>
</mgrwt>
</event>
<event>
 6    1  0.4630212E-004  0.2688720E+04  0.7818608E-02  0.8338674E-01
         -2   -1    0    0    0  501 -0.00000000000E+00  0.00000000000E+00  0.12177464765E+04  0.12177464765E+04  0.00000000000E+00 0. -1.
          2   -1    0    0  501    0  0.00000000000E+00 -0.00000000000E+00 -0.14841385291E+04  0.14841385291E+04  0.00000000000E+00 0.  1.
         23    2    1    2    0    0  0.10408569981E+04  0.77063802237E+03  0.22315615123E+03  0.13173548702E+04  0.91427207453E+02 0.  0.
         13    1    3    3    0    0  0.37561192866E+03  0.27585515788E+03  0.35958983988E+02  0.46741142220E+03  0.00000000000E+00 0. -1.
        -13    1    3    3    0    0  0.66524506942E+03  0.49478286450E+03  0.18719716724E+03  0.84994344800E+03  0.00000000000E+00 0.  1.
         22    1    1    2    0    0 -0.10408569981E+04 -0.77063802237E+03 -0.48954820389E+03  0.13845301354E+04  0.00000000000E+00 0.  1.
<mgrwt>
<rscale>  0 0.26887205E+04</rscale>
<asrwt>0</asrwt>
<pdfrwt beam="1">  1        2 0.22832900E+00 0.26887205E+04</pdfrwt>
<pdfrwt beam="2">  1       -2 0.18734561E+00 0.26887205E+04</pdfrwt>
<totfact> 0.18382121E+00</totfact>
</mgrwt>
</event>
<event>
 6    1  0.4630212E-004  0.1288577E+04  0.7818608E-02  0.9038673E-01
         -2   -1    0    0    0  501 -0.00000000000E+00  0.00000000000E+00  0.20535752700E+03  0.20535752700E+03  0.00000000000E+00 0. -1.
          2   -1    0    0  501    0  0.00000000000E+00 -0.00000000000E+00 -0.20213907662E+04  0.20213907662E+04  0.00000000000E+00 0.  1.
         23    2    1    2    0    0  0.88761766708E+01  0.26661591834E+03 -0.19198809457E+04  0.19404841135E+04  0.91503630688E+02 0.  0.
         11    1    3    3    0    0  0.39860409324E+02  0.97075801694E+02 -0.90620819576E+03  0.91226413805E+03  0.00000000000E+00 0.  1.
        -11    1    3    3    0    0 -0.30984232654E+02  0.16954011665E+03 -0.10136727500E+04  0.10282199754E+04  0.00000000000E+00 0. -1.
         22    1    1    2    0    0 -0.88761766708E+01 -0.26661591834E+03  0.10384770655E+03  0.28626417970E+03  0.00000000000E+00 0. -1.
<mgrwt>
<rscale>  0 0.12885772E+04</rscale>
<asrwt>0</asrwt>
<pdfrwt beam="1">  1        2 0.31098319E+00 0.12885772E+04</pdfrwt>
<pdfrwt beam="2">  1       -2 0.31593466E-01 0.12885772E+04</pdfrwt>
<totfact> 0.59400511E+01</totfact>
</mgrwt>
</event>
<event>
 6    1  0.4630212E-004  0.7731705E+03  0.7818608E-02  0.9599685E-01
         -2   -1    0    0    0  501 -0.00000000000E+00  0.00000000000E+00  0.47668290910E+03  0.47668290910E+03  0.00000000000E+00 0. -1.
          2   -1    0    0  501    0  0.00000000000E+00 -0.00000000000E+00 -0.31351688126E+03  0.31351688126E+03  0.00000000000E+00 0.  1.
         23    2    1    2    0    0 -0.20724339898E+03  0.31962010182E+03  0.75236890933E+02  0.39925430947E+03  0.92933190830E+02 0.  0.
         13    1    3    3    0    0 -0.96277842837E+02  0.22443123713E+03  0.29047700457E+02  0.24593204778E+03  0.00000000000E+00 0. -1.
        -13    1    3    3    0    0 -0.11096555615E+03  0.95188864688E+02  0.46189190476E+02  0.15332226169E+03  0.00000000000E+00 0.  1.
         22    1    1    2    0    0  0.20724339898E+03 -0.31962010182E+03  0.87929136910E+02  0.39094548089E+03  0.00000000000E+00 0. -1.
<mgrwt>
<rscale>  0 0.77317046E+03</rscale>
<asrwt>0</asrwt>
<pdfrwt beam="1">  1        2 0.48233366E-01 0.77317046E+03</pdfrwt>
<pdfrwt beam="2">  1       -2 0.73335832E-01 0.77317046E+03</pdfrwt>
<totfact> 0.17688174E+02</totfact>
</mgrwt>
</event>
<event>
 6    1  0.4630212E-004  0.9423318E+03  0.7818608E-02  0.9374159E-01
         -4   -1    0    0    0  501 -0.00000000000E+00  0.00000000000E+00  0.60236197932E+03  0.60236197932E+03  0.00000000000E+00 0. -1.
          4   -1    0    0  501    0  0.00000000000E+00 -0.00000000000E+00 -0.36854468796E+03  0.36854468796E+03  0.00000000000E+00 0.  1.
         23    2    1    2    0    0  0.26735821511E+03 -0.12572417450E+03  0.49034427319E+03  0.57963556478E+03  0.90845464790E+02 0.  0.
         11    1    3    3    0    0  0.62450576586E+02 -0.70169218278E+02  0.11584494105E+03  0.14914370278E+03  0.00000000000E+00 0.  1.
        -11    1    3    3    0    0  0.20490763852E+03 -0.55554956219E+02  0.37449933213E+03  0.43049186201E+03  0.00000000000E+00 0. -1.
         22    1    1    2    0    0 -0.26735821511E+03  0.12572417450E+03 -0.25652698183E+03  0.39127110249E+03  0.00000000000E+00 0.  1.
<mgrwt>
<rscale>  0 0.94233181E+03</rscale>
<asrwt>0</asrwt>
<pdfrwt beam="1">  1        4 0.56699183E-01 0.94233181E+03</pdfrwt>
<pdfrwt beam="2">  1       -4 0.92671074E-01 0.94233181E+03</pdfrwt>
<totfact> 0.58122636E+00</totfact>
</mgrwt>
</event>
<event>
 6    1  0.4630212E-004  0.3442115E+04  0.7818608E-02  0.8127647E-01
         -2   -1    0    0    0  501 -0.00000000000E+00  0.00000000000E+00  0.11181806323E+04  0.11181806323E+04  0.00000000000E+00 0. -1.
          2   -1    0    0  501    0  0.00000000000E+00 -0.00000000000E+00 -0.26489801490E+04  0.26489801490E+04  0.00000000000E+00 0.  1.
         23    2    1    2    0    0 -0.11856126030E+04 -0.10807257350E+04 -0.14442885041E+04  0.21605713769E+04  0.91945815380E+02 0.  0.
         11    1    3    3    0    0 -0.98374991536E+03 -0.91709017995E+03 -0.12499770207E+04  0.18360993564E+04  0.00000000000E+00 0. -1.
        -11    1    3    3    0    0 -0.20186268768E+03 -0.16363555504E+03 -0.19431148336E+03  0.32447202054E+03  0.00000000000E+00 0.  1.
         22    1    1    2    0    0  0.11856126030E+04  0.10807257350E+04 -0.86511012589E+02  0.16065894043E+04  0.00000000000E+00 0. -1.
<mgrwt>
<rscale>  0 0.34421146E+04</rscale>
<asrwt>0</asrwt>
<pdfrwt beam="1">  1        2 0.40753540E+00 0.34421146E+04</pdfrwt>
<pdfrwt beam="2">  1       -2 0.17202779E+00 0.34421146E+04</pdfrwt>
<totfact> 0.48458359E-01</totfact>
</mgrwt>
</event>
<event>
 6    1  0.4630212E-004  0.2329430E+04  0.7818608E-02  0.8466407E-01
          2   -1    0    0  501    0  0.00000000000E+00  0.00000000000E+00  0.17008301651E+04  0.17008301651E+04  0.00000000000E+00 0.  1.
         -2   -1    0    0    0  501 -0.00000000000E+00 -0.00000000000E+00 -0.79758780912E+03  0.79758780912E+03  0.00000000000E+00 0. -1.
         23    2    1    2    0    0  0.28127043513E+03 -0.48308457620E+03 -0.64165469751E+03  0.85549659104E+03  0.87577970950E+02 0.  0.
         13    1    3    3    0    0  0.19441463579E+03 -0.28270547483E+03 -0.33950921707E+03  0.48268617608E+03  0.00000000000E+00 0. -1.
        -13    1    3    3    0    0  0.86855799340E+02 -0.20037910137E+03 -0.30214548044E+03  0.37281041495E+03  0.00000000000E+00 0.  1.
         22    1    1    2    0    0 -0.28127043513E+03  0.48308457620E+03  0.15448970535E+04  0.16429213832E+04  0.00000000000E+00 0.  1.
<mgrwt>
<rscale>  0 0.23294303E+04</rscale>
<asrwt>0</asrwt>
<pdfrwt beam="1">  1        2 0.26166618E+00 0.23294303E+04</pdfrwt>
<pdfrwt beam="2">  1       -2 0.12270582E+00 0.23294303E+04</pdfrwt>
<totfact> 0.44508085E+00</totfact>
</mgrwt>
</event>
<event>
 6    1  0.4630212E-004  0.5035696E+04  0.7818608E-02  0.7823024E-01
         -2   -1    0    0    0  501 -0.00000000000E+00  0.00000000000E+00  0.23699360410E+04  0.23699360410E+04  0.00000000000E+00 0. -1.
          2   -1    0    0  501    0  0.00000000000E+00 -0.00000000000E+00 -0.26749910476E+04  0.26749910476E+04  0.00000000000E+00 0.  1.
         23    2    1    2    0    0 -0.97097106835E+01  0.71370821527E+03  0.22655386645E+04  0.23770767335E+04  0.91403838902E+02 0.  0.
         13    1    3    3    0    0 -0.39070795954E+02  0.60433431509E+03  0.19468306120E+04  0.20388467140E+04  0.00000000000E+00 0.  1.
        -13    1    3    3    0    0  0.29361085271E+02  0.10937390019E+03  0.31870805249E+03  0.33823001950E+03  0.00000000000E+00 0. -1.
         22    1    1    2    0    0  0.97097106835E+01 -0.71370821527E+03 -0.25705936712E+04  0.26678503551E+04  0.00000000000E+00 0.  1.
<mgrwt>
<rscale>  0 0.50356957E+04</rscale>
<asrwt>0</asrwt>
<pdfrwt beam="1">  1        2 0.41153708E+00 0.50356957E+04</pdfrwt>
<pdfrwt beam="2">  1       -2 0.36460554E+00 0.50356957E+04</pdfrwt>
<totfact> 0.25079134E-02</totfact>
</mgrwt>
</event>
<event>
 6    1  0.4630212E-004  0.1045705E+04  0.7818608E-02  0.9259790E-01
         -2   -1    0    0    0  501 -0.00000000000E+00  0.00000000000E+00  0.14091324724E+03  0.14091324724E+03  0.00000000000E+00 0. -1.
          2   -1    0    0  501    0  0.00000000000E+00 -0.00000000000E+00 -0.19400198944E+04  0.19400198944E+04  0.00000000000E+00 0.  1.
         23    2    1    2    0    0 -0.17347121265E+03 -0.49175933847E+02 -0.18746001685E+04  0.18854598548E+04  0.91227947618E+02 0.  0.
         11    1    3    3    0    0 -0.57738891800E+02  0.13582126753E+02 -0.90797979749E+03  0.90991514244E+03  0.00000000000E+00 0.  1.
        -11    1    3    3    0    0 -0.11573232085E+03 -0.62758060599E+02 -0.96662037097E+03  0.97554471237E+03  0.00000000000E+00 0. -1.
         22    1    1    2    0    0  0.17347121265E+03  0.49175933847E+02  0.75493521339E+02  0.19547328680E+03  0.00000000000E+00 0. -1.
<mgrwt>
<rscale>  0 0.10457046E+04</rscale>
<asrwt>0</asrwt>
<pdfrwt beam="1">  1        2 0.29846460E+00 0.10457046E+04</pdfrwt>
<pdfrwt beam="2">  1       -2 0.21678961E-01 0.10457046E+04</pdfrwt>
<totfact> 0.13347016E+02</totfact>
</mgrwt>
</event>
<event>
 6    1  0.4630212E-004  0.1746728E+04  0.7818608E-02  0.8735154E-01
         -2   -1    0    0    0  501 -0.00000000000E+00  0.00000000000E+00  0.26557555139E+03  0.26557555139E+03  0.00000000000E+00 0. -1.
          2   -1    0    0  501    0  0.00000000000E+00 -0.00000000000E+00 -0.28721186751E+04  0.28721186751E+04  0.00000000000E+00 0.  1.
         23    2    1    2    0    0  0.67167326983E+03 -0.37229731737E+03 -0.20448722828E+04  0.21862614083E+04  0.92119588483E+02 0.  0.
         13    1    3    3    0    0  0.12915977894E+03 -0.62027719848E+02 -0.29091961470E+03  0.32428985298E+03  0.00000000000E+00 0.  1.
        -13    1    3    3    0    0  0.54251349089E+03 -0.31026959752E+03 -0.17539526681E+04  0.18619715554E+04  0.00000000000E+00 0. -1.
         22    1    1    2    0    0 -0.67167326983E+03  0.37229731737E+03 -0.56167084086E+03  0.95143281812E+03  0.00000000000E+00 0. -1.
<mgrwt>
<rscale>  0 0.17467278E+04</rscale>
<asrwt>0</asrwt>
<pdfrwt beam="1">  1        2 0.44186444E+00 0.17467278E+04</pdfrwt>
<pdfrwt beam="2">  1       -2 0.40857775E-01 0.17467278E+04</pdfrwt>
<totfact> 0.11278866E+01</totfact>
</mgrwt>
</event>
<event>
 6    1  0.4630212E-004  0.3165177E+04  0.7818608E-02  0.8198075E-01
          2   -1    0    0  501    0  0.00000000000E+00  0.00000000000E+00  0.19285871095E+04  0.19285871095E+04  0.00000000000E+00 0.  1.
         -2   -1    0    0    0  501 -0.00000000000E+00 -0.00000000000E+00 -0.12986636258E+04  0.12986636258E+04  0.00000000000E+00 0. -1.
         23    2    1    2    0    0 -0.23093933963E+03  0.73073121538E+03  0.17255687273E+04  0.18901869419E+04  0.88984015447E+02 0.  0.
         13    1    3    3    0    0 -0.99426623922E+02  0.33397618581E+03  0.89316286117E+03  0.95873126726E+03  0.00000000000E+00 0. -1.
        -13    1    3    3    0    0 -0.13151271571E+03  0.39675502957E+03  0.83240586613E+03  0.93145567466E+03  0.00000000000E+00 0.  1.
         22    1    1    2    0    0  0.23093933963E+03 -0.73073121538E+03 -0.10956452436E+04  0.13370637934E+04  0.00000000000E+00 0. -1.
<mgrwt>
<rscale>  0 0.31651767E+04</rscale>
<asrwt>0</asrwt>
<pdfrwt beam="1">  1        2 0.29670571E+00 0.31651767E+04</pdfrwt>
<pdfrwt beam="2">  1       -2 0.19979440E+00 0.31651767E+04</pdfrwt>
<totfact> 0.82488484E-01</totfact>
</mgrwt>
</event>
<event>
 6    1  0.4630212E-004  0.3439382E+04  0.7818608E-02  0.8128308E-01
          2   -1    0    0  501    0  0.00000000000E+00  0.00000000000E+00  0.30906010631E+04  0.30906010631E+04  0.00000000000E+00 0.  1.
         -2   -1    0    0    0  501 -0.00000000000E+00 -0.00000000000E+00 -0.95688070613E+03  0.95688070613E+03  0.00000000000E+00 0. -1.
         23    2    1    2    0    0 -0.10508120802E+04 -0.97752249462E+03 -0.44109109354E+02  0.14392836480E+04  0.99174342991E+02 0.  0.
         11    1    3    3    0    0 -0.69026629441E+03 -0.67613744926E+03  0.96818065971E+01  0.96629350866E+03  0.00000000000E+00 0.  1.
        -11    1    3    3    0    0 -0.36054578582E+03 -0.30138504535E+03 -0.53790915951E+02  0.47299013930E+03  0.00000000000E+00 0. -1.
         22    1    1    2    0    0  0.10508120802E+04  0.97752249462E+03  0.21778294663E+04  0.26081981212E+04  0.00000000000E+00 0.  1.
<mgrwt>
<rscale>  0 0.34393816E+04</rscale>
<asrwt>0</asrwt>
<pdfrwt beam="1">  1        2 0.47547708E+00 0.34393816E+04</pdfrwt>
<pdfrwt beam="2">  1       -2 0.14721242E+00 0.34393816E+04</pdfrwt>
<totfact> 0.39638855E-01</totfact>
</mgrwt>
</event>
<event>
 6    1  0.4630212E-004  0.1084191E+04  0.7818608E-02  0.9220739E-01
          2   -1    0    0  501    0  0.00000000000E+00  0.00000000000E+00  0.13920949227E+04  0.13920949227E+04  0.00000000000E+00 0.  1.
         -2   -1    0    0    0  501 -0.00000000000E+00 -0.00000000000E+00 -0.21109727267E+03  0.21109727267E+03  0.00000000000E+00 0. -1.
         23    2    1    2    0    0 -0.18855047807E+03  0.29673841728E+02  0.13386493310E+04  0.13556323598E+04  0.96567302966E+02 0.  0.
         11    1    3    3    0    0 -0.83083033520E+02 -0.25681841034E+02  0.39270333642E+03  0.40221668022E+03  0.00000000000E+00 0. -1.
        -11    1    3    3    0    0 -0.10546744455E+03  0.55355682762E+02  0.94594599455E+03  0.95341567959E+03  0.00000000000E+00 0.  1.
         22    1    1    2    0    0  0.18855047807E+03 -0.29673841728E+02 -0.15765168095E+03  0.24755983554E+03  0.00000000000E+00 0. -1.
<mgrwt>
<rscale>  0 0.10841908E+04</rscale>
<asrwt>0</asrwt>
<pdfrwt beam="1">  1        2 0.21416844E+00 0.10841908E+04</pdfrwt>
<pdfrwt beam="2">  1       -2 0.32476504E-01 0.10841908E+04</pdfrwt>
<totfact> 0.12824248E+02</totfact>
</mgrwt>
</event>
<event>
 6    1  0.4630212E-004  0.3142841E+03  0.7818608E-02  0.1078310E+00
         -2   -1    0    0    0  501 -0.00000000000E+00  0.00000000000E+00  0.12401966261E+03  0.12401966261E+03  0.00000000000E+00 0. -1.
          2   -1    0    0  501    0  0.00000000000E+00 -0.00000000000E+00 -0.19911059673E+03  0.19911059673E+03  0.00000000000E+00 0.  1.
         23    2    1    2    0    0  0.92374448406E+02 -0.90664355074E+02  0.19569478457E+02  0.16277547236E+03  0.96746193286E+02 0.  0.
         13    1    3    3    0    0  0.31686410436E+02 -0.93906264013E+02  0.23560257816E+02  0.10187001902E+03  0.00000000000E+00 0.  1.
        -13    1    3    3    0    0  0.60688037970E+02  0.32419089393E+01 -0.39907793590E+01  0.60905453337E+02  0.00000000000E+00 0. -1.
         22    1    1    2    0    0 -0.92374448406E+02  0.90664355074E+02 -0.94660412576E+02  0.16035478698E+03  0.00000000000E+00 0.  1.
<mgrwt>
<rscale>  0 0.31428413E+03</rscale>
<asrwt>0</asrwt>
<pdfrwt beam="1">  1        2 0.30632399E-01 0.31428413E+03</pdfrwt>
<pdfrwt beam="2">  1       -2 0.19079948E-01 0.31428413E+03</pdfrwt>
<totfact> 0.39052384E+03</totfact>
</mgrwt>
</event>
<event>
 6    1  0.4630212E-004  0.3080224E+04  0.7818608E-02  0.8221186E-01
          2   -1    0    0  501    0  0.00000000000E+00  0.00000000000E+00  0.25867918698E+04  0.25867918698E+04  0.00000000000E+00 0.  1.
         -2   -1    0    0    0  501 -0.00000000000E+00 -0.00000000000E+00 -0.91694491524E+03  0.91694491524E+03  0.00000000000E+00 0. -1.
         23    2    1    2    0    0  0.79436630459E+03  0.54345981546E+03 -0.52957745689E+03  0.11029381391E+04  0.98254052751E+02 0.  0.
         13    1    3    3    0    0  0.63427925257E+03  0.38460218269E+03 -0.41498787350E+03  0.84996702543E+03  0.00000000000E+00 0. -1.
        -13    1    3    3    0    0  0.16008705202E+03  0.15885763277E+03 -0.11458958338E+03  0.25297111363E+03  0.00000000000E+00 0.  1.
         22    1    1    2    0    0 -0.79436630459E+03 -0.54345981546E+03  0.21994244115E+04  0.24007986460E+04  0.00000000000E+00 0.  1.
<mgrwt>
<rscale>  0 0.30802244E+04</rscale>
<asrwt>0</asrwt>
<pdfrwt beam="1">  1        2 0.39796798E+00 0.30802244E+04</pdfrwt>
<pdfrwt beam="2">  1       -2 0.14106845E+00 0.30802244E+04</pdfrwt>
<totfact> 0.92743498E-01</totfact>
</mgrwt>
</event>
<event>
 6    1  0.4630212E-004  0.6249637E+04  0.7818608E-02  0.7660198E-01
          2   -1    0    0  501    0  0.00000000000E+00  0.00000000000E+00  0.33373565376E+04  0.33373565376E+04  0.00000000000E+00 0.  1.
         -2   -1    0    0    0  501 -0.00000000000E+00 -0.00000000000E+00 -0.29258157863E+04  0.29258157863E+04  0.00000000000E+00 0. -1.
         23    2    1    2    0    0  0.52044590465E+03  0.18019942038E+04  0.27096807274E+04  0.32967781492E+04  0.91265931321E+02 0.  0.
         11    1    3    3    0    0  0.93445123325E+02  0.46544655996E+03  0.69327166450E+03  0.84023692614E+03  0.00000000000E+00 0.  1.
        -11    1    3    3    0    0  0.42700078133E+03  0.13365476438E+04  0.20164090629E+04  0.24565412230E+04  0.00000000000E+00 0. -1.
         22    1    1    2    0    0 -0.52044590465E+03 -0.18019942038E+04 -0.22981399761E+04  0.29663941747E+04  0.00000000000E+00 0. -1.
<mgrwt>
<rscale>  0 0.62496369E+04</rscale>
<asrwt>0</asrwt>
<pdfrwt beam="1">  1        2 0.51343947E+00 0.62496369E+04</pdfrwt>
<pdfrwt beam="2">  1       -2 0.45012551E+00 0.62496369E+04</pdfrwt>
<totfact> 0.24141868E-03</totfact>
</mgrwt>
</event>
<event>
 6    1  0.4630212E-004  0.1638883E+04  0.7818608E-02  0.8797010E-01
          2   -1    0    0  501    0  0.00000000000E+00  0.00000000000E+00  0.11730210431E+04  0.11730210431E+04  0.00000000000E+00 0.  1.
         -2   -1    0    0    0  501 -0.00000000000E+00 -0.00000000000E+00 -0.57244044354E+03  0.57244044354E+03  0.00000000000E+00 0. -1.
         23    2    1    2    0    0  0.62030710937E+03 -0.31272854897E+03 -0.15639358582E+03  0.71804240340E+03  0.92443951153E+02 0.  0.
         13    1    3    3    0    0  0.50978698965E+03 -0.29464697580E+03 -0.13207227383E+03  0.60344237561E+03  0.00000000000E+00 0. -1.
        -13    1    3    3    0    0  0.11052011972E+03 -0.18081573176E+02 -0.24321311992E+02  0.11460002779E+03  0.00000000000E+00 0.  1.
         22    1    1    2    0    0 -0.62030710937E+03  0.31272854897E+03  0.75697418537E+03  0.10274190832E+04  0.00000000000E+00 0.  1.
<mgrwt>
<rscale>  0 0.16388834E+04</rscale>
<asrwt>0</asrwt>
<pdfrwt beam="1">  1        2 0.18046478E+00 0.16388834E+04</pdfrwt>
<pdfrwt beam="2">  1       -2 0.88067761E-01 0.16388834E+04</pdfrwt>
<totfact> 0.20887501E+01</totfact>
</mgrwt>
</event>
<event>
 6    1  0.4630212E-004  0.4293668E+04  0.7818608E-02  0.7947790E-01
         -2   -1    0    0    0  501 -0.00000000000E+00  0.00000000000E+00  0.27851885248E+04  0.27851885248E+04  0.00000000000E+00 0. -1.
          2   -1    0    0  501    0  0.00000000000E+00 -0.00000000000E+00 -0.16547877933E+04  0.16547877933E+04  0.00000000000E+00 0.  1.
         23    2    1    2    0    0  0.88777464320E+03  0.14216412113E+04 -0.81916322043E+03  0.18689829006E+04  0.11340701204E+03 0.  0.
         13    1    3    3    0    0  0.18833432949E+03  0.37418031802E+03 -0.17088834100E+03  0.45241966706E+03  0.00000000000E+00 0.  1.
        -13    1    3    3    0    0  0.69944031371E+03  0.10474608932E+04 -0.64827487943E+03  0.14165632335E+04  0.00000000000E+00 0. -1.
         22    1    1    2    0    0 -0.88777464320E+03 -0.14216412113E+04  0.19495639519E+04  0.25709934176E+04  0.00000000000E+00 0. -1.
<mgrwt>
<rscale>  0 0.42936679E+04</rscale>
<asrwt>0</asrwt>
<pdfrwt beam="1">  1        2 0.25458274E+00 0.42936679E+04</pdfrwt>
<pdfrwt beam="2">  1       -2 0.42849054E+00 0.42936679E+04</pdfrwt>
<totfact> 0.38585444E-02</totfact>
</mgrwt>
</event>
<event>
 6    1  0.4630212E-004  0.2073679E+04  0.7818608E-02  0.8572928E-01
          2   -1    0    0  501    0  0.00000000000E+00  0.00000000000E+00  0.20578032205E+04  0.20578032205E+04  0.00000000000E+00 0.  1.
         -2   -1    0    0    0  501 -0.00000000000E+00 -0.00000000000E+00 -0.52241915700E+03  0.52241915700E+03  0.00000000000E+00 0. -1.
         23    2    1    2    0    0  0.21352850747E+03 -0.55718004678E+03 -0.28284515725E+03  0.66658669451E+03  0.91062672241E+02 0.  0.
         11    1    3    3    0    0  0.15253084154E+02 -0.99472775595E+02 -0.78132230318E+02  0.12740539657E+03  0.00000000000E+00 0. -1.
        -11    1    3    3    0    0  0.19827542331E+03 -0.45770727119E+03 -0.20471292694E+03  0.53918129794E+03  0.00000000000E+00 0.  1.
         22    1    1    2    0    0 -0.21352850747E+03  0.55718004678E+03  0.18182292207E+04  0.19136356830E+04  0.00000000000E+00 0.  1.
<mgrwt>
<rscale>  0 0.20736787E+04</rscale>
<asrwt>0</asrwt>
<pdfrwt beam="1">  1        2 0.31658510E+00 0.20736787E+04</pdfrwt>
<pdfrwt beam="2">  1       -2 0.80372179E-01 0.20736787E+04</pdfrwt>
<totfact> 0.78363742E+00</totfact>
</mgrwt>
</event>
<event>
 6    1  0.4630212E-004  0.1023731E+04  0.7818608E-02  0.9282893E-01
          2   -1    0    0  501    0  0.00000000000E+00  0.00000000000E+00  0.25393280085E+03  0.25393280085E+03  0.00000000000E+00 0.  1.
         -2   -1    0    0    0  501 -0.00000000000E+00 -0.00000000000E+00 -0.10317942093E+04  0.10317942093E+04  0.00000000000E+00 0. -1.
         23    2    1    2    0    0 -0.49043921442E+02 -0.35629596752E+03 -0.84416116840E+03  0.92001157319E+03  0.66791420621E+02 0.  0.
         11    1    3    3    0    0 -0.11287376297E+02 -0.27996786928E+03 -0.62747088280E+03  0.68718929085E+03  0.00000000000E+00 0. -1.
        -11    1    3    3    0    0 -0.37756545145E+02 -0.76328098237E+02 -0.21669028559E+03  0.23282228233E+03  0.00000000000E+00 0.  1.
         22    1    1    2    0    0  0.49043921442E+02  0.35629596752E+03  0.66299759902E+02  0.36571543701E+03  0.00000000000E+00 0.  1.
<mgrwt>
<rscale>  0 0.10237312E+04</rscale>
<asrwt>0</asrwt>
<pdfrwt beam="1">  1        2 0.39066586E-01 0.10237312E+04</pdfrwt>
<pdfrwt beam="2">  1       -2 0.15873757E+00 0.10237312E+04</pdfrwt>
<totfact> 0.33910977E+01</totfact>
</mgrwt>
</event>
<event>
 6    1  0.4630212E-004  0.1638800E+04  0.7818608E-02  0.8797060E-01
          2   -1    0    0  501    0  0.00000000000E+00  0.00000000000E+00  0.25758653299E+03  0.25758653299E+03  0.00000000000E+00 0.  1.
         -2   -1    0    0    0  501 -0.00000000000E+00 -0.00000000000E+00 -0.26065654314E+04  0.26065654314E+04  0.00000000000E+00 0. -1.
         23    2    1    2    0    0 -0.36734912204E+03 -0.22992230623E+03  0.32082348541E+02  0.44397380854E+03  0.90960547586E+02 0.  0.
         13    1    3    3    0    0 -0.60124707411E+02 -0.93179155384E+01 -0.15454414772E+02  0.62774540438E+02  0.00000000000E+00 0. -1.
        -13    1    3    3    0    0 -0.30722441463E+03 -0.22060439069E+03  0.47536763313E+02  0.38119926810E+03  0.00000000000E+00 0.  1.
         22    1    1    2    0    0  0.36734912204E+03  0.22992230623E+03 -0.23810612469E+04  0.24201781558E+04  0.00000000000E+00 0. -1.
<mgrwt>
<rscale>  0 0.16387997E+04</rscale>
<asrwt>0</asrwt>
<pdfrwt beam="1">  1        2 0.39628697E-01 0.16387997E+04</pdfrwt>
<pdfrwt beam="2">  1       -2 0.40101007E+00 0.16387997E+04</pdfrwt>
<totfact> 0.91606777E-01</totfact>
</mgrwt>
</event>
<event>
 6    1  0.4630212E-004  0.3098184E+04  0.7818608E-02  0.8216236E-01
         -2   -1    0    0    0  501 -0.00000000000E+00  0.00000000000E+00  0.77078578448E+03  0.77078578448E+03  0.00000000000E+00 0. -1.
          2   -1    0    0  501    0  0.00000000000E+00 -0.00000000000E+00 -0.31132985671E+04  0.31132985671E+04  0.00000000000E+00 0.  1.
         23    2    1    2    0    0  0.47192387143E+03 -0.13040614037E+04 -0.31207454457E+03  0.14252293897E+04  0.10295633399E+03 0.  0.
         13    1    3    3    0    0  0.39563287425E+03 -0.96213492788E+03 -0.23536044312E+03  0.10665943600E+04  0.00000000000E+00 0.  1.
        -13    1    3    3    0    0  0.76290997174E+02 -0.34192647585E+03 -0.76714101442E+02  0.35863502965E+03  0.00000000000E+00 0. -1.
         22    1    1    2    0    0 -0.47192387143E+03  0.13040614037E+04 -0.20304382380E+04  0.24588549619E+04  0.00000000000E+00 0.  1.
<mgrwt>
<rscale>  0 0.30981842E+04</rscale>
<asrwt>0</asrwt>
<pdfrwt beam="1">  1        2 0.47896900E+00 0.30981842E+04</pdfrwt>
<pdfrwt beam="2">  1       -2 0.11858243E+00 0.30981842E+04</pdfrwt>
<totfact> 0.68476932E-01</totfact>
</mgrwt>
</event>
<event>
 6    1  0.4630212E-004  0.1285994E+04  0.7818608E-02  0.9040747E-01
         -2   -1    0    0    0  501 -0.00000000000E+00  0.00000000000E+00  0.33869638854E+03  0.33869638854E+03  0.00000000000E+00 0. -1.
          2   -1    0    0  501    0  0.00000000000E+00 -0.00000000000E+00 -0.12206946094E+04  0.12206946094E+04  0.00000000000E+00 0.  1.
         23    2    1    2    0    0 -0.67837592753E+02  0.49928536414E+03  0.34526038926E+02  0.51349208666E+03  0.92705241836E+02 0.  0.
         11    1    3    3    0    0 -0.86184516482E+01  0.23490476279E+03  0.56222564306E+02  0.24169299127E+03  0.00000000000E+00 0.  1.
        -11    1    3    3    0    0 -0.59219141104E+02  0.26438060135E+03 -0.21696525379E+02  0.27179909539E+03  0.00000000000E+00 0. -1.
         22    1    1    2    0    0  0.67837592753E+02 -0.49928536414E+03 -0.91652425984E+03  0.10458989113E+04  0.00000000000E+00 0.  1.
<mgrwt>
<rscale>  0 0.12859936E+04</rscale>
<asrwt>0</asrwt>
<pdfrwt beam="1">  1        2 0.18779917E+00 0.12859936E+04</pdfrwt>
<pdfrwt beam="2">  1       -2 0.52107137E-01 0.12859936E+04</pdfrwt>
<totfact> 0.62789265E+01</totfact>
</mgrwt>
</event>
<event>
 6    1  0.4630212E-004  0.8601061E+03  0.7818608E-02  0.9476872E-01
         -2   -1    0    0    0  501 -0.00000000000E+00  0.00000000000E+00  0.19489233915E+03  0.19489233915E+03  0.00000000000E+00 0. -1.
          2   -1    0    0  501    0  0.00000000000E+00 -0.00000000000E+00 -0.94896293186E+03  0.94896293186E+03  0.00000000000E+00 0.  1.
         23    2    1    2    0    0  0.23608198827E+03 -0.30452582645E+02 -0.84954181024E+03  0.88738535396E+03  0.95233471589E+02 0.  0.
         13    1    3    3    0    0  0.14355172353E+03 -0.78892984857E+01 -0.65736265712E+03  0.67290043939E+03  0.00000000000E+00 0. -1.
        -13    1    3    3    0    0  0.92530264744E+02 -0.22563284160E+02 -0.19217915312E+03  0.21448491457E+03  0.00000000000E+00 0.  1.
         22    1    1    2    0    0 -0.23608198827E+03  0.30452582645E+02  0.95471217524E+02  0.25646991705E+03  0.00000000000E+00 0. -1.
<mgrwt>
<rscale>  0 0.86010605E+03</rscale>
<asrwt>0</asrwt>
<pdfrwt beam="1">  1        2 0.14599430E+00 0.86010605E+03</pdfrwt>
<pdfrwt beam="2">  1       -2 0.29983437E-01 0.86010605E+03</pdfrwt>
<totfact> 0.27983833E+02</totfact>
</mgrwt>
</event>
<event>
 6    1  0.5182718E-004  0.4206056E+04  0.7818608E-02  0.7964221E-01
          2   -1    0    0  501    0  0.00000000000E+00  0.00000000000E+00  0.23928346838E+04  0.23928346838E+04  0.00000000000E+00 0.  1.
         -2   -1    0    0    0  501 -0.00000000000E+00 -0.00000000000E+00 -0.18483213187E+04  0.18483213187E+04  0.00000000000E+00 0. -1.
         23    2    1    2    0    0  0.53212787320E+03  0.19132400866E+04 -0.42240961139E+03  0.20324034712E+04  0.92662222636E+02 0.  0.
         11    1    3    3    0    0  0.20198661431E+03  0.75392894386E+03 -0.21175800622E+03  0.80873289655E+03  0.00000000000E+00 0. -1.
        -11    1    3    3    0    0  0.33014125889E+03  0.11593111427E+04 -0.21065160517E+03  0.12236705746E+04  0.00000000000E+00 0.  1.
         22    1    1    2    0    0 -0.53212787320E+03 -0.19132400866E+04  0.96692297656E+03  0.22087525314E+04  0.00000000000E+00 0.  1.
<mgrwt>
<rscale>  0 0.42060563E+04</rscale>
<asrwt>0</asrwt>
<pdfrwt beam="1">  1        2 0.36812841E+00 0.42060563E+04</pdfrwt>
<pdfrwt beam="2">  1       -2 0.28435712E+00 0.42060563E+04</pdfrwt>
<totfact> 0.12335121E-01</totfact>
</mgrwt>
</event>
<event>
 6    1  0.4630212E-004  0.1840237E+04  0.7818608E-02  0.8685190E-01
          2   -1    0    0  501    0  0.00000000000E+00  0.00000000000E+00  0.39524187622E+03  0.39524187622E+03  0.00000000000E+00 0.  1.
         -2   -1    0    0    0  501 -0.00000000000E+00 -0.00000000000E+00 -0.21420245794E+04  0.21420245794E+04  0.00000000000E+00 0. -1.
         23    2    1    2    0    0  0.54713253075E+02 -0.81256492617E+03 -0.14588563189E+04  0.16734627151E+04  0.94659391694E+02 0.  0.
         11    1    3    3    0    0  0.38586823485E+02 -0.67120590032E+03 -0.12703908246E+04  0.14373236068E+04  0.00000000000E+00 0.  1.
        -11    1    3    3    0    0  0.16126429590E+02 -0.14135902585E+03 -0.18846549433E+03  0.23613910832E+03  0.00000000000E+00 0. -1.
         22    1    1    2    0    0 -0.54713253075E+02  0.81256492617E+03 -0.28792638426E+03  0.86380374048E+03  0.00000000000E+00 0.  1.
<mgrwt>
<rscale>  0 0.18402367E+04</rscale>
<asrwt>0</asrwt>
<pdfrwt beam="1">  1        2 0.60806442E-01 0.18402367E+04</pdfrwt>
<pdfrwt beam="2">  1       -2 0.32954224E+00 0.18402367E+04</pdfrwt>
<totfact> 0.15891079E+00</totfact>
</mgrwt>
</event>
<event>
 6    1  0.4630212E-004  0.1112431E+04  0.7818608E-02  0.9193160E-01
         -1   -1    0    0    0  501 -0.00000000000E+00  0.00000000000E+00  0.23952422727E+03  0.23952422727E+03  0.00000000000E+00 0. -1.
          1   -1    0    0  501    0  0.00000000000E+00 -0.00000000000E+00 -0.12916247265E+04  0.12916247265E+04  0.00000000000E+00 0.  1.
         23    2    1    2    0    0  0.17038010788E+03 -0.47931632481E+03 -0.23368994804E+03  0.56752592028E+03  0.93279997783E+02 0.  0.
         11    1    3    3    0    0  0.63829492737E+02 -0.28544617554E+03 -0.16531022673E+03  0.33597796704E+03  0.00000000000E+00 0.  1.
        -11    1    3    3    0    0  0.10655061515E+03 -0.19387014927E+03 -0.68379721317E+02  0.23154795325E+03  0.00000000000E+00 0. -1.
         22    1    1    2    0    0 -0.17038010788E+03  0.47931632481E+03 -0.81841055122E+03  0.96362303353E+03  0.00000000000E+00 0.  1.
<mgrwt>
<rscale>  0 0.11124305E+04</rscale>
<asrwt>0</asrwt>
<pdfrwt beam="1">  1        1 0.19871150E+00 0.11124305E+04</pdfrwt>
<pdfrwt beam="2">  1       -1 0.36849881E-01 0.11124305E+04</pdfrwt>
<totfact> 0.64537549E+01</totfact>
</mgrwt>
</event>
<event>
 6    1  0.4630212E-004  0.2553699E+04  0.7818608E-02  0.8384101E-01
          2   -1    0    0  501    0  0.00000000000E+00  0.00000000000E+00  0.29716727402E+04  0.29716727402E+04  0.00000000000E+00 0.  1.
         -2   -1    0    0    0  501 -0.00000000000E+00 -0.00000000000E+00 -0.54862875231E+03  0.54862875231E+03  0.00000000000E+00 0. -1.
         23    2    1    2    0    0  0.73321974513E+03  0.30001941077E+03  0.25905984701E+04  0.27105500825E+04  0.90876151884E+02 0.  0.
         13    1    3    3    0    0  0.35470060046E+03  0.12240590857E+03  0.10893389038E+04  0.11521523205E+04  0.00000000000E+00 0.  1.
        -13    1    3    3    0    0  0.37851914466E+03  0.17761350220E+03  0.15012595663E+04  0.15583977619E+04  0.00000000000E+00 0. -1.
         22    1    1    2    0    0 -0.73321974513E+03 -0.30001941077E+03 -0.16755448221E+03  0.80975141000E+03  0.00000000000E+00 0. -1.
<mgrwt>
<rscale>  0 0.25536994E+04</rscale>
<asrwt>0</asrwt>
<pdfrwt beam="1">  1        2 0.45718041E+00 0.25536994E+04</pdfrwt>
<pdfrwt beam="2">  1       -2 0.84404425E-01 0.25536994E+04</pdfrwt>
<totfact> 0.19717662E+00</totfact>
</mgrwt>
</event>
<event>
 6    1  0.4630212E-004  0.1903353E+04  0.7818608E-02  0.8653189E-01
          2   -1    0    0  501    0  0.00000000000E+00  0.00000000000E+00  0.66918974188E+03  0.66918974188E+03  0.00000000000E+00 0.  1.
         -2   -1    0    0    0  501 -0.00000000000E+00 -0.00000000000E+00 -0.13534104016E+04  0.13534104016E+04  0.00000000000E+00 0. -1.
         23    2    1    2    0    0  0.67674785738E+03 -0.66367490456E+03 -0.40531434028E+03  0.10345511688E+04  0.86973357864E+02 0.  0.
         13    1    3    3    0    0  0.39817739053E+03 -0.43772139461E+03 -0.22470856837E+03  0.63296065780E+03  0.00000000000E+00 0. -1.
        -13    1    3    3    0    0  0.27857046685E+03 -0.22595350996E+03 -0.18060577192E+03  0.40159051098E+03  0.00000000000E+00 0.  1.
         22    1    1    2    0    0 -0.67674785738E+03  0.66367490456E+03 -0.27890631946E+03  0.98804897472E+03  0.00000000000E+00 0.  1.
<mgrwt>
<rscale>  0 0.19033532E+04</rscale>
<asrwt>0</asrwt>
<pdfrwt beam="1">  1        2 0.10295227E+00 0.19033532E+04</pdfrwt>
<pdfrwt beam="2">  1       -2 0.20821698E+00 0.19033532E+04</pdfrwt>
<totfact> 0.47706571E+00</totfact>
</mgrwt>
</event>
<event>
 6    1  0.4630212E-004  0.1480046E+04  0.7818608E-02  0.8897832E-01
          1   -1    0    0  501    0  0.00000000000E+00  0.00000000000E+00  0.83998540573E+03  0.83998540573E+03  0.00000000000E+00 0.  1.
         -1   -1    0    0    0  501 -0.00000000000E+00 -0.00000000000E+00 -0.65195665609E+03  0.65195665609E+03  0.00000000000E+00 0. -1.
         23    2    1    2    0    0  0.33151106061E+03  0.61223357860E+03  0.33901284428E+03  0.77953365724E+03  0.89518021078E+02 0.  0.
         13    1    3    3    0    0  0.30058913184E+03  0.58599537434E+03  0.33467039587E+03  0.73874804825E+03  0.00000000000E+00 0.  1.
        -13    1    3    3    0    0  0.30921928773E+02  0.26238204268E+02  0.43424484183E+01  0.40785608988E+02  0.00000000000E+00 0. -1.
         22    1    1    2    0    0 -0.33151106061E+03 -0.61223357860E+03 -0.15098409464E+03  0.71240840458E+03  0.00000000000E+00 0. -1.
<mgrwt>
<rscale>  0 0.14800460E+04</rscale>
<asrwt>0</asrwt>
<pdfrwt beam="1">  1        1 0.12922852E+00 0.14800460E+04</pdfrwt>
<pdfrwt beam="2">  1       -1 0.10030102E+00 0.14800460E+04</pdfrwt>
<totfact> 0.18737605E+01</totfact>
</mgrwt>
</event>
<event>
 6    1  0.4630212E-004  0.6421751E+04  0.7818608E-02  0.7640201E-01
          2   -1    0    0  501    0  0.00000000000E+00  0.00000000000E+00  0.39124945756E+04  0.39124945756E+04  0.00000000000E+00 0.  1.
         -2   -1    0    0    0  501 -0.00000000000E+00 -0.00000000000E+00 -0.26350762953E+04  0.26350762953E+04  0.00000000000E+00 0. -1.
         23    2    1    2    0    0 -0.29907783956E+04 -0.11178834131E+04  0.97854843326E+03  0.33407434788E+04  0.92688822618E+02 0.  0.
         11    1    3    3    0    0 -0.36530583335E+03 -0.13750716606E+03  0.88179612696E+02  0.40016523674E+03  0.00000000000E+00 0. -1.
        -11    1    3    3    0    0 -0.26254725623E+04 -0.98037624700E+03  0.89036882057E+03  0.29405782420E+04  0.00000000000E+00 0.  1.
         22    1    1    2    0    0  0.29907783956E+04  0.11178834131E+04  0.29886984706E+03  0.32068273921E+04  0.00000000000E+00 0.  1.
<mgrwt>
<rscale>  0 0.64217511E+04</rscale>
<asrwt>0</asrwt>
<pdfrwt beam="1">  1        2 0.60192225E+00 0.64217511E+04</pdfrwt>
<pdfrwt beam="2">  1       -2 0.40539635E+00 0.64217511E+04</pdfrwt>
<totfact> 0.17861529E-03</totfact>
</mgrwt>
</event>
<event>
 6    1  0.4630212E-004  0.1218404E+04  0.7818608E-02  0.9096898E-01
          2   -1    0    0  501    0  0.00000000000E+00  0.00000000000E+00  0.18966540660E+04  0.18966540660E+04  0.00000000000E+00 0.  1.
         -2   -1    0    0    0  501 -0.00000000000E+00 -0.00000000000E+00 -0.19567457250E+03  0.19567457250E+03  0.00000000000E+00 0. -1.
         23    2    1    2    0    0 -0.47685450827E+03 -0.36415629952E+03  0.10007540702E+04  0.11702030093E+04  0.88692398126E+02 0.  0.
         13    1    3    3    0    0 -0.30435719204E+03 -0.27838201573E+03  0.64420335208E+03  0.76493647178E+03  0.00000000000E+00 0. -1.
        -13    1    3    3    0    0 -0.17249731623E+03 -0.85774283794E+02  0.35655071811E+03  0.40526653754E+03  0.00000000000E+00 0.  1.
         22    1    1    2    0    0  0.47685450827E+03  0.36415629952E+03  0.70022542331E+03  0.92212562918E+03  0.00000000000E+00 0. -1.
<mgrwt>
<rscale>  0 0.12184038E+04</rscale>
<asrwt>0</asrwt>
<pdfrwt beam="1">  1        2 0.29179292E+00 0.12184038E+04</pdfrwt>
<pdfrwt beam="2">  1       -2 0.30103782E-01 0.12184038E+04</pdfrwt>
<totfact> 0.76625321E+01</totfact>
</mgrwt>
</event>
<event>
 6    1  0.4630212E-004  0.9631210E+03  0.7818608E-02  0.9349944E-01
         -2   -1    0    0    0  501 -0.00000000000E+00  0.00000000000E+00  0.66586436356E+02  0.66586436356E+02  0.00000000000E+00 0. -1.
          2   -1    0    0  501    0  0.00000000000E+00 -0.00000000000E+00 -0.34826992246E+04  0.34826992246E+04  0.00000000000E+00 0.  1.
         23    2    1    2    0    0 -0.36737335533E+03  0.30415503419E+03 -0.16685382032E+04  0.17377972129E+04  0.91901853618E+02 0.  0.
         13    1    3    3    0    0 -0.17856071774E+03  0.20214710935E+03 -0.99396633174E+03  0.10299108954E+04  0.00000000000E+00 0. -1.
        -13    1    3    3    0    0 -0.18881263759E+03  0.10200792484E+03 -0.67457187145E+03  0.70788631757E+03  0.00000000000E+00 0.  1.
         22    1    1    2    0    0  0.36737335533E+03 -0.30415503419E+03 -0.17475745850E+04  0.18114884480E+04  0.00000000000E+00 0. -1.
<mgrwt>
<rscale>  0 0.96312103E+03</rscale>
<asrwt>0</asrwt>
<pdfrwt beam="1">  1        2 0.53579985E+00 0.96312103E+03</pdfrwt>
<pdfrwt beam="2">  1       -2 0.10244068E-01 0.96312103E+03</pdfrwt>
<totfact> 0.57666588E+01</totfact>
</mgrwt>
</event>
<event>
 6    1  0.4630212E-004  0.4396823E+04  0.7818608E-02  0.7928953E-01
         -1   -1    0    0    0  501 -0.00000000000E+00  0.00000000000E+00  0.33625456658E+04  0.33625456658E+04  0.00000000000E+00 0. -1.
          1   -1    0    0  501    0  0.00000000000E+00 -0.00000000000E+00 -0.14373080576E+04  0.14373080576E+04  0.00000000000E+00 0.  1.
         23    2    1    2    0    0 -0.21192831117E+04  0.46128651678E+03  0.13486097098E+04  0.25556064351E+04  0.90719035554E+02 0.  0.
         11    1    3    3    0    0 -0.30924226545E+03  0.86511042133E+02  0.16931227562E+03  0.36301733543E+03  0.00000000000E+00 0. -1.
        -11    1    3    3    0    0 -0.18100408463E+04  0.37477547465E+03  0.11792974342E+04  0.21925890996E+04  0.00000000000E+00 0.  1.
         22    1    1    2    0    0  0.21192831117E+04 -0.46128651678E+03  0.57662789839E+03  0.22442472884E+04  0.00000000000E+00 0.  1.
<mgrwt>
<rscale>  0 0.43968234E+04</rscale>
<asrwt>0</asrwt>
<pdfrwt beam="1">  1        1 0.22112432E+00 0.43968234E+04</pdfrwt>
<pdfrwt beam="2">  1       -1 0.51731471E+00 0.43968234E+04</pdfrwt>
<totfact> 0.63734132E-03</totfact>
</mgrwt>
</event>
<event>
 6    1  0.4630212E-004  0.3219507E+04  0.7818608E-02  0.8183684E-01
          2   -1    0    0  501    0  0.00000000000E+00  0.00000000000E+00  0.28113242400E+04  0.28113242400E+04  0.00000000000E+00 0.  1.
         -2   -1    0    0    0  501 -0.00000000000E+00 -0.00000000000E+00 -0.92173891940E+03  0.92173891940E+03  0.00000000000E+00 0. -1.
         23    2    1    2    0    0 -0.14567021039E+04 -0.48875740668E+02  0.17344478176E+04  0.22673082337E+04  0.89484843478E+02 0.  0.
         11    1    3    3    0    0 -0.75865959852E+03  0.19118847260E+02  0.90725213549E+03  0.11828086718E+04  0.00000000000E+00 0. -1.
        -11    1    3    3    0    0 -0.69804250535E+03 -0.67994587928E+02  0.82719568210E+03  0.10844995619E+04  0.00000000000E+00 0.  1.
         22    1    1    2    0    0  0.14567021039E+04  0.48875740668E+02  0.15513750304E+03  0.14657549257E+04  0.00000000000E+00 0.  1.
<mgrwt>
<rscale>  0 0.32195074E+04</rscale>
<asrwt>0</asrwt>
<pdfrwt beam="1">  1        2 0.43251142E+00 0.32195074E+04</pdfrwt>
<pdfrwt beam="2">  1       -2 0.14180599E+00 0.32195074E+04</pdfrwt>
<totfact> 0.66437431E-01</totfact>
</mgrwt>
</event>
<event>
 6    1  0.4630212E-004  0.3203178E+04  0.7818608E-02  0.8187978E-01
          2   -1    0    0  501    0  0.00000000000E+00  0.00000000000E+00  0.35223041439E+04  0.35223041439E+04  0.00000000000E+00 0.  1.
         -2   -1    0    0    0  501 -0.00000000000E+00 -0.00000000000E+00 -0.72824146420E+03  0.72824146420E+03  0.00000000000E+00 0. -1.
         23    2    1    2    0    0  0.89437337617E+03 -0.12754850622E+04  0.18830645505E+04  0.24459172610E+04  0.99061930752E+02 0.  0.
         11    1    3    3    0    0  0.76278004578E+03 -0.10267810069E+04  0.15199380538E+04  0.19865357590E+04  0.00000000000E+00 0.  1.
        -11    1    3    3    0    0  0.13159333039E+03 -0.24870405530E+03  0.36312649674E+03  0.45938150198E+03  0.00000000000E+00 0. -1.
         22    1    1    2    0    0 -0.89437337617E+03  0.12754850622E+04  0.91099812917E+03  0.18046283471E+04  0.00000000000E+00 0. -1.
<mgrwt>
<rscale>  0 0.32031784E+04</rscale>
<asrwt>0</asrwt>
<pdfrwt beam="1">  1        2 0.54189294E+00 0.32031784E+04</pdfrwt>
<pdfrwt beam="2">  1       -2 0.11203715E+00 0.32031784E+04</pdfrwt>
<totfact> 0.41428227E-01</totfact>
</mgrwt>
</event>
<event>
 6    1  0.4630212E-004  0.7371256E+03  0.7818608E-02  0.9655768E-01
          2   -1    0    0  501    0  0.00000000000E+00  0.00000000000E+00  0.56361862396E+03  0.56361862396E+03  0.00000000000E+00 0.  1.
         -2   -1    0    0    0  501 -0.00000000000E+00 -0.00000000000E+00 -0.24101145287E+03  0.24101145287E+03  0.00000000000E+00 0. -1.
         23    2    1    2    0    0 -0.35786885825E+03  0.45471970253E+02  0.20788716765E+03  0.42608219482E+03  0.90504930741E+02 0.  0.
         11    1    3    3    0    0 -0.24951780156E+02  0.10136049631E+02  0.48080820617E+02  0.55109855255E+02  0.00000000000E+00 0.  1.
        -11    1    3    3    0    0 -0.33291707810E+03  0.35335920622E+02  0.15980634703E+03  0.37097233957E+03  0.00000000000E+00 0. -1.
         22    1    1    2    0    0  0.35786885825E+03 -0.45471970253E+02  0.11472000344E+03  0.37854788201E+03  0.00000000000E+00 0. -1.
<mgrwt>
<rscale>  0 0.73712562E+03</rscale>
<asrwt>0</asrwt>
<pdfrwt beam="1">  1        2 0.86710557E-01 0.73712562E+03</pdfrwt>
<pdfrwt beam="2">  1       -2 0.37078685E-01 0.73712562E+03</pdfrwt>
<totfact> 0.36912361E+02</totfact>
</mgrwt>
</event>
<event>
 6    1  0.4630212E-004  0.3078491E+04  0.7818608E-02  0.8221666E-01
          2   -1    0    0  501    0  0.00000000000E+00  0.00000000000E+00  0.31183875618E+04  0.31183875618E+04  0.00000000000E+00 0.  1.
         -2   -1    0    0    0  501 -0.00000000000E+00 -0.00000000000E+00 -0.75977620348E+03  0.75977620348E+03  0.00000000000E+00 0. -1.
         23    2    1    2    0    0  0.58706293843E+03  0.31316342610E+03 -0.56636001242E+03  0.87846848995E+03  0.90713830511E+02 0.  0.
         11    1    3    3    0    0  0.33547777143E+03  0.22737869364E+03 -0.32637766751E+03  0.52035448234E+03  0.00000000000E+00 0.  1.
        -11    1    3    3    0    0  0.25158516700E+03  0.85784732461E+02 -0.23998234491E+03  0.35811400761E+03  0.00000000000E+00 0. -1.
         22    1    1    2    0    0 -0.58706293843E+03 -0.31316342610E+03  0.29249713708E+04  0.29996952754E+04  0.00000000000E+00 0.  1.
<mgrwt>
<rscale>  0 0.30784910E+04</rscale>
<asrwt>0</asrwt>
<pdfrwt beam="1">  1        2 0.47975192E+00 0.30784910E+04</pdfrwt>
<pdfrwt beam="2">  1       -2 0.11688865E+00 0.30784910E+04</pdfrwt>
<totfact> 0.70525198E-01</totfact>
</mgrwt>
</event>
<event>
 6    1  0.4630212E-004  0.4963627E+04  0.7818608E-02  0.7834143E-01
          2   -1    0    0  501    0  0.00000000000E+00  0.00000000000E+00  0.32715057920E+04  0.32715057920E+04  0.00000000000E+00 0.  1.
         -2   -1    0    0    0  501 -0.00000000000E+00 -0.00000000000E+00 -0.18827407830E+04  0.18827407830E+04  0.00000000000E+00 0. -1.
         23    2    1    2    0    0  0.23617097529E+04  0.20337965645E+03  0.14548950929E+04  0.27828736752E+04  0.92897358127E+02 0.  0.
         11    1    3    3    0    0  0.17676547745E+04  0.16345501512E+03  0.10435615166E+04  0.20592089702E+04  0.00000000000E+00 0. -1.
        -11    1    3    3    0    0  0.59405497837E+03  0.39924641334E+02  0.41133357631E+03  0.72366470503E+03  0.00000000000E+00 0.  1.
         22    1    1    2    0    0 -0.23617097529E+04 -0.20337965645E+03 -0.66130083938E+02  0.23713728997E+04  0.00000000000E+00 0. -1.
<mgrwt>
<rscale>  0 0.49636266E+04</rscale>
<asrwt>0</asrwt>
<pdfrwt beam="1">  1        2 0.50330858E+00 0.49636266E+04</pdfrwt>
<pdfrwt beam="2">  1       -2 0.28965243E+00 0.49636266E+04</pdfrwt>
<totfact> 0.31200842E-02</totfact>
</mgrwt>
</event>
<event>
 6    1  0.9056419E-004  0.3638733E+04  0.7818608E-02  0.8081677E-01
         -2   -1    0    0    0  501 -0.00000000000E+00  0.00000000000E+00  0.14236488958E+04  0.14236488958E+04  0.00000000000E+00 0. -1.
          2   -1    0    0  501    0  0.00000000000E+00 -0.00000000000E+00 -0.23250778096E+04  0.23250778096E+04  0.00000000000E+00 0.  1.
         23    2    1    2    0    0 -0.21897619335E+03  0.40938800675E+03 -0.22620866156E+04  0.23110415888E+04  0.91259275583E+02 0.  0.
         13    1    3    3    0    0 -0.13312334774E+03  0.27377202697E+03 -0.12646918355E+04  0.13008145091E+04  0.00000000000E+00 0.  1.
        -13    1    3    3    0    0 -0.85852845618E+02  0.13561597978E+03 -0.99739478011E+03  0.10102270796E+04  0.00000000000E+00 0. -1.
         22    1    1    2    0    0  0.21897619335E+03 -0.40938800675E+03  0.13606577017E+04  0.14376851166E+04  0.00000000000E+00 0. -1.
<mgrwt>
<rscale>  0 0.36387330E+04</rscale>
<asrwt>0</asrwt>
<pdfrwt beam="1">  1        2 0.35770427E+00 0.36387330E+04</pdfrwt>
<pdfrwt beam="2">  1       -2 0.21902291E+00 0.36387330E+04</pdfrwt>
<totfact> 0.35736052E-01</totfact>
</mgrwt>
</event>
<event>
 6    1  0.5666343E-004  0.2091474E+04  0.7818608E-02  0.8565008E-01
          2   -1    0    0  501    0  0.00000000000E+00  0.00000000000E+00  0.74789134721E+03  0.74789134721E+03  0.00000000000E+00 0. -1.
         -2   -1    0    0    0  501 -0.00000000000E+00 -0.00000000000E+00 -0.14621991803E+04  0.14621991803E+04  0.00000000000E+00 0.  1.
         23    2    1    2    0    0 -0.54454669882E+03  0.69292518718E+03 -0.94969177350E+03  0.12979052275E+04  0.77246958338E+02 0.  0.
         13    1    3    3    0    0 -0.33044481609E+03  0.47744785719E+03 -0.60833221323E+03  0.84096273072E+03  0.00000000000E+00 0.  1.
        -13    1    3    3    0    0 -0.21410188274E+03  0.21547733000E+03 -0.34135956026E+03  0.45694249673E+03  0.00000000000E+00 0. -1.
         22    1    1    2    0    0  0.54454669882E+03 -0.69292518718E+03  0.23538394041E+03  0.91218530005E+03  0.00000000000E+00 0. -1.
<mgrwt>
<rscale>  0 0.20914742E+04</rscale>
<asrwt>0</asrwt>
<pdfrwt beam="1">  1        2 0.11506021E+00 0.20914742E+04</pdfrwt>
<pdfrwt beam="2">  1       -2 0.22495372E+00 0.20914742E+04</pdfrwt>
<totfact> 0.31906194E+00</totfact>
</mgrwt>
</event>
<event>
 6    1  0.4630212E-004  0.3986084E+04  0.7818608E-02  0.8007360E-01
         -2   -1    0    0    0  501 -0.00000000000E+00  0.00000000000E+00  0.11020440732E+04  0.11020440732E+04  0.00000000000E+00 0. -1.
          2   -1    0    0  501    0  0.00000000000E+00 -0.00000000000E+00 -0.36044085323E+04  0.36044085323E+04  0.00000000000E+00 0.  1.
         23    2    1    2    0    0  0.49281557838E+03 -0.18945399303E+04 -0.81797932146E+03  0.21239534218E+04  0.99695667155E+02 0.  0.
         11    1    3    3    0    0  0.24574783157E+03 -0.92947610591E+03 -0.45558837580E+03  0.10638978317E+04  0.00000000000E+00 0.  1.
        -11    1    3    3    0    0  0.24706774681E+03 -0.96506382439E+03 -0.36239094566E+03  0.10600555901E+04  0.00000000000E+00 0. -1.
         22    1    1    2    0    0 -0.49281557838E+03  0.18945399303E+04 -0.16843851376E+04  0.25824991836E+04  0.00000000000E+00 0.  1.
<mgrwt>
<rscale>  0 0.39860843E+04</rscale>
<asrwt>0</asrwt>
<pdfrwt beam="1">  1        2 0.55452439E+00 0.39860843E+04</pdfrwt>
<pdfrwt beam="2">  1       -2 0.16954524E+00 0.39860843E+04</pdfrwt>
<totfact> 0.11597993E-01</totfact>
</mgrwt>
</event>
<event>
 6    1  0.5130860E-004  0.3188263E+04  0.7818608E-02  0.8191924E-01
         -2   -1    0    0    0  501 -0.00000000000E+00  0.00000000000E+00  0.75312753707E+03  0.75312753707E+03  0.00000000000E+00 0. -1.
          2   -1    0    0  501    0  0.00000000000E+00 -0.00000000000E+00 -0.33742701742E+04  0.33742701742E+04  0.00000000000E+00 0.  1.
         23    2    1    2    0    0  0.17061174895E+03  0.11197693625E+04  0.13807416008E+03  0.11447362943E+04  0.91459912909E+02 0.  0.
         13    1    3    3    0    0  0.65724749021E+02  0.43653406112E+03  0.98844193431E+02  0.45238468555E+03  0.00000000000E+00 0. -1.
        -13    1    3    3    0    0  0.10488699993E+03  0.68323530143E+03  0.39229966645E+02  0.69235160877E+03  0.00000000000E+00 0.  1.
         22    1    1    2    0    0 -0.17061174895E+03 -0.11197693625E+04 -0.27592167972E+04  0.29826614169E+04  0.00000000000E+00 0.  1.
<mgrwt>
<rscale>  0 0.31882633E+04</rscale>
<asrwt>0</asrwt>
<pdfrwt beam="1">  1        2 0.51911848E+00 0.31882633E+04</pdfrwt>
<pdfrwt beam="2">  1       -2 0.11586578E+00 0.31882633E+04</pdfrwt>
<totfact> 0.48385141E-01</totfact>
</mgrwt>
</event>
<event>
 6    1  0.4630212E-004  0.2545004E+04  0.7818608E-02  0.8387126E-01
         -2   -1    0    0    0  501 -0.00000000000E+00  0.00000000000E+00  0.95686249777E+03  0.95686249777E+03  0.00000000000E+00 0. -1.
          2   -1    0    0  501    0  0.00000000000E+00 -0.00000000000E+00 -0.16922617519E+04  0.16922617519E+04  0.00000000000E+00 0.  1.
         23    2    1    2    0    0  0.60817344303E+03 -0.93411256745E+03 -0.10033742398E+04  0.15027160247E+04  0.94627481405E+02 0.  0.
         13    1    3    3    0    0  0.13377870801E+03 -0.20797244800E+03 -0.17172368544E+03  0.30106196370E+03  0.00000000000E+00 0.  1.
        -13    1    3    3    0    0  0.47439473502E+03 -0.72614011945E+03 -0.83165055437E+03  0.12016540610E+04  0.00000000000E+00 0. -1.
         22    1    1    2    0    0 -0.60817344303E+03  0.93411256745E+03  0.26797498564E+03  0.11464082250E+04  0.00000000000E+00 0. -1.
<mgrwt>
<rscale>  0 0.25450044E+04</rscale>
<asrwt>0</asrwt>
<pdfrwt beam="1">  1        2 0.26034796E+00 0.25450044E+04</pdfrwt>
<pdfrwt beam="2">  1       -2 0.14720962E+00 0.25450044E+04</pdfrwt>
<totfact> 0.27717658E+00</totfact>
</mgrwt>
</event>
<event>
 6    1  0.4630212E-004  0.1672194E+04  0.7818608E-02  0.8777384E-01
         -1   -1    0    0    0  501 -0.00000000000E+00  0.00000000000E+00  0.16200217741E+04  0.16200217741E+04  0.00000000000E+00 0. -1.
          1   -1    0    0  501    0  0.00000000000E+00 -0.00000000000E+00 -0.43151153943E+03  0.43151153943E+03  0.00000000000E+00 0.  1.
         23    2    1    2    0    0 -0.51972249501E+03  0.65083333167E+02  0.13912411217E+04  0.14898865165E+04  0.99310932402E+02 0.  0.
         13    1    3    3    0    0 -0.47150902015E+03  0.58561816512E+02  0.11591085641E+04  0.12527102242E+04  0.00000000000E+00 0.  1.
        -13    1    3    3    0    0 -0.48213474859E+02  0.65215166548E+01  0.23213255760E+03  0.23717629231E+03  0.00000000000E+00 0. -1.
         22    1    1    2    0    0  0.51972249501E+03 -0.65083333167E+02 -0.20273088700E+03  0.56164679704E+03  0.00000000000E+00 0.  1.
<mgrwt>
<rscale>  0 0.16721939E+04</rscale>
<asrwt>0</asrwt>
<pdfrwt beam="1">  1        1 0.66386391E-01 0.16721939E+04</pdfrwt>
<pdfrwt beam="2">  1       -1 0.24923412E+00 0.16721939E+04</pdfrwt>
<totfact> 0.36466096E+00</totfact>
</mgrwt>
</event>
<event>
 6    1  0.4630212E-004  0.4509874E+03  0.7818608E-02  0.1027428E+00
         -1   -1    0    0    0  501 -0.00000000000E+00  0.00000000000E+00  0.17984796503E+03  0.17984796503E+03  0.00000000000E+00 0. -1.
          1   -1    0    0  501    0  0.00000000000E+00 -0.00000000000E+00 -0.28272443096E+03  0.28272443096E+03  0.00000000000E+00 0.  1.
         23    2    1    2    0    0  0.17923363927E+01 -0.13580214928E+03 -0.22610718531E+03  0.27918415641E+03  0.91509003495E+02 0.  0.
         13    1    3    3    0    0 -0.21189604568E+02 -0.12814619391E+03 -0.14561526904E+03  0.19512624870E+03  0.00000000000E+00 0. -1.
        -13    1    3    3    0    0  0.22981940960E+02 -0.76559553753E+01 -0.80491916274E+02  0.84057907709E+02  0.00000000000E+00 0.  1.
         22    1    1    2    0    0 -0.17923363927E+01  0.13580214928E+03  0.12323071938E+03  0.18338823959E+03  0.00000000000E+00 0. -1.
<mgrwt>
<rscale>  0 0.45098742E+03</rscale>
<asrwt>0</asrwt>
<pdfrwt beam="1">  1        1 0.43496066E-01 0.45098742E+03</pdfrwt>
<pdfrwt beam="2">  1       -1 0.27668918E-01 0.45098742E+03</pdfrwt>
<totfact> 0.11131414E+03</totfact>
</mgrwt>
</event>
<event>
 6    1  0.4630212E-004  0.2358111E+04  0.7818608E-02  0.8455355E-01
          2   -1    0    0  501    0  0.00000000000E+00  0.00000000000E+00  0.13451683761E+04  0.13451683761E+04  0.00000000000E+00 0. -1.
         -2   -1    0    0    0  501 -0.00000000000E+00 -0.00000000000E+00 -0.10334554577E+04  0.10334554577E+04  0.00000000000E+00 0.  1.
         23    2    1    2    0    0  0.11140779278E+04 -0.30464517149E+03 -0.74071218515E+02  0.11609179129E+04  0.90915044440E+02 0.  0.
         11    1    3    3    0    0  0.21479181129E+03 -0.89825943561E+02 -0.35653825619E+02  0.23553220080E+03  0.00000000000E+00 0.  1.
        -11    1    3    3    0    0  0.89928611650E+03 -0.21481922793E+03 -0.38417392896E+02  0.92538571206E+03  0.00000000000E+00 0. -1.
         22    1    1    2    0    0 -0.11140779278E+04  0.30464517149E+03  0.38578413690E+03  0.12177059210E+04  0.00000000000E+00 0. -1.
<mgrwt>
<rscale>  0 0.23581108E+04</rscale>
<asrwt>0</asrwt>
<pdfrwt beam="1">  1        2 0.20694898E+00 0.23581108E+04</pdfrwt>
<pdfrwt beam="2">  1       -2 0.15899315E+00 0.23581108E+04</pdfrwt>
<totfact> 0.35987566E+00</totfact>
</mgrwt>
</event>
<event>
 6    1  0.4630212E-004  0.1660412E+04  0.7818608E-02  0.8784270E-01
         -2   -1    0    0    0  501 -0.00000000000E+00  0.00000000000E+00  0.10651080577E+04  0.10651080577E+04  0.00000000000E+00 0. -1.
          2   -1    0    0  501    0  0.00000000000E+00 -0.00000000000E+00 -0.64711027017E+03  0.64711027017E+03  0.00000000000E+00 0.  1.
         23    2    1    2    0    0  0.48288572075E+03 -0.10961404457E+03 -0.47424143159E+03  0.69178475228E+03  0.92018204648E+02 0.  0.
         13    1    3    3    0    0  0.29500665425E+03 -0.27225139568E+02 -0.24779288989E+03  0.38622720069E+03  0.00000000000E+00 0.  1.
        -13    1    3    3    0    0  0.18787906650E+03 -0.82388905003E+02 -0.22644854170E+03  0.30555755159E+03  0.00000000000E+00 0. -1.
         22    1    1    2    0    0 -0.48288572075E+03  0.10961404457E+03  0.89223921911E+03  0.10204335756E+04  0.00000000000E+00 0. -1.
<mgrwt>
<rscale>  0 0.16604124E+04</rscale>
<asrwt>0</asrwt>
<pdfrwt beam="1">  1        2 0.99555426E-01 0.16604124E+04</pdfrwt>
<pdfrwt beam="2">  1       -2 0.16386278E+00 0.16604124E+04</pdfrwt>
<totfact> 0.10175021E+01</totfact>
</mgrwt>
</event>
<event>
 6    1  0.4630212E-004  0.8570763E+03  0.7818608E-02  0.9480888E-01
         -2   -1    0    0    0  501 -0.00000000000E+00  0.00000000000E+00  0.12431644340E+03  0.12431644340E+03  0.00000000000E+00 0. -1.
          2   -1    0    0  501    0  0.00000000000E+00 -0.00000000000E+00 -0.14772377891E+04  0.14772377891E+04  0.00000000000E+00 0.  1.
         23    2    1    2    0    0  0.14598300519E+03  0.30002776128E+03 -0.11716475682E+04  0.12218334433E+04  0.93761632804E+02 0.  0.
         13    1    3    3    0    0  0.78996826762E+02  0.24897856356E+03 -0.92675708283E+03  0.96286526281E+03  0.00000000000E+00 0. -1.
        -13    1    3    3    0    0  0.66986178424E+02  0.51049197713E+02 -0.24489048537E+03  0.25896818050E+03  0.00000000000E+00 0.  1.
         22    1    1    2    0    0 -0.14598300519E+03 -0.30002776128E+03 -0.18127377752E+03  0.37972078921E+03  0.00000000000E+00 0. -1.
<mgrwt>
<rscale>  0 0.85707630E+03</rscale>
<asrwt>0</asrwt>
<pdfrwt beam="1">  1        2 0.22726735E+00 0.85707630E+03</pdfrwt>
<pdfrwt beam="2">  1       -2 0.19125607E-01 0.85707630E+03</pdfrwt>
<totfact> 0.30365394E+02</totfact>
</mgrwt>
</event>
<event>
 6    1  0.4630212E-004  0.2744280E+04  0.7818608E-02  0.8320779E-01
          2   -1    0    0  501    0  0.00000000000E+00  0.00000000000E+00  0.99210286106E+03  0.99210286106E+03  0.00000000000E+00 0.  1.
         -2   -1    0    0    0  501 -0.00000000000E+00 -0.00000000000E+00 -0.18977555981E+04  0.18977555981E+04  0.00000000000E+00 0. -1.
         23    2    1    2    0    0  0.76030977957E+03 -0.80200339151E+03 -0.13072812054E+04  0.17140243605E+04  0.87263723668E+02 0.  0.
         13    1    3    3    0    0  0.34466593240E+03 -0.38934962502E+03 -0.55349000101E+03  0.75943328652E+03  0.00000000000E+00 0.  1.
        -13    1    3    3    0    0  0.41564384717E+03 -0.41265376649E+03 -0.75379120440E+03  0.95459107398E+03  0.00000000000E+00 0. -1.
         22    1    1    2    0    0 -0.76030977957E+03  0.80200339151E+03  0.40162846839E+03  0.11758340986E+04  0.00000000000E+00 0. -1.
<mgrwt>
<rscale>  0 0.27442804E+04</rscale>
<asrwt>0</asrwt>
<pdfrwt beam="1">  1        2 0.15263121E+00 0.27442804E+04</pdfrwt>
<pdfrwt beam="2">  1       -2 0.29196239E+00 0.27442804E+04</pdfrwt>
<totfact> 0.79292875E-01</totfact>
</mgrwt>
</event>
<event>
 6    1  0.4630212E-004  0.6662259E+03  0.7818608E-02  0.9776800E-01
          2   -1    0    0  501    0  0.00000000000E+00  0.00000000000E+00  0.61031060153E+03  0.61031060153E+03  0.00000000000E+00 0.  1.
         -2   -1    0    0    0  501 -0.00000000000E+00 -0.00000000000E+00 -0.18181602845E+03  0.18181602845E+03  0.00000000000E+00 0. -1.
         23    2    1    2    0    0 -0.11686615282E+03  0.23388106358E+03  0.45360030360E+03  0.52947030077E+03  0.78914601908E+02 0.  0.
         13    1    3    3    0    0 -0.84886661072E+02  0.10076506417E+03  0.17503211333E+03  0.21907894486E+03  0.00000000000E+00 0.  1.
        -13    1    3    3    0    0 -0.31979491748E+02  0.13311599940E+03  0.27856819027E+03  0.31039135590E+03  0.00000000000E+00 0. -1.
         22    1    1    2    0    0  0.11686615282E+03 -0.23388106358E+03 -0.25105730516E+02  0.26265632922E+03  0.00000000000E+00 0. -1.
<mgrwt>
<rscale>  0 0.66622594E+03</rscale>
<asrwt>0</asrwt>
<pdfrwt beam="1">  1        2 0.93893938E-01 0.66622594E+03</pdfrwt>
<pdfrwt beam="2">  1       -2 0.27971697E-01 0.66622594E+03</pdfrwt>
<totfact> 0.57053023E+02</totfact>
</mgrwt>
</event>
<event>
 6    1  0.4630212E-004  0.4138402E+04  0.7818608E-02  0.7977194E-01
          2   -1    0    0  501    0  0.00000000000E+00  0.00000000000E+00  0.25033341430E+04  0.25033341430E+04  0.00000000000E+00 0.  1.
         -2   -1    0    0    0  501 -0.00000000000E+00 -0.00000000000E+00 -0.17103563624E+04  0.17103563624E+04  0.00000000000E+00 0. -1.
         23    2    1    2    0    0  0.13184874405E+04  0.14082004014E+04 -0.36251611155E+03  0.19650011903E+04  0.91510902211E+02 0.  0.
         11    1    3    3    0    0  0.75986023443E+03  0.77729437765E+03 -0.16461345860E+03  0.10993960688E+04  0.00000000000E+00 0. -1.
        -11    1    3    3    0    0  0.55862720612E+03  0.63090602377E+03 -0.19790265295E+03  0.86560512145E+03  0.00000000000E+00 0.  1.
         22    1    1    2    0    0 -0.13184874405E+04 -0.14082004014E+04  0.11554938921E+04  0.22486893152E+04  0.00000000000E+00 0.  1.
<mgrwt>
<rscale>  0 0.41384023E+04</rscale>
<asrwt>0</asrwt>
<pdfrwt beam="1">  1        2 0.38512833E+00 0.41384023E+04</pdfrwt>
<pdfrwt beam="2">  1       -2 0.26313175E+00 0.41384023E+04</pdfrwt>
<totfact> 0.14433686E-01</totfact>
</mgrwt>
</event>
<event>
 6    1  0.4630212E-004  0.1747451E+04  0.7818608E-02  0.8734754E-01
          2   -1    0    0  501    0  0.00000000000E+00  0.00000000000E+00  0.91209373531E+03  0.91209373531E+03  0.00000000000E+00 0.  1.
         -2   -1    0    0    0  501 -0.00000000000E+00 -0.00000000000E+00 -0.83697158147E+03  0.83697158147E+03  0.00000000000E+00 0. -1.
         23    2    1    2    0    0  0.29344631273E+03  0.57432477937E+03 -0.54870508947E+03  0.85178045669E+03  0.92157368239E+02 0.  0.
         11    1    3    3    0    0  0.56926393233E+02  0.95484713613E+02 -0.14279824298E+03  0.18096762964E+03  0.00000000000E+00 0. -1.
        -11    1    3    3    0    0  0.23651991950E+03  0.47884006576E+03 -0.40590684650E+03  0.67081282704E+03  0.00000000000E+00 0.  1.
         22    1    1    2    0    0 -0.29344631273E+03 -0.57432477937E+03  0.62382724331E+03  0.89728486009E+03  0.00000000000E+00 0.  1.
<mgrwt>
<rscale>  0 0.17474513E+04</rscale>
<asrwt>0</asrwt>
<pdfrwt beam="1">  1        2 0.14032211E+00 0.17474513E+04</pdfrwt>
<pdfrwt beam="2">  1       -2 0.12876486E+00 0.17474513E+04</pdfrwt>
<totfact> 0.12136471E+01</totfact>
</mgrwt>
</event>
<event>
 6    1  0.4630212E-004  0.6040334E+04  0.7818608E-02  0.7685421E-01
         -1   -1    0    0    0  501 -0.00000000000E+00  0.00000000000E+00  0.24172141130E+04  0.24172141130E+04  0.00000000000E+00 0. -1.
          1   -1    0    0  501    0  0.00000000000E+00 -0.00000000000E+00 -0.37735206647E+04  0.37735206647E+04  0.00000000000E+00 0.  1.
         23    2    1    2    0    0  0.20810858254E+04  0.18015075539E+04  0.59393709395E+03  0.28173391655E+04  0.91055051939E+02 0.  0.
         13    1    3    3    0    0  0.10272682952E+04  0.85540296531E+03  0.32689789501E+03  0.13761746318E+04  0.00000000000E+00 0. -1.
        -13    1    3    3    0    0  0.10538175302E+04  0.94610458859E+03  0.26703919894E+03  0.14411645337E+04  0.00000000000E+00 0.  1.
         22    1    1    2    0    0 -0.20810858254E+04 -0.18015075539E+04 -0.19502436456E+04  0.33733956122E+04  0.00000000000E+00 0.  1.
<mgrwt>
<rscale>  0 0.60403336E+04</rscale>
<asrwt>0</asrwt>
<pdfrwt beam="1">  1        1 0.58054164E+00 0.60403336E+04</pdfrwt>
<pdfrwt beam="2">  1       -1 0.37187909E+00 0.60403336E+04</pdfrwt>
<totfact> 0.11063718E-03</totfact>
</mgrwt>
</event>
<event>
 6    1  0.4630212E-004  0.2971969E+04  0.7818608E-02  0.8251781E-01
         -1   -1    0    0    0  501 -0.00000000000E+00  0.00000000000E+00  0.11942407971E+04  0.11942407971E+04  0.00000000000E+00 0. -1.
          1   -1    0    0  501    0  0.00000000000E+00 -0.00000000000E+00 -0.18489988555E+04  0.18489988555E+04  0.00000000000E+00 0.  1.
         23    2    1    2    0    0  0.10360019739E+03  0.61803464128E+03  0.10506063207E+04  0.12263831685E+04  0.86845933955E+02 0.  0.
         11    1    3    3    0    0  0.58957679373E+02  0.52395024275E+03  0.90459342930E+03  0.10470382692E+04  0.00000000000E+00 0. -1.
        -11    1    3    3    0    0  0.44642518017E+02  0.94084398530E+02  0.14601289137E+03  0.17934489931E+03  0.00000000000E+00 0.  1.
         22    1    1    2    0    0 -0.10360019739E+03 -0.61803464128E+03 -0.17053643791E+04  0.18168564842E+04  0.00000000000E+00 0.  1.
<mgrwt>
<rscale>  0 0.29719690E+04</rscale>
<asrwt>0</asrwt>
<pdfrwt beam="1">  1        1 0.28446136E+00 0.29719690E+04</pdfrwt>
<pdfrwt beam="2">  1       -1 0.18372935E+00 0.29719690E+04</pdfrwt>
<totfact> 0.62999046E-01</totfact>
</mgrwt>
</event>
<event>
 6    1  0.4630212E-004  0.1710019E+04  0.7818608E-02  0.8755671E-01
         -2   -1    0    0    0  501 -0.00000000000E+00  0.00000000000E+00  0.19885009156E+03  0.19885009156E+03  0.00000000000E+00 0. -1.
          2   -1    0    0  501    0  0.00000000000E+00 -0.00000000000E+00 -0.36763448003E+04  0.36763448003E+04  0.00000000000E+00 0.  1.
         23    2    1    2    0    0  0.42936176436E+03 -0.44745820265E+03 -0.41750532521E+03  0.75299928697E+03  0.90149108644E+02 0.  0.
         13    1    3    3    0    0  0.11157112100E+03 -0.97328531242E+02 -0.58018876978E+02  0.15901933254E+03  0.00000000000E+00 0.  1.
        -13    1    3    3    0    0  0.31779064335E+03 -0.35012967141E+03 -0.35948644823E+03  0.59397995443E+03  0.00000000000E+00 0. -1.
         22    1    1    2    0    0 -0.42936176436E+03  0.44745820265E+03 -0.30599893835E+04  0.31221956048E+04  0.00000000000E+00 0.  1.
<mgrwt>
<rscale>  0 0.17100193E+04</rscale>
<asrwt>0</asrwt>
<pdfrwt beam="1">  1        2 0.56559146E+00 0.17100193E+04</pdfrwt>
<pdfrwt beam="2">  1       -2 0.30592324E-01 0.17100193E+04</pdfrwt>
<totfact> 0.57805721E+00</totfact>
</mgrwt>
</event>
<event>
 6    1  0.4630212E-004  0.2392115E+04  0.7818608E-02  0.8442461E-01
          2   -1    0    0  501    0  0.00000000000E+00  0.00000000000E+00  0.11032063974E+04  0.11032063974E+04  0.00000000000E+00 0.  1.
         -2   -1    0    0    0  501 -0.00000000000E+00 -0.00000000000E+00 -0.12967233621E+04  0.12967233621E+04  0.00000000000E+00 0. -1.
         23    2    1    2    0    0  0.40712451405E+03  0.26970004280E+03 -0.11902602717E+04  0.12899812458E+04  0.94040506776E+02 0.  0.
         13    1    3    3    0    0  0.23548579296E+03  0.20346676648E+03 -0.68896313264E+03  0.75599105939E+03  0.00000000000E+00 0. -1.
        -13    1    3    3    0    0  0.17163872109E+03  0.66233276323E+02 -0.50129713909E+03  0.53399018636E+03  0.00000000000E+00 0.  1.
         22    1    1    2    0    0 -0.40712451405E+03 -0.26970004280E+03  0.99674330708E+03  0.11099485138E+04  0.00000000000E+00 0.  1.
<mgrwt>
<rscale>  0 0.23921150E+04</rscale>
<asrwt>0</asrwt>
<pdfrwt beam="1">  1        2 0.16972406E+00 0.23921150E+04</pdfrwt>
<pdfrwt beam="2">  1       -2 0.19949590E+00 0.23921150E+04</pdfrwt>
<totfact> 0.26149807E+00</totfact>
</mgrwt>
</event>
<event>
 6    1  0.4630212E-004  0.9436680E+03  0.7818608E-02  0.9372583E-01
          2   -1    0    0  501    0  0.00000000000E+00  0.00000000000E+00  0.12124323152E+03  0.12124323152E+03  0.00000000000E+00 0.  1.
         -2   -1    0    0    0  501 -0.00000000000E+00 -0.00000000000E+00 -0.18362040357E+04  0.18362040357E+04  0.00000000000E+00 0. -1.
         23    2    1    2    0    0  0.27678219719E+03 -0.21835336151E+03 -0.22909003404E+03  0.43032627637E+03  0.91716330475E+02 0.  0.
         13    1    3    3    0    0  0.86169213426E+02 -0.11201137593E+03 -0.12428623943E+03  0.18819870082E+03  0.00000000000E+00 0. -1.
        -13    1    3    3    0    0  0.19061298376E+03 -0.10634198558E+03 -0.10480379461E+03  0.24212757555E+03  0.00000000000E+00 0.  1.
         22    1    1    2    0    0 -0.27678219719E+03  0.21835336151E+03 -0.14858707701E+04  0.15271209908E+04  0.00000000000E+00 0. -1.
<mgrwt>
<rscale>  0 0.94366797E+03</rscale>
<asrwt>0</asrwt>
<pdfrwt beam="1">  1        2 0.18652806E-01 0.94366797E+03</pdfrwt>
<pdfrwt beam="2">  1       -2 0.28249291E+00 0.94366797E+03</pdfrwt>
<totfact> 0.12763424E+01</totfact>
</mgrwt>
</event>
<event>
 6    1  0.4630212E-004  0.3673575E+04  0.7818608E-02  0.8073843E-01
          2   -1    0    0  501    0  0.00000000000E+00  0.00000000000E+00  0.33006267614E+04  0.33006267614E+04  0.00000000000E+00 0.  1.
         -2   -1    0    0    0  501 -0.00000000000E+00 -0.00000000000E+00 -0.10221657354E+04  0.10221657354E+04  0.00000000000E+00 0. -1.
         23    2    1    2    0    0 -0.12389599507E+04  0.12392543091E+04  0.17832440467E+04  0.25018002237E+04  0.90950684990E+02 0.  0.
         13    1    3    3    0    0 -0.31999839739E+03  0.35380902545E+03  0.53258092296E+03  0.71499807015E+03  0.00000000000E+00 0.  1.
        -13    1    3    3    0    0 -0.91896155330E+03  0.88544528370E+03  0.12506631238E+04  0.17868021536E+04  0.00000000000E+00 0. -1.
         22    1    1    2    0    0  0.12389599507E+04 -0.12392543091E+04  0.49521697921E+03  0.18209922731E+04  0.00000000000E+00 0. -1.
<mgrwt>
<rscale>  0 0.36735746E+04</rscale>
<asrwt>0</asrwt>
<pdfrwt beam="1">  1        2 0.50778873E+00 0.36735746E+04</pdfrwt>
<pdfrwt beam="2">  1       -2 0.15725627E+00 0.36735746E+04</pdfrwt>
<totfact> 0.23771399E-01</totfact>
</mgrwt>
</event>
<event>
 6    1  0.4630212E-004  0.2467454E+04  0.7818608E-02  0.8414673E-01
          2   -1    0    0  501    0  0.00000000000E+00  0.00000000000E+00  0.22143920510E+04  0.22143920510E+04  0.00000000000E+00 0.  1.
         -2   -1    0    0    0  501 -0.00000000000E+00 -0.00000000000E+00 -0.68735926389E+03  0.68735926389E+03  0.00000000000E+00 0. -1.
         23    2    1    2    0    0  0.11971793106E+04  0.29048866147E+03  0.74444227081E+03  0.14422754225E+04  0.91335292890E+02 0.  0.
         13    1    3    3    0    0  0.37163223265E+03  0.86896288438E+02  0.28059220648E+03  0.47370187631E+03  0.00000000000E+00 0. -1.
        -13    1    3    3    0    0  0.82554707793E+03  0.20359237303E+03  0.46385006433E+03  0.96857354621E+03  0.00000000000E+00 0.  1.
         22    1    1    2    0    0 -0.11971793106E+04 -0.29048866147E+03  0.78259051626E+03  0.14594758923E+04  0.00000000000E+00 0. -1.
<mgrwt>
<rscale>  0 0.24674545E+04</rscale>
<asrwt>0</asrwt>
<pdfrwt beam="1">  1        2 0.34067570E+00 0.24674545E+04</pdfrwt>
<pdfrwt beam="2">  1       -2 0.10574758E+00 0.24674545E+04</pdfrwt>
<totfact> 0.32749459E+00</totfact>
</mgrwt>
</event>
<event>
 6    1  0.4630212E-004  0.2606420E+04  0.7818608E-02  0.8366024E-01
          2   -1    0    0  501    0  0.00000000000E+00  0.00000000000E+00  0.15864441389E+04  0.15864441389E+04  0.00000000000E+00 0.  1.
         -2   -1    0    0    0  501 -0.00000000000E+00 -0.00000000000E+00 -0.10705426900E+04  0.10705426900E+04  0.00000000000E+00 0. -1.
         23    2    1    2    0    0 -0.25824142930E+03 -0.65034673520E+03 -0.86064653689E+03  0.11127964685E+04  0.89241286045E+02 0.  0.
         11    1    3    3    0    0 -0.74124050098E+02 -0.24698777145E+03 -0.37592937796E+03  0.45587304292E+03  0.00000000000E+00 0. -1.
        -11    1    3    3    0    0 -0.18411737920E+03 -0.40335896376E+03 -0.48471715894E+03  0.65692342562E+03  0.00000000000E+00 0.  1.
         22    1    1    2    0    0  0.25824142930E+03  0.65034673520E+03  0.13765479858E+04  0.15441903603E+04  0.00000000000E+00 0.  1.
<mgrwt>
<rscale>  0 0.26064199E+04</rscale>
<asrwt>0</asrwt>
<pdfrwt beam="1">  1        2 0.24406833E+00 0.26064199E+04</pdfrwt>
<pdfrwt beam="2">  1       -2 0.16469888E+00 0.26064199E+04</pdfrwt>
<totfact> 0.23349852E+00</totfact>
</mgrwt>
</event>
<event>
 6    1  0.4630212E-004  0.1210134E+04  0.7818608E-02  0.9104033E-01
          2   -1    0    0  501    0  0.00000000000E+00  0.00000000000E+00  0.39972398877E+04  0.39972398877E+04  0.00000000000E+00 0.  1.
         -2   -1    0    0    0  501 -0.00000000000E+00 -0.00000000000E+00 -0.91589662227E+02  0.91589662227E+02  0.00000000000E+00 0. -1.
         23    2    1    2    0    0  0.91536315367E+02 -0.13260162069E+03  0.39224881140E+04  0.39268246076E+04  0.89868836127E+02 0.  0.
         11    1    3    3    0    0  0.81093184394E+02 -0.41883460721E+02  0.16791600458E+04  0.16816387211E+04  0.00000000000E+00 0.  1.
        -11    1    3    3    0    0  0.10443130974E+02 -0.90718159967E+02  0.22433280683E+04  0.22451858866E+04  0.00000000000E+00 0. -1.
         22    1    1    2    0    0 -0.91536315367E+02  0.13260162069E+03 -0.16837888531E+02  0.16200494230E+03  0.00000000000E+00 0. -1.
<mgrwt>
<rscale>  0 0.12101336E+04</rscale>
<asrwt>0</asrwt>
<pdfrwt beam="1">  1        2 0.61495985E+00 0.12101336E+04</pdfrwt>
<pdfrwt beam="2">  1       -2 0.14090720E-01 0.12101336E+04</pdfrwt>
<totfact> 0.13765383E+01</totfact>
</mgrwt>
</event>
<event>
 6    1  0.4630212E-004  0.1263365E+04  0.7818608E-02  0.9059132E-01
          2   -1    0    0  501    0  0.00000000000E+00  0.00000000000E+00  0.29391221299E+04  0.29391221299E+04  0.00000000000E+00 0.  1.
         -2   -1    0    0    0  501 -0.00000000000E+00 -0.00000000000E+00 -0.13576261492E+03  0.13576261492E+03  0.00000000000E+00 0. -1.
         23    2    1    2    0    0 -0.56702022268E+03 -0.11483770919E+03  0.20063412703E+04  0.20900305857E+04  0.90127265244E+02 0.  0.
         13    1    3    3    0    0 -0.20598935888E+03 -0.75949955388E+02  0.65860301629E+03  0.69423190992E+03  0.00000000000E+00 0.  1.
        -13    1    3    3    0    0 -0.36103086380E+03 -0.38887753800E+02  0.13477382540E+04  0.13957986757E+04  0.00000000000E+00 0. -1.
         22    1    1    2    0    0  0.56702022268E+03  0.11483770919E+03  0.79701824472E+03  0.98485415915E+03  0.00000000000E+00 0.  1.
<mgrwt>
<rscale>  0 0.12633652E+04</rscale>
<asrwt>0</asrwt>
<pdfrwt beam="1">  1        2 0.45217259E+00 0.12633652E+04</pdfrwt>
<pdfrwt beam="2">  1       -2 0.20886558E-01 0.12633652E+04</pdfrwt>
<totfact> 0.37395010E+01</totfact>
</mgrwt>
</event>
<event>
 6    1  0.4630212E-004  0.4543899E+04  0.7818608E-02  0.7902996E-01
         -2   -1    0    0    0  501 -0.00000000000E+00  0.00000000000E+00  0.22513283633E+04  0.22513283633E+04  0.00000000000E+00 0. -1.
          2   -1    0    0  501    0  0.00000000000E+00 -0.00000000000E+00 -0.22927599982E+04  0.22927599982E+04  0.00000000000E+00 0.  1.
         23    2    1    2    0    0 -0.67034803110E+03  0.21553930459E+04 -0.27147115881E+03  0.22751670655E+04  0.87194729481E+02 0.  0.
         11    1    3    3    0    0 -0.46927951724E+03  0.16233998189E+04 -0.18637686002E+03  0.17001136936E+04  0.00000000000E+00 0.  1.
        -11    1    3    3    0    0 -0.20106851386E+03  0.53199322700E+03 -0.85094298799E+02  0.57505337190E+03  0.00000000000E+00 0. -1.
         22    1    1    2    0    0  0.67034803110E+03 -0.21553930459E+04  0.23003952389E+03  0.22689212960E+04  0.00000000000E+00 0. -1.
<mgrwt>
<rscale>  0 0.45438995E+04</rscale>
<asrwt>0</asrwt>
<pdfrwt beam="1">  1        2 0.35273230E+00 0.45438995E+04</pdfrwt>
<pdfrwt beam="2">  1       -2 0.34635821E+00 0.45438995E+04</pdfrwt>
<totfact> 0.56678262E-02</totfact>
</mgrwt>
</event>
<event>
 6    1  0.4630212E-004  0.2737773E+04  0.7818608E-02  0.8322852E-01
          2   -1    0    0  501    0  0.00000000000E+00  0.00000000000E+00  0.23216080515E+04  0.23216080515E+04  0.00000000000E+00 0.  1.
         -2   -1    0    0    0  501 -0.00000000000E+00 -0.00000000000E+00 -0.80713437165E+03  0.80713437165E+03  0.00000000000E+00 0. -1.
         23    2    1    2    0    0  0.93220177691E+03 -0.14806862900E+03 -0.37373767304E+03  0.10177553116E+04  0.72260323489E+02 0.  0.
         11    1    3    3    0    0  0.13311117399E+03 -0.42088399265E+02 -0.39206089730E+02  0.14500736349E+03  0.00000000000E+00 0. -1.
        -11    1    3    3    0    0  0.79909060292E+03 -0.10598022973E+03 -0.33453158330E+03  0.87274794815E+03  0.00000000000E+00 0.  1.
         22    1    1    2    0    0 -0.93220177691E+03  0.14806862900E+03  0.18882113529E+04  0.21109871115E+04  0.00000000000E+00 0.  1.
<mgrwt>
<rscale>  0 0.27377726E+04</rscale>
<asrwt>0</asrwt>
<pdfrwt beam="1">  1        2 0.35717047E+00 0.27377726E+04</pdfrwt>
<pdfrwt beam="2">  1       -2 0.12417452E+00 0.27377726E+04</pdfrwt>
<totfact> 0.18789012E+00</totfact>
</mgrwt>
</event>
<event>
 6    1  0.4630212E-004  0.4771149E+04  0.7818608E-02  0.7864813E-01
         -2   -1    0    0    0  501 -0.00000000000E+00  0.00000000000E+00  0.16856302393E+04  0.16856302393E+04  0.00000000000E+00 0. -1.
          2   -1    0    0  501    0  0.00000000000E+00 -0.00000000000E+00 -0.33761647266E+04  0.33761647266E+04  0.00000000000E+00 0.  1.
         23    2    1    2    0    0  0.46740839796E+03  0.13879184797E+04  0.11509451219E+04  0.18651100133E+04  0.95772496852E+02 0.  0.
         13    1    3    3    0    0  0.26507807570E+03  0.89077333502E+03  0.68840048904E+03  0.11565633376E+04  0.00000000000E+00 0.  1.
        -13    1    3    3    0    0  0.20233032226E+03  0.49714514472E+03  0.46254463282E+03  0.70854667565E+03  0.00000000000E+00 0. -1.
         22    1    1    2    0    0 -0.46740839796E+03 -0.13879184797E+04 -0.28414796092E+04  0.31966849526E+04  0.00000000000E+00 0.  1.
<mgrwt>
<rscale>  0 0.47711489E+04</rscale>
<asrwt>0</asrwt>
<pdfrwt beam="1">  1        2 0.51940996E+00 0.47711489E+04</pdfrwt>
<pdfrwt beam="2">  1       -2 0.25932773E+00 0.47711489E+04</pdfrwt>
<totfact> 0.41265938E-02</totfact>
</mgrwt>
</event>
<event>
 6    1  0.4630212E-004  0.1204893E+04  0.7818608E-02  0.9108585E-01
         -2   -1    0    0    0  501 -0.00000000000E+00  0.00000000000E+00  0.17712906412E+03  0.17712906412E+03  0.00000000000E+00 0. -1.
          2   -1    0    0  501    0  0.00000000000E+00 -0.00000000000E+00 -0.20490228613E+04  0.20490228613E+04  0.00000000000E+00 0.  1.
         23    2    1    2    0    0 -0.38976056891E+03 -0.29498674766E+03 -0.30182772158E+03  0.58175599861E+03  0.91703795117E+02 0.  0.
         13    1    3    3    0    0 -0.12363084564E+03 -0.54174007725E+02 -0.11394866208E+03  0.17664570953E+03  0.00000000000E+00 0. -1.
        -13    1    3    3    0    0 -0.26612972327E+03 -0.24081273993E+03 -0.18787905951E+03  0.40511028908E+03  0.00000000000E+00 0.  1.
         22    1    1    2    0    0  0.38976056891E+03  0.29498674766E+03 -0.15700660756E+04  0.16443959269E+04  0.00000000000E+00 0.  1.
<mgrwt>
<rscale>  0 0.12048925E+04</rscale>
<asrwt>0</asrwt>
<pdfrwt beam="1">  1        2 0.31523428E+00 0.12048925E+04</pdfrwt>
<pdfrwt beam="2">  1       -2 0.27250625E-01 0.12048925E+04</pdfrwt>
<totfact> 0.75972088E+01</totfact>
</mgrwt>
</event>
<event>
 6    1  0.4630212E-004  0.1571227E+04  0.7818608E-02  0.8838422E-01
         -2   -1    0    0    0  501 -0.00000000000E+00  0.00000000000E+00  0.28246003204E+03  0.28246003204E+03  0.00000000000E+00 0. -1.
          2   -1    0    0  501    0  0.00000000000E+00 -0.00000000000E+00 -0.21850474056E+04  0.21850474056E+04  0.00000000000E+00 0.  1.
         23    2    1    2    0    0 -0.39817895713E+03 -0.47861486421E+03 -0.21481823054E+03  0.66856793053E+03  0.11496754069E+03 0.  0.
         13    1    3    3    0    0 -0.36397175091E+03 -0.41262518256E+03 -0.15088815374E+03  0.57052801130E+03  0.00000000000E+00 0. -1.
        -13    1    3    3    0    0 -0.34207206221E+02 -0.65989681657E+02 -0.63930076800E+02  0.98039919228E+02  0.00000000000E+00 0.  1.
         22    1    1    2    0    0  0.39817895713E+03  0.47861486421E+03 -0.16877691431E+04  0.17989395072E+04  0.00000000000E+00 0.  1.
<mgrwt>
<rscale>  0 0.15712270E+04</rscale>
<asrwt>0</asrwt>
<pdfrwt beam="1">  1        2 0.33616113E+00 0.15712270E+04</pdfrwt>
<pdfrwt beam="2">  1       -2 0.43455390E-01 0.15712270E+04</pdfrwt>
<totfact> 0.25426863E+01</totfact>
</mgrwt>
</event>
<event>
 6    1  0.4630212E-004  0.2701840E+04  0.7818608E-02  0.8334408E-01
          2   -1    0    0  501    0  0.00000000000E+00  0.00000000000E+00  0.35936931106E+04  0.35936931106E+04  0.00000000000E+00 0.  1.
         -2   -1    0    0    0  501 -0.00000000000E+00 -0.00000000000E+00 -0.50783007974E+03  0.50783007974E+03  0.00000000000E+00 0. -1.
         23    2    1    2    0    0  0.49218591345E+03 -0.44457681918E+03 -0.23940832729E+03  0.71075261024E+03  0.89204283727E+02 0.  0.
         11    1    3    3    0    0  0.14687083131E+03 -0.18469330734E+03 -0.65515200235E+02  0.24489773443E+03  0.00000000000E+00 0. -1.
        -11    1    3    3    0    0  0.34531508214E+03 -0.25988351183E+03 -0.17389312706E+03  0.46585487581E+03  0.00000000000E+00 0.  1.
         22    1    1    2    0    0 -0.49218591345E+03  0.44457681918E+03  0.33252713581E+04  0.33907705801E+04  0.00000000000E+00 0.  1.
<mgrwt>
<rscale>  0 0.27018405E+04</rscale>
<asrwt>0</asrwt>
<pdfrwt beam="1">  1        2 0.55287585E+00 0.27018405E+04</pdfrwt>
<pdfrwt beam="2">  1       -2 0.78127707E-01 0.27018405E+04</pdfrwt>
<totfact> 0.89241923E-01</totfact>
</mgrwt>
</event>
<event>
 6    1  0.4630212E-004  0.4412564E+04  0.7818608E-02  0.7926126E-01
         -2   -1    0    0    0  501 -0.00000000000E+00  0.00000000000E+00  0.23965921360E+04  0.23965921360E+04  0.00000000000E+00 0. -1.
          2   -1    0    0  501    0  0.00000000000E+00 -0.00000000000E+00 -0.20310844336E+04  0.20310844336E+04  0.00000000000E+00 0.  1.
         23    2    1    2    0    0 -0.17856823558E+04 -0.10071837800E+04  0.99850567220E+03  0.22820374872E+04  0.87182985035E+02 0.  0.
         13    1    3    3    0    0 -0.94037683592E+03 -0.48253945473E+03  0.52843982946E+03  0.11816943650E+04  0.00000000000E+00 0.  1.
        -13    1    3    3    0    0 -0.84530551985E+03 -0.52464432531E+03  0.47006584274E+03  0.11003431222E+04  0.00000000000E+00 0. -1.
         22    1    1    2    0    0  0.17856823558E+04  0.10071837800E+04 -0.63299796978E+03  0.21456390825E+04  0.00000000000E+00 0.  1.
<mgrwt>
<rscale>  0 0.44125643E+04</rscale>
<asrwt>0</asrwt>
<pdfrwt beam="1">  1        2 0.31247453E+00 0.44125643E+04</pdfrwt>
<pdfrwt beam="2">  1       -2 0.36870648E+00 0.44125643E+04</pdfrwt>
<totfact> 0.57967229E-02</totfact>
</mgrwt>
</event>
<event>
 6    1  0.4630212E-004  0.3742631E+04  0.7818608E-02  0.8058579E-01
          2   -1    0    0  501    0  0.00000000000E+00  0.00000000000E+00  0.16207695673E+04  0.16207695673E+04  0.00000000000E+00 0.  1.
         -2   -1    0    0    0  501 -0.00000000000E+00 -0.00000000000E+00 -0.21605921986E+04  0.21605921986E+04  0.00000000000E+00 0. -1.
         23    2    1    2    0    0  0.63648580775E+02  0.15913233756E+04  0.72035573396E+03  0.17504972358E+04  0.94694042467E+02 0.  0.
         13    1    3    3    0    0 -0.12976860189E+02  0.67294516977E+03  0.27726565617E+03  0.72794219860E+03  0.00000000000E+00 0.  1.
        -13    1    3    3    0    0  0.76625440964E+02  0.91837820583E+03  0.44309007779E+03  0.10225550372E+04  0.00000000000E+00 0. -1.
         22    1    1    2    0    0 -0.63648580775E+02 -0.15913233756E+04 -0.12601783653E+04  0.20308645302E+04  0.00000000000E+00 0. -1.
<mgrwt>
<rscale>  0 0.37426312E+04</rscale>
<asrwt>0</asrwt>
<pdfrwt beam="1">  1        2 0.24934917E+00 0.37426312E+04</pdfrwt>
<pdfrwt beam="2">  1       -2 0.33239880E+00 0.37426312E+04</pdfrwt>
<totfact> 0.17539118E-01</totfact>
</mgrwt>
</event>
<event>
 6    1  0.4630212E-004  0.2911023E+04  0.7818608E-02  0.8269605E-01
         -2   -1    0    0    0  501 -0.00000000000E+00  0.00000000000E+00  0.13295556543E+04  0.13295556543E+04  0.00000000000E+00 0. -1.
          2   -1    0    0  501    0  0.00000000000E+00 -0.00000000000E+00 -0.15933999801E+04  0.15933999801E+04  0.00000000000E+00 0.  1.
         23    2    1    2    0    0  0.54506900175E+03 -0.13158764501E+04 -0.42591415570E+03  0.14894642050E+04  0.92030980464E+02 0.  0.
         11    1    3    3    0    0  0.36481524218E+03 -0.98618923855E+03 -0.31022658180E+03  0.10963119571E+04  0.00000000000E+00 0.  1.
        -11    1    3    3    0    0  0.18025375957E+03 -0.32968721151E+03 -0.11568757390E+03  0.39315224790E+03  0.00000000000E+00 0. -1.
         22    1    1    2    0    0 -0.54506900175E+03  0.13158764501E+04  0.16206982983E+03  0.14334914294E+04  0.00000000000E+00 0. -1.
<mgrwt>
<rscale>  0 0.29110232E+04</rscale>
<asrwt>0</asrwt>
<pdfrwt beam="1">  1        2 0.24513846E+00 0.29110232E+04</pdfrwt>
<pdfrwt beam="2">  1       -2 0.20454702E+00 0.29110232E+04</pdfrwt>
<totfact> 0.12046542E+00</totfact>
</mgrwt>
</event>
<event>
 6    1  0.4630212E-004  0.3501182E+04  0.7818608E-02  0.8113510E-01
         -2   -1    0    0    0  501 -0.00000000000E+00  0.00000000000E+00  0.33544322320E+04  0.33544322320E+04  0.00000000000E+00 0. -1.
          2   -1    0    0  501    0  0.00000000000E+00 -0.00000000000E+00 -0.91358771663E+03  0.91358771663E+03  0.00000000000E+00 0.  1.
         23    2    1    2    0    0 -0.46741002205E+03  0.81357666713E+03  0.30211374951E+04  0.31647887560E+04  0.90757831022E+02 0.  0.
         11    1    3    3    0    0 -0.10622939743E+03  0.24427517439E+03  0.95327141578E+03  0.98978858240E+03  0.00000000000E+00 0. -1.
        -11    1    3    3    0    0 -0.36118062461E+03  0.56930149274E+03  0.20678660793E+04  0.21750001736E+04  0.00000000000E+00 0.  1.
         22    1    1    2    0    0  0.46741002205E+03 -0.81357666713E+03 -0.58029297973E+03  0.11032311926E+04  0.00000000000E+00 0.  1.
<mgrwt>
<rscale>  0 0.35011816E+04</rscale>
<asrwt>0</asrwt>
<pdfrwt beam="1">  1        2 0.14055196E+00 0.35011816E+04</pdfrwt>
<pdfrwt beam="2">  1       -2 0.51606649E+00 0.35011816E+04</pdfrwt>
<totfact> 0.31027365E-02</totfact>
</mgrwt>
</event>
<event>
 6    1  0.4630212E-004  0.1080725E+04  0.7818608E-02  0.9224185E-01
         -1   -1    0    0    0  501 -0.00000000000E+00  0.00000000000E+00  0.11789560204E+04  0.11789560204E+04  0.00000000000E+00 0. -1.
          1   -1    0    0  501    0  0.00000000000E+00 -0.00000000000E+00 -0.24766943936E+03  0.24766943936E+03  0.00000000000E+00 0.  1.
         23    2    1    2    0    0  0.19854280913E+03 -0.23824143475E+03  0.10469440661E+04  0.10956347013E+04  0.90251276589E+02 0.  0.
         13    1    3    3    0    0  0.87151126227E+02 -0.43027410147E+02  0.35771761134E+03  0.37068661466E+03  0.00000000000E+00 0. -1.
        -13    1    3    3    0    0  0.11139168290E+03 -0.19521402460E+03  0.68922645475E+03  0.72494808666E+03  0.00000000000E+00 0.  1.
         22    1    1    2    0    0 -0.19854280913E+03  0.23824143475E+03 -0.11565748509E+03  0.33099075840E+03  0.00000000000E+00 0.  1.
<mgrwt>
<rscale>  0 0.10807245E+04</rscale>
<asrwt>0</asrwt>
<pdfrwt beam="1">  1        1 0.38102991E-01 0.10807245E+04</pdfrwt>
<pdfrwt beam="2">  1       -1 0.18137785E+00 0.10807245E+04</pdfrwt>
<totfact> 0.22858175E+01</totfact>
</mgrwt>
</event>
<event>
 6    1  0.4630212E-004  0.1721174E+04  0.7818608E-02  0.8749380E-01
         -2   -1    0    0    0  501 -0.00000000000E+00  0.00000000000E+00  0.20715358957E+04  0.20715358957E+04  0.00000000000E+00 0. -1.
          2   -1    0    0  501    0  0.00000000000E+00 -0.00000000000E+00 -0.35751719132E+03  0.35751719132E+03  0.00000000000E+00 0.  1.
         23    2    1    2    0    0  0.34043502678E+03 -0.31366048685E+02 -0.25118418691E+03  0.43433450025E+03  0.93129618739E+02 0.  0.
         11    1    3    3    0    0  0.49844642188E+02  0.23100062954E+02 -0.64287871950E+02  0.84563773232E+02  0.00000000000E+00 0. -1.
        -11    1    3    3    0    0  0.29059038459E+03 -0.54466111639E+02 -0.18689631496E+03  0.34977072702E+03  0.00000000000E+00 0.  1.
         22    1    1    2    0    0 -0.34043502678E+03  0.31366048685E+02  0.19652028913E+04  0.19947185868E+04  0.00000000000E+00 0. -1.
<mgrwt>
<rscale>  0 0.17211737E+04</rscale>
<asrwt>0</asrwt>
<pdfrwt beam="1">  1        2 0.55002646E-01 0.17211737E+04</pdfrwt>
<pdfrwt beam="2">  1       -2 0.31869782E+00 0.17211737E+04</pdfrwt>
<totfact> 0.20971602E+00</totfact>
</mgrwt>
</event>
<event>
 6    1  0.4630212E-004  0.2437010E+04  0.7818608E-02  0.8425776E-01
          2   -1    0    0  501    0  0.00000000000E+00  0.00000000000E+00  0.18392774840E+04  0.18392774840E+04  0.00000000000E+00 0.  1.
         -2   -1    0    0    0  501 -0.00000000000E+00 -0.00000000000E+00 -0.80724892995E+03  0.80724892995E+03  0.00000000000E+00 0. -1.
         23    2    1    2    0    0 -0.12013586964E+04 -0.70769643032E+02  0.32122540734E+03  0.12488454156E+04  0.90321924161E+02 0.  0.
         11    1    3    3    0    0 -0.50620307491E+03 -0.17720743473E+02  0.17972527965E+03  0.53745395519E+03  0.00000000000E+00 0.  1.
        -11    1    3    3    0    0 -0.69515562148E+03 -0.53048899559E+02  0.14150012768E+03  0.71139146042E+03  0.00000000000E+00 0. -1.
         22    1    1    2    0    0  0.12013586964E+04  0.70769643032E+02  0.71080314672E+03  0.13976809984E+04  0.00000000000E+00 0. -1.
<mgrwt>
<rscale>  0 0.24370103E+04</rscale>
<asrwt>0</asrwt>
<pdfrwt beam="1">  1        2 0.28296577E+00 0.24370103E+04</pdfrwt>
<pdfrwt beam="2">  1       -2 0.12419214E+00 0.24370103E+04</pdfrwt>
<totfact> 0.35856948E+00</totfact>
</mgrwt>
</event>
<event>
 6    1  0.4630212E-004  0.1878599E+04  0.7818608E-02  0.8665583E-01
         -2   -1    0    0    0  501 -0.00000000000E+00  0.00000000000E+00  0.47915021757E+03  0.47915021757E+03  0.00000000000E+00 0. -1.
          2   -1    0    0  501    0  0.00000000000E+00 -0.00000000000E+00 -0.18413506049E+04  0.18413506049E+04  0.00000000000E+00 0.  1.
         23    2    1    2    0    0 -0.68939612417E+03 -0.26074296142E+03  0.31806718892E+02  0.74363376399E+03  0.93410918097E+02 0.  0.
         13    1    3    3    0    0 -0.32343895110E+03 -0.88106519936E+02 -0.19333859700E+02  0.33578164344E+03  0.00000000000E+00 0.  1.
        -13    1    3    3    0    0 -0.36595717307E+03 -0.17263644148E+03  0.51140578592E+02  0.40785212054E+03  0.00000000000E+00 0. -1.
         22    1    1    2    0    0  0.68939612417E+03  0.26074296142E+03 -0.13940071062E+04  0.15768670585E+04  0.00000000000E+00 0.  1.
<mgrwt>
<rscale>  0 0.18785990E+04</rscale>
<asrwt>0</asrwt>
<pdfrwt beam="1">  1        2 0.28328471E+00 0.18785990E+04</pdfrwt>
<pdfrwt beam="2">  1       -2 0.73715418E-01 0.18785990E+04</pdfrwt>
<totfact> 0.12738131E+01</totfact>
</mgrwt>
</event>
<event>
 6    1  0.4630212E-004  0.1645801E+04  0.7818608E-02  0.8792895E-01
          2   -1    0    0  501    0  0.00000000000E+00  0.00000000000E+00  0.17402842969E+04  0.17402842969E+04  0.00000000000E+00 0.  1.
         -2   -1    0    0    0  501 -0.00000000000E+00 -0.00000000000E+00 -0.38911167272E+03  0.38911167272E+03  0.00000000000E+00 0. -1.
         23    2    1    2    0    0  0.73204798322E+03 -0.30611580812E+03  0.40694202094E+03  0.89603772085E+03  0.87639323686E+02 0.  0.
         13    1    3    3    0    0  0.38262766681E+03 -0.11507566442E+03  0.18784467068E+03  0.44151099675E+03  0.00000000000E+00 0.  1.
        -13    1    3    3    0    0  0.34942031641E+03 -0.19104014370E+03  0.21909735026E+03  0.45452672409E+03  0.00000000000E+00 0. -1.
         22    1    1    2    0    0 -0.73204798322E+03  0.30611580812E+03  0.94423060319E+03  0.12333582487E+04  0.00000000000E+00 0.  1.
<mgrwt>
<rscale>  0 0.16458006E+04</rscale>
<asrwt>0</asrwt>
<pdfrwt beam="1">  1        2 0.26773604E+00 0.16458006E+04</pdfrwt>
<pdfrwt beam="2">  1       -2 0.59863335E-01 0.16458006E+04</pdfrwt>
<totfact> 0.23159268E+01</totfact>
</mgrwt>
</event>
<event>
 6    1  0.4630212E-004  0.2161014E+04  0.7818608E-02  0.8534833E-01
          2   -1    0    0  501    0  0.00000000000E+00  0.00000000000E+00  0.18270638694E+04  0.18270638694E+04  0.00000000000E+00 0.  1.
         -2   -1    0    0    0  501 -0.00000000000E+00 -0.00000000000E+00 -0.63900064604E+03  0.63900064604E+03  0.00000000000E+00 0. -1.
         23    2    1    2    0    0  0.84849007171E+02 -0.74477709808E+03 -0.28993347579E+03  0.80884801705E+03  0.91002277283E+02 0.  0.
         11    1    3    3    0    0 -0.21468812376E+01 -0.32149503929E+03 -0.14869189410E+03  0.35422160967E+03  0.00000000000E+00 0.  1.
        -11    1    3    3    0    0  0.86995888409E+02 -0.42328205879E+03 -0.14124158168E+03  0.45462640738E+03  0.00000000000E+00 0. -1.
         22    1    1    2    0    0 -0.84849007171E+02  0.74477709808E+03  0.14779966992E+04  0.16572164984E+04  0.00000000000E+00 0.  1.
<mgrwt>
<rscale>  0 0.21610136E+04</rscale>
<asrwt>0</asrwt>
<pdfrwt beam="1">  1        2 0.28108675E+00 0.21610136E+04</pdfrwt>
<pdfrwt beam="2">  1       -2 0.98307793E-01 0.21610136E+04</pdfrwt>
<totfact> 0.65732781E+00</totfact>
</mgrwt>
</event>
<event>
 6    1  0.4630212E-004  0.5060238E+03  0.7818608E-02  0.1012218E+00
         -2   -1    0    0    0  501 -0.00000000000E+00  0.00000000000E+00  0.91337481937E+02  0.91337481937E+02  0.00000000000E+00 0. -1.
          2   -1    0    0  501    0  0.00000000000E+00 -0.00000000000E+00 -0.70086265315E+03  0.70086265315E+03  0.00000000000E+00 0.  1.
         23    2    1    2    0    0 -0.17319288973E+03  0.75511747809E+02 -0.55856995946E+03  0.59651100735E+03  0.90150880031E+02 0.  0.
         11    1    3    3    0    0 -0.69928931550E+02  0.60374011513E+02 -0.36597069288E+03  0.37745148666E+03  0.00000000000E+00 0.  1.
        -11    1    3    3    0    0 -0.10326395818E+03  0.15137736295E+02 -0.19259926658E+03  0.21905952069E+03  0.00000000000E+00 0. -1.
         22    1    1    2    0    0  0.17319288973E+03 -0.75511747809E+02 -0.50955211755E+02  0.19568912774E+03  0.00000000000E+00 0. -1.
<mgrwt>
<rscale>  0 0.50602383E+03</rscale>
<asrwt>0</asrwt>
<pdfrwt beam="1">  1        2 0.10782502E+00 0.50602383E+03</pdfrwt>
<pdfrwt beam="2">  1       -2 0.14051920E-01 0.50602383E+03</pdfrwt>
<totfact> 0.16021880E+03</totfact>
</mgrwt>
</event>
<event>
 6    1  0.4630212E-004  0.1704163E+04  0.7818608E-02  0.8758993E-01
          2   -1    0    0  501    0  0.00000000000E+00  0.00000000000E+00  0.21433017017E+04  0.21433017017E+04  0.00000000000E+00 0.  1.
         -2   -1    0    0    0  501 -0.00000000000E+00 -0.00000000000E+00 -0.33874986558E+03  0.33874986558E+03  0.00000000000E+00 0. -1.
         23    2    1    2    0    0 -0.77550840064E+03 -0.34412335544E+03  0.83772260587E+03  0.11957417587E+04  0.90471132717E+02 0.  0.
         13    1    3    3    0    0 -0.12081622060E+03 -0.90793726853E+02  0.15598860720E+03  0.21719232392E+03  0.00000000000E+00 0. -1.
        -13    1    3    3    0    0 -0.65469218004E+03 -0.25332962858E+03  0.68173399868E+03  0.97854943476E+03  0.00000000000E+00 0.  1.
         22    1    1    2    0    0  0.77550840064E+03  0.34412335544E+03  0.96682923020E+03  0.12863098086E+04  0.00000000000E+00 0. -1.
<mgrwt>
<rscale>  0 0.17041633E+04</rscale>
<asrwt>0</asrwt>
<pdfrwt beam="1">  1        2 0.32973871E+00 0.17041633E+04</pdfrwt>
<pdfrwt beam="2">  1       -2 0.52115365E-01 0.17041633E+04</pdfrwt>
<totfact> 0.18379675E+01</totfact>
</mgrwt>
</event>
<event>
 6    1  0.4630212E-004  0.4670551E+04  0.7818608E-02  0.7881440E-01
         -2   -1    0    0    0  501 -0.00000000000E+00  0.00000000000E+00  0.22573200461E+04  0.22573200461E+04  0.00000000000E+00 0. -1.
          2   -1    0    0  501    0  0.00000000000E+00 -0.00000000000E+00 -0.24159228149E+04  0.24159228149E+04  0.00000000000E+00 0.  1.
         23    2    1    2    0    0  0.13705382012E+04  0.91080644742E+03 -0.17360360992E+04  0.23937167573E+04  0.90084576175E+02 0.  0.
         13    1    3    3    0    0  0.12997130780E+04  0.83983537249E+03 -0.16417051892E+04  0.22560526293E+04  0.00000000000E+00 0.  1.
        -13    1    3    3    0    0  0.70825123249E+02  0.70971074928E+02 -0.94330909952E+02  0.13766412798E+03  0.00000000000E+00 0. -1.
         22    1    1    2    0    0 -0.13705382012E+04 -0.91080644742E+03  0.15774333304E+04  0.22795261037E+04  0.00000000000E+00 0. -1.
<mgrwt>
<rscale>  0 0.46705507E+04</rscale>
<asrwt>0</asrwt>
<pdfrwt beam="1">  1        2 0.37168043E+00 0.46705507E+04</pdfrwt>
<pdfrwt beam="2">  1       -2 0.34728001E+00 0.46705507E+04</pdfrwt>
<totfact> 0.47085737E-02</totfact>
</mgrwt>
</event>
<event>
 6    1  0.4630212E-004  0.4673968E+04  0.7818608E-02  0.7880868E-01
         -2   -1    0    0    0  501 -0.00000000000E+00  0.00000000000E+00  0.13496706783E+04  0.13496706783E+04  0.00000000000E+00 0. -1.
          2   -1    0    0  501    0  0.00000000000E+00 -0.00000000000E+00 -0.40465377629E+04  0.40465377629E+04  0.00000000000E+00 0.  1.
         23    2    1    2    0    0 -0.72025045121E+03  0.14306325656E+03  0.12114132777E+04  0.14195410930E+04  0.91361793215E+02 0.  0.
         11    1    3    3    0    0 -0.31961639004E+03  0.51292522879E+02  0.61869324845E+03  0.69825990531E+03  0.00000000000E+00 0. -1.
        -11    1    3    3    0    0 -0.40063406117E+03  0.91770733685E+02  0.59272002928E+03  0.72128118764E+03  0.00000000000E+00 0.  1.
         22    1    1    2    0    0  0.72025045121E+03 -0.14306325656E+03 -0.39082803623E+04  0.39766673482E+04  0.00000000000E+00 0.  1.
<mgrwt>
<rscale>  0 0.46739676E+04</rscale>
<asrwt>0</asrwt>
<pdfrwt beam="1">  1        2 0.62254426E+00 0.46739676E+04</pdfrwt>
<pdfrwt beam="2">  1       -2 0.20764165E+00 0.46739676E+04</pdfrwt>
<totfact> 0.27643047E-02</totfact>
</mgrwt>
</event>
<event>
 6    1  0.4630212E-004  0.1869157E+04  0.7818608E-02  0.8670363E-01
         -2   -1    0    0    0  501 -0.00000000000E+00  0.00000000000E+00  0.15046983117E+04  0.15046983117E+04  0.00000000000E+00 0. -1.
          2   -1    0    0  501    0  0.00000000000E+00 -0.00000000000E+00 -0.58047311537E+03  0.58047311537E+03  0.00000000000E+00 0.  1.
         23    2    1    2    0    0  0.68557649000E+02 -0.34506154083E+03  0.14264019364E+04  0.14720245472E+04  0.92011766257E+02 0.  0.
         11    1    3    3    0    0  0.64968329546E+02 -0.11905488077E+03  0.46262265975E+03  0.48209405078E+03  0.00000000000E+00 0. -1.
        -11    1    3    3    0    0  0.35893194533E+01 -0.22600666006E+03  0.96377927663E+03  0.98993049639E+03  0.00000000000E+00 0.  1.
         22    1    1    2    0    0 -0.68557649000E+02  0.34506154083E+03 -0.50217674001E+03  0.61314687996E+03  0.00000000000E+00 0.  1.
<mgrwt>
<rscale>  0 0.18691569E+04</rscale>
<asrwt>0</asrwt>
<pdfrwt beam="1">  1        2 0.89303557E-01 0.18691569E+04</pdfrwt>
<pdfrwt beam="2">  1       -2 0.23149205E+00 0.18691569E+04</pdfrwt>
<totfact> 0.40532993E+00</totfact>
</mgrwt>
</event>
<event>
 6    1  0.4630212E-004  0.2007876E+04  0.7818608E-02  0.8602947E-01
         -2   -1    0    0    0  501 -0.00000000000E+00  0.00000000000E+00  0.67463276531E+03  0.67463276531E+03  0.00000000000E+00 0. -1.
          2   -1    0    0  501    0  0.00000000000E+00 -0.00000000000E+00 -0.14939855195E+04  0.14939855195E+04  0.00000000000E+00 0.  1.
         23    2    1    2    0    0 -0.62242728406E+03 -0.54442162774E+02 -0.12567209482E+04  0.14059449537E+04  0.83390635481E+02 0.  0.
         11    1    3    3    0    0 -0.92800039072E+02  0.18001446930E+02 -0.22234175268E+03  0.24160247169E+03  0.00000000000E+00 0.  1.
        -11    1    3    3    0    0 -0.52962724499E+03 -0.72443609704E+02 -0.10343791955E+04  0.11643424820E+04  0.00000000000E+00 0. -1.
         22    1    1    2    0    0  0.62242728406E+03  0.54442162774E+02  0.43736819396E+03  0.76267333120E+03  0.00000000000E+00 0. -1.
<mgrwt>
<rscale>  0 0.20078761E+04</rscale>
<asrwt>0</asrwt>
<pdfrwt beam="1">  1        2 0.22984393E+00 0.20078761E+04</pdfrwt>
<pdfrwt beam="2">  1       -2 0.10378966E+00 0.20078761E+04</pdfrwt>
<totfact> 0.89791556E+00</totfact>
</mgrwt>
</event>
<event>
 6    1  0.4630212E-004  0.1422421E+04  0.7818608E-02  0.8937747E-01
          2   -1    0    0  501    0  0.00000000000E+00  0.00000000000E+00  0.86270532069E+03  0.86270532069E+03  0.00000000000E+00 0.  1.
         -2   -1    0    0    0  501 -0.00000000000E+00 -0.00000000000E+00 -0.58631890360E+03  0.58631890360E+03  0.00000000000E+00 0. -1.
         23    2    1    2    0    0 -0.22289108989E+03  0.47625459781E+03 -0.34320321057E+03  0.63638027607E+03  0.10340470075E+03 0.  0.
         11    1    3    3    0    0 -0.47317653418E+02  0.19320580195E+03 -0.91826845781E+02  0.21908813715E+03  0.00000000000E+00 0.  1.
        -11    1    3    3    0    0 -0.17557343647E+03  0.28304879586E+03 -0.25137636479E+03  0.41729213892E+03  0.00000000000E+00 0. -1.
         22    1    1    2    0    0  0.22289108989E+03 -0.47625459781E+03  0.61958962766E+03  0.81264394822E+03  0.00000000000E+00 0.  1.
<mgrwt>
<rscale>  0 0.14224211E+04</rscale>
<asrwt>0</asrwt>
<pdfrwt beam="1">  1        2 0.13272390E+00 0.14224211E+04</pdfrwt>
<pdfrwt beam="2">  1       -2 0.90202908E-01 0.14224211E+04</pdfrwt>
<totfact> 0.31780509E+01</totfact>
</mgrwt>
</event>
<event>
 6    1  0.4630212E-004  0.3772904E+04  0.7818608E-02  0.8051995E-01
          2   -1    0    0  501    0  0.00000000000E+00  0.00000000000E+00  0.19437154815E+04  0.19437154815E+04  0.00000000000E+00 0.  1.
         -2   -1    0    0    0  501 -0.00000000000E+00 -0.00000000000E+00 -0.18308757358E+04  0.18308757358E+04  0.00000000000E+00 0. -1.
         23    2    1    2    0    0  0.13770491119E+04  0.67752523160E+03  0.11520595020E+04  0.19211397349E+04  0.90730859870E+02 0.  0.
         11    1    3    3    0    0  0.53679548598E+03  0.22244549823E+03  0.46475763329E+03  0.74406387572E+03  0.00000000000E+00 0.  1.
        -11    1    3    3    0    0  0.84025362590E+03  0.45507973337E+03  0.68730186869E+03  0.11770758592E+04  0.00000000000E+00 0. -1.
         22    1    1    2    0    0 -0.13770491119E+04 -0.67752523160E+03 -0.10392197562E+04  0.18534514824E+04  0.00000000000E+00 0. -1.
<mgrwt>
<rscale>  0 0.37729042E+04</rscale>
<asrwt>0</asrwt>
<pdfrwt beam="1">  1        2 0.29903315E+00 0.37729042E+04</pdfrwt>
<pdfrwt beam="2">  1       -2 0.28167319E+00 0.37729042E+04</pdfrwt>
<totfact> 0.23736413E-01</totfact>
</mgrwt>
</event>
<event>
 6    1  0.4630212E-004  0.4007872E+03  0.7818608E-02  0.1043507E+00
         -2   -1    0    0    0  501 -0.00000000000E+00  0.00000000000E+00  0.84887808083E+03  0.84887808083E+03  0.00000000000E+00 0. -1.
          2   -1    0    0  501    0  0.00000000000E+00 -0.00000000000E+00 -0.47306678605E+02  0.47306678605E+02  0.00000000000E+00 0.  1.
         23    2    1    2    0    0  0.16371176819E+03  0.76308147296E+02  0.55143748306E+03  0.58765363637E+03  0.92892530466E+02 0.  0.
         11    1    3    3    0    0  0.14768556602E+03  0.95129671094E+02  0.44584328048E+03  0.47920445687E+03  0.00000000000E+00 0.  1.
        -11    1    3    3    0    0  0.16026202170E+02 -0.18821523798E+02  0.10559420258E+03  0.10844917949E+03  0.00000000000E+00 0. -1.
         22    1    1    2    0    0 -0.16371176819E+03 -0.76308147296E+02  0.25013391917E+03  0.30853112307E+03  0.00000000000E+00 0.  1.
<mgrwt>
<rscale>  0 0.40078724E+03</rscale>
<asrwt>0</asrwt>
<pdfrwt beam="1">  1        2 0.72779512E-02 0.40078724E+03</pdfrwt>
<pdfrwt beam="2">  1       -2 0.13059662E+00 0.40078724E+03</pdfrwt>
<totfact> 0.43496497E+02</totfact>
</mgrwt>
</event>
<event>
 6    1  0.4630212E-004  0.1910272E+04  0.7818608E-02  0.8649760E-01
         -2   -1    0    0    0  501 -0.00000000000E+00  0.00000000000E+00  0.31643422404E+03  0.31643422404E+03  0.00000000000E+00 0. -1.
          2   -1    0    0  501    0  0.00000000000E+00 -0.00000000000E+00 -0.28830153785E+04  0.28830153785E+04  0.00000000000E+00 0.  1.
         23    2    1    2    0    0  0.68079058619E+02  0.10509226626E+03 -0.28684747569E+04  0.28726180101E+04  0.90042536662E+02 0.  0.
         11    1    3    3    0    0 -0.17474081830E+02 -0.13496483728E+01 -0.36739581489E+03  0.36781360753E+03  0.00000000000E+00 0. -1.
        -11    1    3    3    0    0  0.85553140449E+02  0.10644191463E+03 -0.25010789420E+04  0.25048044026E+04  0.00000000000E+00 0.  1.
         22    1    1    2    0    0 -0.68079058619E+02 -0.10509226626E+03  0.30189360241E+03  0.32683159246E+03  0.00000000000E+00 0. -1.
<mgrwt>
<rscale>  0 0.19102720E+04</rscale>
<asrwt>0</asrwt>
<pdfrwt beam="1">  1        2 0.44354083E+00 0.19102720E+04</pdfrwt>
<pdfrwt beam="2">  1       -2 0.48682188E-01 0.19102720E+04</pdfrwt>
<totfact> 0.77137040E+00</totfact>
</mgrwt>
</event>
<event>
 6    1  0.4630212E-004  0.3834283E+04  0.7818608E-02  0.8038838E-01
          2   -1    0    0  501    0  0.00000000000E+00  0.00000000000E+00  0.38321357049E+04  0.38321357049E+04  0.00000000000E+00 0.  1.
         -2   -1    0    0    0  501 -0.00000000000E+00 -0.00000000000E+00 -0.95910795133E+03  0.95910795133E+03  0.00000000000E+00 0. -1.
         23    2    1    2    0    0  0.17218400588E+04  0.29146243194E+03  0.45211696604E+03  0.18061988360E+04  0.90889750919E+02 0.  0.
         11    1    3    3    0    0  0.37882216964E+03  0.27614158960E+02  0.10893763376E+03  0.39514071675E+03  0.00000000000E+00 0.  1.
        -11    1    3    3    0    0  0.13430178892E+04  0.26384827298E+03  0.34317933228E+03  0.14110581193E+04  0.00000000000E+00 0. -1.
         22    1    1    2    0    0 -0.17218400588E+04 -0.29146243194E+03  0.24209107876E+04  0.29850448202E+04  0.00000000000E+00 0.  1.
<mgrwt>
<rscale>  0 0.38342832E+04</rscale>
<asrwt>0</asrwt>
<pdfrwt beam="1">  1        2 0.58955933E+00 0.38342832E+04</pdfrwt>
<pdfrwt beam="2">  1       -2 0.14755507E+00 0.38342832E+04</pdfrwt>
<totfact> 0.11580044E-01</totfact>
</mgrwt>
</event>
<event>
 6    1  0.4630212E-004  0.4237987E+04  0.7818608E-02  0.7958185E-01
          2   -1    0    0  501    0  0.00000000000E+00  0.00000000000E+00  0.34834114442E+04  0.34834114442E+04  0.00000000000E+00 0.  1.
         -2   -1    0    0    0  501 -0.00000000000E+00 -0.00000000000E+00 -0.12890047915E+04  0.12890047915E+04  0.00000000000E+00 0. -1.
         23    2    1    2    0    0 -0.38741642669E+03 -0.11045222609E+03  0.34392821089E+04  0.34639797323E+04  0.90570299204E+02 0.  0.
         13    1    3    3    0    0 -0.32918791916E+03 -0.66074985408E+02  0.26182748639E+04  0.26397147294E+04  0.00000000000E+00 0.  1.
        -13    1    3    3    0    0 -0.58228507527E+02 -0.44377240680E+02  0.82100724502E+03  0.82426500287E+03  0.00000000000E+00 0. -1.
         22    1    1    2    0    0  0.38741642669E+03  0.11045222609E+03 -0.12448754563E+04  0.13084365034E+04  0.00000000000E+00 0. -1.
<mgrwt>
<rscale>  0 0.42379873E+04</rscale>
<asrwt>0</asrwt>
<pdfrwt beam="1">  1        2 0.53590945E+00 0.42379873E+04</pdfrwt>
<pdfrwt beam="2">  1       -2 0.19830843E+00 0.42379873E+04</pdfrwt>
<totfact> 0.88016467E-02</totfact>
</mgrwt>
</event>
<event>
 6    1  0.4630212E-004  0.2715004E+04  0.7818608E-02  0.8330153E-01
          1   -1    0    0  501    0  0.00000000000E+00  0.00000000000E+00  0.22535893791E+04  0.22535893791E+04  0.00000000000E+00 0.  1.
         -1   -1    0    0    0  501 -0.00000000000E+00 -0.00000000000E+00 -0.81772307897E+03  0.81772307897E+03  0.00000000000E+00 0. -1.
         23    2    1    2    0    0  0.65826976426E+03  0.11669458413E+04  0.48279900734E+03  0.14271047633E+04  0.91931739882E+02 0.  0.
         11    1    3    3    0    0  0.15121024880E+03  0.32283186506E+03  0.96300048679E+02  0.36926772376E+03  0.00000000000E+00 0. -1.
        -11    1    3    3    0    0  0.50705951547E+03  0.84411397624E+03  0.38649895866E+03  0.10578370395E+04  0.00000000000E+00 0.  1.
         22    1    1    2    0    0 -0.65826976426E+03 -0.11669458413E+04  0.95306729280E+03  0.16442076948E+04  0.00000000000E+00 0. -1.
<mgrwt>
<rscale>  0 0.27150043E+04</rscale>
<asrwt>0</asrwt>
<pdfrwt beam="1">  1        1 0.34670606E+00 0.27150043E+04</pdfrwt>
<pdfrwt beam="2">  1       -1 0.12580355E+00 0.27150043E+04</pdfrwt>
<totfact> 0.96143769E-01</totfact>
</mgrwt>
</event>
<event>
 6    1  0.4630212E-004  0.2403218E+04  0.7818608E-02  0.8438300E-01
          2   -1    0    0  501    0  0.00000000000E+00  0.00000000000E+00  0.32333144106E+04  0.32333144106E+04  0.00000000000E+00 0.  1.
         -2   -1    0    0    0  501 -0.00000000000E+00 -0.00000000000E+00 -0.44655836997E+03  0.44655836997E+03  0.00000000000E+00 0. -1.
         23    2    1    2    0    0 -0.12177406580E+03  0.10958150464E+04  0.21201842903E+04  0.23914794255E+04  0.91394084722E+02 0.  0.
         11    1    3    3    0    0 -0.24494617374E+02  0.58967433674E+03  0.10876394968E+04  0.12374471644E+04  0.00000000000E+00 0.  1.
        -11    1    3    3    0    0 -0.97279448422E+02  0.50614070968E+03  0.10325447936E+04  0.11540322612E+04  0.00000000000E+00 0. -1.
         22    1    1    2    0    0  0.12177406580E+03 -0.10958150464E+04  0.66657175032E+03  0.12883933551E+04  0.00000000000E+00 0. -1.
<mgrwt>
<rscale>  0 0.24032175E+04</rscale>
<asrwt>0</asrwt>
<pdfrwt beam="1">  1        2 0.49743297E+00 0.24032175E+04</pdfrwt>
<pdfrwt beam="2">  1       -2 0.68701290E-01 0.24032175E+04</pdfrwt>
<totfact> 0.21489814E+00</totfact>
</mgrwt>
</event>
<event>
 6    1  0.4630212E-004  0.3732294E+04  0.7818608E-02  0.8060843E-01
         -2   -1    0    0    0  501 -0.00000000000E+00  0.00000000000E+00  0.17027065212E+04  0.17027065212E+04  0.00000000000E+00 0. -1.
          2   -1    0    0  501    0  0.00000000000E+00 -0.00000000000E+00 -0.20452756230E+04  0.20452756230E+04  0.00000000000E+00 0.  1.
         23    2    1    2    0    0  0.11931359123E+03  0.18518558406E+04 -0.35819627128E+03  0.18922208460E+04  0.92678876724E+02 0.  0.
         13    1    3    3    0    0  0.83992857882E+02  0.14235566567E+04 -0.31406953926E+03  0.14602082148E+04  0.00000000000E+00 0. -1.
        -13    1    3    3    0    0  0.35320733346E+02  0.42829918381E+03 -0.44126732015E+02  0.43201263122E+03  0.00000000000E+00 0.  1.
         22    1    1    2    0    0 -0.11931359123E+03 -0.18518558406E+04  0.15627169421E+02  0.18557612981E+04  0.00000000000E+00 0.  1.
<mgrwt>
<rscale>  0 0.37322937E+04</rscale>
<asrwt>0</asrwt>
<pdfrwt beam="1">  1        2 0.31465779E+00 0.37322937E+04</pdfrwt>
<pdfrwt beam="2">  1       -2 0.26195485E+00 0.37322937E+04</pdfrwt>
<totfact> 0.27590416E-01</totfact>
</mgrwt>
</event>
<event>
 6    1  0.4630212E-004  0.5207756E+04  0.7818608E-02  0.7797234E-01
          2   -1    0    0  501    0  0.00000000000E+00  0.00000000000E+00  0.19409448944E+04  0.19409448944E+04  0.00000000000E+00 0.  1.
         -2   -1    0    0    0  501 -0.00000000000E+00 -0.00000000000E+00 -0.34932374814E+04  0.34932374814E+04  0.00000000000E+00 0. -1.
         23    2    1    2    0    0 -0.24965256338E+04 -0.40269021084E+03 -0.13194413482E+03  0.25338049224E+04  0.89210333222E+02 0.  0.
         13    1    3    3    0    0 -0.90741608294E+03 -0.10299529960E+03 -0.46163834764E+02  0.91440859519E+03  0.00000000000E+00 0.  1.
        -13    1    3    3    0    0 -0.15891095509E+04 -0.29969491124E+03 -0.85780300055E+02  0.16193963272E+04  0.00000000000E+00 0. -1.
         22    1    1    2    0    0  0.24965256338E+04  0.40269021084E+03 -0.14203484522E+04  0.29003774534E+04  0.00000000000E+00 0. -1.
<mgrwt>
<rscale>  0 0.52077563E+04</rscale>
<asrwt>0</asrwt>
<pdfrwt beam="1">  1        2 0.29860691E+00 0.52077563E+04</pdfrwt>
<pdfrwt beam="2">  1       -2 0.53742115E+00 0.52077563E+04</pdfrwt>
<totfact> 0.51951219E-03</totfact>
</mgrwt>
</event>
<event>
 6    1  0.4630212E-004  0.1841500E+04  0.7818608E-02  0.8684536E-01
          2   -1    0    0  501    0  0.00000000000E+00  0.00000000000E+00  0.14952605739E+04  0.14952605739E+04  0.00000000000E+00 0.  1.
         -2   -1    0    0    0  501 -0.00000000000E+00 -0.00000000000E+00 -0.56697846242E+03  0.56697846242E+03  0.00000000000E+00 0. -1.
         23    2    1    2    0    0  0.55897676333E+03  0.25687810084E+03  0.12290211988E+04  0.13774869795E+04  0.92389885470E+02 0.  0.
         13    1    3    3    0    0  0.17702325665E+03  0.12985990579E+03  0.43034245051E+03  0.48311018747E+03  0.00000000000E+00 0. -1.
        -13    1    3    3    0    0  0.38195350668E+03  0.12701819506E+03  0.79867874833E+03  0.89437679206E+03  0.00000000000E+00 0.  1.
         22    1    1    2    0    0 -0.55897676333E+03 -0.25687810084E+03 -0.30073908735E+03  0.68475205680E+03  0.00000000000E+00 0. -1.
<mgrwt>
<rscale>  0 0.18415000E+04</rscale>
<asrwt>0</asrwt>
<pdfrwt beam="1">  1        2 0.23004009E+00 0.18415000E+04</pdfrwt>
<pdfrwt beam="2">  1       -2 0.87227456E-01 0.18415000E+04</pdfrwt>
<totfact> 0.13649582E+01</totfact>
</mgrwt>
</event>
<event>
 6    1  0.5093697E-004  0.3487567E+04  0.7818608E-02  0.8116743E-01
          2   -1    0    0  501    0  0.00000000000E+00  0.00000000000E+00  0.24885854470E+04  0.24885854470E+04  0.00000000000E+00 0.  1.
         -2   -1    0    0    0  501 -0.00000000000E+00 -0.00000000000E+00 -0.12218915600E+04  0.12218915600E+04  0.00000000000E+00 0. -1.
         23    2    1    2    0    0  0.12020747556E+04 -0.57802338093E+03 -0.55912464563E+03  0.14493471874E+04  0.94298214757E+02 0.  0.
         11    1    3    3    0    0  0.62821815446E+03 -0.32188096572E+03 -0.34293211101E+03  0.78477247560E+03  0.00000000000E+00 0.  1.
        -11    1    3    3    0    0  0.57385660115E+03 -0.25614241520E+03 -0.21619253462E+03  0.66457471181E+03  0.00000000000E+00 0. -1.
         22    1    1    2    0    0 -0.12020747556E+04  0.57802338093E+03  0.18258185327E+04  0.22611298196E+04  0.00000000000E+00 0.  1.
<mgrwt>
<rscale>  0 0.34875674E+04</rscale>
<asrwt>0</asrwt>
<pdfrwt beam="1">  1        2 0.38285930E+00 0.34875674E+04</pdfrwt>
<pdfrwt beam="2">  1       -2 0.18798332E+00 0.34875674E+04</pdfrwt>
<totfact> 0.46490453E-01</totfact>
</mgrwt>
</event>
<event>
 6    1  0.4630212E-004  0.2243035E+04  0.7818608E-02  0.8500727E-01
          2   -1    0    0  501    0  0.00000000000E+00  0.00000000000E+00  0.11743302303E+04  0.11743302303E+04  0.00000000000E+00 0.  1.
         -2   -1    0    0    0  501 -0.00000000000E+00 -0.00000000000E+00 -0.10710795868E+04  0.10710795868E+04  0.00000000000E+00 0. -1.
         23    2    1    2    0    0  0.27576017320E+03 -0.10801408472E+04 -0.52332475864E+02  0.11198192921E+04  0.92242267265E+02 0.  0.
         11    1    3    3    0    0  0.11165027734E+03 -0.48463166964E+03  0.21024335039E+02  0.49777069250E+03  0.00000000000E+00 0.  1.
        -11    1    3    3    0    0  0.16410989586E+03 -0.59550917758E+03 -0.73356810903E+02  0.62204859955E+03  0.00000000000E+00 0. -1.
         22    1    1    2    0    0 -0.27576017320E+03  0.10801408472E+04  0.15558311937E+03  0.11255905250E+04  0.00000000000E+00 0.  1.
<mgrwt>
<rscale>  0 0.22430347E+04</rscale>
<asrwt>0</asrwt>
<pdfrwt beam="1">  1        2 0.18066619E+00 0.22430347E+04</pdfrwt>
<pdfrwt beam="2">  1       -2 0.16478148E+00 0.22430347E+04</pdfrwt>
<totfact> 0.41537349E+00</totfact>
</mgrwt>
</event>
<event>
 6    1  0.4630212E-004  0.3944038E+04  0.7818608E-02  0.8015932E-01
          2   -1    0    0  501    0  0.00000000000E+00  0.00000000000E+00  0.32948746228E+04  0.32948746228E+04  0.00000000000E+00 0.  1.
         -2   -1    0    0    0  501 -0.00000000000E+00 -0.00000000000E+00 -0.11802753633E+04  0.11802753633E+04  0.00000000000E+00 0. -1.
         23    2    1    2    0    0  0.17285395703E+04  0.36167629349E+02  0.21316615203E+04  0.27461478855E+04  0.90499879821E+02 0.  0.
         13    1    3    3    0    0  0.15726494418E+04  0.58079691678E+02  0.19477454714E+04  0.25040590925E+04  0.00000000000E+00 0.  1.
        -13    1    3    3    0    0  0.15589012844E+03 -0.21912062329E+02  0.18391604889E+03  0.24208879293E+03  0.00000000000E+00 0. -1.
         22    1    1    2    0    0 -0.17285395703E+04 -0.36167629349E+02 -0.17062260746E+02  0.17290021007E+04  0.00000000000E+00 0. -1.
<mgrwt>
<rscale>  0 0.39440382E+04</rscale>
<asrwt>0</asrwt>
<pdfrwt beam="1">  1        2 0.50690379E+00 0.39440382E+04</pdfrwt>
<pdfrwt beam="2">  1       -2 0.18158083E+00 0.39440382E+04</pdfrwt>
<totfact> 0.15712108E-01</totfact>
</mgrwt>
</event>
<event>
 6    1  0.4630212E-004  0.1002916E+04  0.7818608E-02  0.9305352E-01
         -2   -1    0    0    0  501 -0.00000000000E+00  0.00000000000E+00  0.23581294521E+03  0.23581294521E+03  0.00000000000E+00 0. -1.
          2   -1    0    0  501    0  0.00000000000E+00 -0.00000000000E+00 -0.10663550025E+04  0.10663550025E+04  0.00000000000E+00 0.  1.
         23    2    1    2    0    0  0.36523552650E+03  0.21942936195E+03 -0.75159429940E+03  0.86883322352E+03  0.91820175872E+02 0.  0.
         11    1    3    3    0    0  0.34748864997E+03  0.18160527370E+03 -0.70117558378E+03  0.80335299624E+03  0.00000000000E+00 0. -1.
        -11    1    3    3    0    0  0.17746876531E+02  0.37824088253E+02 -0.50418715625E+02  0.65480227275E+02  0.00000000000E+00 0.  1.
         22    1    1    2    0    0 -0.36523552650E+03 -0.21942936195E+03 -0.78947757873E+02  0.43333472418E+03  0.00000000000E+00 0. -1.
<mgrwt>
<rscale>  0 0.10029164E+04</rscale>
<asrwt>0</asrwt>
<pdfrwt beam="1">  1        2 0.16405462E+00 0.10029164E+04</pdfrwt>
<pdfrwt beam="2">  1       -2 0.36278915E-01 0.10029164E+04</pdfrwt>
<totfact> 0.16298546E+02</totfact>
</mgrwt>
</event>
<event>
 6    1  0.4630212E-004  0.2332997E+03  0.7818608E-02  0.1124339E+00
         -2   -1    0    0    0  501 -0.00000000000E+00  0.00000000000E+00  0.19776980898E+02  0.19776980898E+02  0.00000000000E+00 0. -1.
          2   -1    0    0  501    0  0.00000000000E+00 -0.00000000000E+00 -0.68803181668E+03  0.68803181668E+03  0.00000000000E+00 0.  1.
         23    2    1    2    0    0  0.53868663451E+02 -0.67411896851E+02 -0.24173402781E+03  0.27264653316E+03  0.91948872233E+02 0.  0.
         13    1    3    3    0    0  0.49670508655E+02 -0.79818714699E+02 -0.24192277119E+03  0.25954732491E+03  0.00000000000E+00 0.  1.
        -13    1    3    3    0    0  0.41981547965E+01  0.12406817848E+02  0.18874338085E+00  0.13099208254E+02  0.00000000000E+00 0. -1.
         22    1    1    2    0    0 -0.53868663451E+02  0.67411896851E+02 -0.42652080797E+03  0.43516226442E+03  0.00000000000E+00 0. -1.
<mgrwt>
<rscale>  0 0.23329974E+03</rscale>
<asrwt>0</asrwt>
<pdfrwt beam="1">  1        2 0.10585105E+00 0.23329974E+03</pdfrwt>
<pdfrwt beam="2">  1       -2 0.30426123E-02 0.23329974E+03</pdfrwt>
<totfact> 0.17507146E+04</totfact>
</mgrwt>
</event>
<event>
 6    1  0.4630212E-004  0.2247932E+04  0.7818608E-02  0.8498738E-01
         -2   -1    0    0    0  501 -0.00000000000E+00  0.00000000000E+00  0.52341509182E+03  0.52341509182E+03  0.00000000000E+00 0. -1.
          2   -1    0    0  501    0  0.00000000000E+00 -0.00000000000E+00 -0.24135713811E+04  0.24135713811E+04  0.00000000000E+00 0.  1.
         23    2    1    2    0    0 -0.47509542606E+03 -0.92530634909E+03 -0.14968930068E+04  0.18249776992E+04  0.89148331793E+02 0.  0.
         13    1    3    3    0    0 -0.27153196504E+03 -0.61910010499E+03 -0.98801091493E+03  0.11971550092E+04  0.00000000000E+00 0. -1.
        -13    1    3    3    0    0 -0.20356346102E+03 -0.30620624410E+03 -0.50888209189E+03  0.62782268996E+03  0.00000000000E+00 0.  1.
         22    1    1    2    0    0  0.47509542606E+03  0.92530634909E+03 -0.39326328243E+03  0.11120087737E+04  0.00000000000E+00 0. -1.
<mgrwt>
<rscale>  0 0.22479321E+04</rscale>
<asrwt>0</asrwt>
<pdfrwt beam="1">  1        2 0.37131867E+00 0.22479321E+04</pdfrwt>
<pdfrwt beam="2">  1       -2 0.80525399E-01 0.22479321E+04</pdfrwt>
<totfact> 0.48422132E+00</totfact>
</mgrwt>
</event>
<event>
 6    1  0.4630212E-004  0.4579977E+04  0.7818608E-02  0.7896783E-01
         -2   -1    0    0    0  501 -0.00000000000E+00  0.00000000000E+00  0.17266278341E+04  0.17266278341E+04  0.00000000000E+00 0. -1.
          2   -1    0    0  501    0  0.00000000000E+00 -0.00000000000E+00 -0.30371611725E+04  0.30371611725E+04  0.00000000000E+00 0.  1.
         23    2    1    2    0    0  0.12166807107E+04  0.11293937258E+04 -0.22948708980E+04  0.28338246104E+04  0.91034854830E+02 0.  0.
         13    1    3    3    0    0  0.65528980196E+03  0.66960526106E+03 -0.13004678177E+04  0.16028076850E+04  0.00000000000E+00 0.  1.
        -13    1    3    3    0    0  0.56139090871E+03  0.45978846470E+03 -0.99440308032E+03  0.12310169255E+04  0.00000000000E+00 0. -1.
         22    1    1    2    0    0 -0.12166807107E+04 -0.11293937258E+04  0.98433755958E+03  0.19299643962E+04  0.00000000000E+00 0.  1.
<mgrwt>
<rscale>  0 0.45799769E+04</rscale>
<asrwt>0</asrwt>
<pdfrwt beam="1">  1        2 0.46725556E+00 0.45799769E+04</pdfrwt>
<pdfrwt beam="2">  1       -2 0.26563505E+00 0.45799769E+04</pdfrwt>
<totfact> 0.63973932E-02</totfact>
</mgrwt>
</event>
<event>
 6    1  0.4630212E-004  0.1394240E+04  0.7818608E-02  0.8957999E-01
          2   -1    0    0  501    0  0.00000000000E+00  0.00000000000E+00  0.15909697768E+04  0.15909697768E+04  0.00000000000E+00 0.  1.
         -2   -1    0    0    0  501 -0.00000000000E+00 -0.00000000000E+00 -0.30545901639E+03  0.30545901639E+03  0.00000000000E+00 0. -1.
         23    2    1    2    0    0  0.27461827997E+03 -0.48779569475E+03  0.12031306506E+04  0.13306140514E+04  0.98237222325E+02 0.  0.
         11    1    3    3    0    0  0.10061370870E+03 -0.23245938355E+03  0.44688211768E+03  0.51367704881E+03  0.00000000000E+00 0. -1.
        -11    1    3    3    0    0  0.17400457127E+03 -0.25533631120E+03  0.75624853293E+03  0.81693700259E+03  0.00000000000E+00 0.  1.
         22    1    1    2    0    0 -0.27461827997E+03  0.48779569475E+03  0.82380109771E+02  0.56581474176E+03  0.00000000000E+00 0. -1.
<mgrwt>
<rscale>  0 0.13942397E+04</rscale>
<asrwt>0</asrwt>
<pdfrwt beam="1">  1        2 0.24476458E+00 0.13942397E+04</pdfrwt>
<pdfrwt beam="2">  1       -2 0.46993696E-01 0.13942397E+04</pdfrwt>
<totfact> 0.47143404E+01</totfact>
</mgrwt>
</event>
<event>
 6    1  0.4630212E-004  0.9685488E+03  0.7818608E-02  0.9343729E-01
         -1   -1    0    0    0  501 -0.00000000000E+00  0.00000000000E+00  0.15261740341E+04  0.15261740341E+04  0.00000000000E+00 0. -1.
          1   -1    0    0  501    0  0.00000000000E+00 -0.00000000000E+00 -0.15366641578E+03  0.15366641578E+03  0.00000000000E+00 0.  1.
         23    2    1    2    0    0  0.97255211305E+02 -0.40530508315E+02  0.15045293526E+04  0.15109291224E+04  0.90536963325E+02 0.  0.
         11    1    3    3    0    0  0.65583605801E+02 -0.29967910577E+02  0.13835438423E+04  0.13854215419E+04  0.00000000000E+00 0. -1.
        -11    1    3    3    0    0  0.31671605504E+02 -0.10562597737E+02  0.12098551026E+03  0.12550758049E+03  0.00000000000E+00 0.  1.
         22    1    1    2    0    0 -0.97255211305E+02  0.40530508315E+02 -0.13202173430E+03  0.16891132750E+03  0.00000000000E+00 0.  1.
<mgrwt>
<rscale>  0 0.96854880E+03</rscale>
<asrwt>0</asrwt>
<pdfrwt beam="1">  1        1 0.23640988E-01 0.96854880E+03</pdfrwt>
<pdfrwt beam="2">  1       -1 0.23479599E+00 0.96854880E+03</pdfrwt>
<totfact> 0.18628660E+01</totfact>
</mgrwt>
</event>
<event>
 6    1  0.4630212E-004  0.1729920E+04  0.7818608E-02  0.8744482E-01
         -2   -1    0    0    0  501 -0.00000000000E+00  0.00000000000E+00  0.43287537617E+03  0.43287537617E+03  0.00000000000E+00 0. -1.
          2   -1    0    0  501    0  0.00000000000E+00 -0.00000000000E+00 -0.17283394712E+04  0.17283394712E+04  0.00000000000E+00 0.  1.
         23    2    1    2    0    0  0.96543376664E+02  0.83488907247E+03 -0.89120851840E+03  0.12285932959E+04  0.93959973801E+02 0.  0.
         11    1    3    3    0    0  0.52632053715E+02  0.61045608746E+03 -0.59194337236E+03  0.85195288830E+03  0.00000000000E+00 0. -1.
        -11    1    3    3    0    0  0.43911322949E+02  0.22443298501E+03 -0.29926514603E+03  0.37664040764E+03  0.00000000000E+00 0.  1.
         22    1    1    2    0    0 -0.96543376664E+02 -0.83488907247E+03 -0.40425557659E+03  0.93262155138E+03  0.00000000000E+00 0. -1.
<mgrwt>
<rscale>  0 0.17299198E+04</rscale>
<asrwt>0</asrwt>
<pdfrwt beam="1">  1        2 0.26589839E+00 0.17299198E+04</pdfrwt>
<pdfrwt beam="2">  1       -2 0.66596210E-01 0.17299198E+04</pdfrwt>
<totfact> 0.18598430E+01</totfact>
</mgrwt>
</event>
<event>
 6    1  0.4630212E-004  0.1493082E+04  0.7818608E-02  0.8889066E-01
         -2   -1    0    0    0  501 -0.00000000000E+00  0.00000000000E+00  0.12906857121E+03  0.12906857121E+03  0.00000000000E+00 0. -1.
          2   -1    0    0  501    0  0.00000000000E+00 -0.00000000000E+00 -0.43180419809E+04  0.43180419809E+04  0.00000000000E+00 0.  1.
         23    2    1    2    0    0 -0.54774555360E+03  0.15901171643E+03 -0.35245142562E+04  0.35714303113E+04  0.87199822618E+02 0.  0.
         11    1    3    3    0    0 -0.32990945837E+03  0.95374807197E+02 -0.23782308828E+04  0.24028979871E+04  0.00000000000E+00 0.  1.
        -11    1    3    3    0    0 -0.21783609523E+03  0.63636909235E+02 -0.11462833734E+04  0.11685323242E+04  0.00000000000E+00 0. -1.
         22    1    1    2    0    0  0.54774555360E+03 -0.15901171643E+03 -0.66445915352E+03  0.87568024081E+03  0.00000000000E+00 0. -1.
<mgrwt>
<rscale>  0 0.14930821E+04</rscale>
<asrwt>0</asrwt>
<pdfrwt beam="1">  1        2 0.66431418E+00 0.14930821E+04</pdfrwt>
<pdfrwt beam="2">  1       -2 0.19856703E-01 0.14930821E+04</pdfrwt>
<totfact> 0.39446050E+00</totfact>
</mgrwt>
</event>
<event>
 6    1  0.4630212E-004  0.6975421E+04  0.7818608E-02  0.7579976E-01
          2   -1    0    0  501    0  0.00000000000E+00  0.00000000000E+00  0.44653962100E+04  0.44653962100E+04  0.00000000000E+00 0.  1.
         -2   -1    0    0    0  501 -0.00000000000E+00 -0.00000000000E+00 -0.27240862593E+04  0.27240862593E+04  0.00000000000E+00 0. -1.
         23    2    1    2    0    0  0.14087851445E+04  0.30417195937E+04  0.18611239008E+04  0.38352181606E+04  0.91555964978E+02 0.  0.
         13    1    3    3    0    0  0.73676108140E+03  0.15629022035E+04  0.90868355701E+03  0.19522259079E+04  0.00000000000E+00 0.  1.
        -13    1    3    3    0    0  0.67202406312E+03  0.14788173902E+04  0.95244034375E+03  0.18829922526E+04  0.00000000000E+00 0. -1.
         22    1    1    2    0    0 -0.14087851445E+04 -0.30417195937E+04 -0.11981395000E+03  0.33542643088E+04  0.00000000000E+00 0. -1.
<mgrwt>
<rscale>  0 0.69754210E+04</rscale>
<asrwt>0</asrwt>
<pdfrwt beam="1">  1        2 0.68698403E+00 0.69754210E+04</pdfrwt>
<pdfrwt beam="2">  1       -2 0.41909020E+00 0.69754210E+04</pdfrwt>
<totfact> 0.45747820E-04</totfact>
</mgrwt>
</event>
<event>
 6    1  0.4630212E-004  0.3352317E+04  0.7818608E-02  0.8149709E-01
         -2   -1    0    0    0  501 -0.00000000000E+00  0.00000000000E+00  0.11271179325E+04  0.11271179325E+04  0.00000000000E+00 0. -1.
          2   -1    0    0  501    0  0.00000000000E+00 -0.00000000000E+00 -0.24926472354E+04  0.24926472354E+04  0.00000000000E+00 0.  1.
         23    2    1    2    0    0  0.13804750389E+04  0.44516734516E+03 -0.15875983847E+04  0.21523865613E+04  0.91727749199E+02 0.  0.
         11    1    3    3    0    0  0.70218145446E+03  0.19587157502E+03 -0.74474171659E+03  0.10421442766E+04  0.00000000000E+00 0. -1.
        -11    1    3    3    0    0  0.67829358440E+03  0.24929577014E+03 -0.84285666807E+03  0.11102422846E+04  0.00000000000E+00 0.  1.
         22    1    1    2    0    0 -0.13804750389E+04 -0.44516734516E+03  0.22206908172E+03  0.14673786066E+04  0.00000000000E+00 0. -1.
<mgrwt>
<rscale>  0 0.33523170E+04</rscale>
<asrwt>0</asrwt>
<pdfrwt beam="1">  1        2 0.38348418E+00 0.33523170E+04</pdfrwt>
<pdfrwt beam="2">  1       -2 0.17340276E+00 0.33523170E+04</pdfrwt>
<totfact> 0.58942631E-01</totfact>
</mgrwt>
</event>
<event>
 6    1  0.4630212E-004  0.1882996E+04  0.7818608E-02  0.8663367E-01
          2   -1    0    0  501    0  0.00000000000E+00  0.00000000000E+00  0.15275151700E+04  0.15275151700E+04  0.00000000000E+00 0.  1.
         -2   -1    0    0    0  501 -0.00000000000E+00 -0.00000000000E+00 -0.58030084532E+03  0.58030084532E+03  0.00000000000E+00 0. -1.
         23    2    1    2    0    0  0.46551933717E+03 -0.78512735278E+03  0.22679836848E+03  0.94500375044E+03  0.91985732796E+02 0.  0.
         13    1    3    3    0    0  0.20498316718E+03 -0.26230538382E+03  0.69930268991E+02  0.34016533587E+03  0.00000000000E+00 0. -1.
        -13    1    3    3    0    0  0.26053617000E+03 -0.52282196896E+03  0.15686809949E+03  0.60483841457E+03  0.00000000000E+00 0.  1.
         22    1    1    2    0    0 -0.46551933717E+03  0.78512735278E+03  0.72041595617E+03  0.11628122648E+04  0.00000000000E+00 0.  1.
<mgrwt>
<rscale>  0 0.18829959E+04</rscale>
<asrwt>0</asrwt>
<pdfrwt beam="1">  1        2 0.23500233E+00 0.18829959E+04</pdfrwt>
<pdfrwt beam="2">  1       -2 0.89277054E-01 0.18829959E+04</pdfrwt>
<totfact> 0.12367609E+01</totfact>
</mgrwt>
</event>
<event>
 6    1  0.4630212E-004  0.2950337E+04  0.7818608E-02  0.8258056E-01
          2   -1    0    0  501    0  0.00000000000E+00  0.00000000000E+00  0.14868115072E+04  0.14868115072E+04  0.00000000000E+00 0.  1.
         -2   -1    0    0    0  501 -0.00000000000E+00 -0.00000000000E+00 -0.14636163298E+04  0.14636163298E+04  0.00000000000E+00 0. -1.
         23    2    1    2    0    0 -0.38499147803E+03 -0.13089975168E+04 -0.54480890785E+03  0.14724827846E+04  0.98467598213E+02 0.  0.
         13    1    3    3    0    0 -0.26014113873E+03 -0.80216508499E+03 -0.29122568777E+03  0.89216289816E+03  0.00000000000E+00 0. -1.
        -13    1    3    3    0    0 -0.12485033930E+03 -0.50683243177E+03 -0.25358322009E+03  0.58031988647E+03  0.00000000000E+00 0.  1.
         22    1    1    2    0    0  0.38499147803E+03  0.13089975168E+04  0.56800408520E+03  0.14779450524E+04  0.00000000000E+00 0. -1.
<mgrwt>
<rscale>  0 0.29503367E+04</rscale>
<asrwt>0</asrwt>
<pdfrwt beam="1">  1        2 0.22874023E+00 0.29503367E+04</pdfrwt>
<pdfrwt beam="2">  1       -2 0.22517174E+00 0.29503367E+04</pdfrwt>
<totfact> 0.10176166E+00</totfact>
</mgrwt>
</event>
<event>
 6    1  0.4630212E-004  0.1151329E+04  0.7818608E-02  0.9156558E-01
          1   -1    0    0  501    0  0.00000000000E+00  0.00000000000E+00  0.13640151227E+04  0.13640151227E+04  0.00000000000E+00 0.  1.
         -1   -1    0    0    0  501 -0.00000000000E+00 -0.00000000000E+00 -0.24295160226E+03  0.24295160226E+03  0.00000000000E+00 0. -1.
         23    2    1    2    0    0 -0.35619711042E+03 -0.32538231919E+03  0.13531996195E+03  0.50949672618E+03  0.92333021018E+02 0.  0.
         13    1    3    3    0    0 -0.18973422911E+03 -0.14967582339E+03  0.23278484125E+02  0.24278347890E+03  0.00000000000E+00 0.  1.
        -13    1    3    3    0    0 -0.16646288131E+03 -0.17570649580E+03  0.11204147782E+03  0.26671324728E+03  0.00000000000E+00 0. -1.
         22    1    1    2    0    0  0.35619711042E+03  0.32538231919E+03  0.98574355853E+03  0.10974699988E+04  0.00000000000E+00 0.  1.
<mgrwt>
<rscale>  0 0.11513291E+04</rscale>
<asrwt>0</asrwt>
<pdfrwt beam="1">  1        1 0.20984848E+00 0.11513291E+04</pdfrwt>
<pdfrwt beam="2">  1       -1 0.37377170E-01 0.11513291E+04</pdfrwt>
<totfact> 0.55723407E+01</totfact>
</mgrwt>
</event>
<event>
 6    1  0.4630212E-004  0.2950926E+04  0.7818608E-02  0.8257885E-01
         -2   -1    0    0    0  501 -0.00000000000E+00  0.00000000000E+00  0.78869539738E+03  0.78869539738E+03  0.00000000000E+00 0. -1.
          2   -1    0    0  501    0  0.00000000000E+00 -0.00000000000E+00 -0.27602423779E+04  0.27602423779E+04  0.00000000000E+00 0.  1.
         23    2    1    2    0    0 -0.12740748138E+04  0.62116006601E+03 -0.49983918306E+03  0.15056486866E+04  0.89623099359E+02 0.  0.
         13    1    3    3    0    0 -0.94709698604E+03  0.41775961704E+03 -0.35927606656E+03  0.10957167018E+04  0.00000000000E+00 0. -1.
        -13    1    3    3    0    0 -0.32697782773E+03  0.20340044897E+03 -0.14056311650E+03  0.40993198483E+03  0.00000000000E+00 0.  1.
         22    1    1    2    0    0  0.12740748138E+04 -0.62116006601E+03 -0.14717077974E+04  0.20432890886E+04  0.00000000000E+00 0.  1.
<mgrwt>
<rscale>  0 0.29509256E+04</rscale>
<asrwt>0</asrwt>
<pdfrwt beam="1">  1        2 0.42465267E+00 0.29509256E+04</pdfrwt>
<pdfrwt beam="2">  1       -2 0.12133775E+00 0.29509256E+04</pdfrwt>
<totfact> 0.10844812E+00</totfact>
</mgrwt>
</event>
<event>
 6    1  0.4630212E-004  0.1006862E+04  0.7818608E-02  0.9301051E-01
         -2   -1    0    0    0  501 -0.00000000000E+00  0.00000000000E+00  0.16258110570E+03  0.16258110570E+03  0.00000000000E+00 0. -1.
          2   -1    0    0  501    0  0.00000000000E+00 -0.00000000000E+00 -0.15588685810E+04  0.15588685810E+04  0.00000000000E+00 0.  1.
         23    2    1    2    0    0 -0.31795537208E+03 -0.27368808369E+03 -0.11668077241E+04  0.12432638003E+04  0.90905589572E+02 0.  0.
         11    1    3    3    0    0 -0.17569875079E+03 -0.12568726665E+03 -0.47867993359E+03  0.52516837190E+03  0.00000000000E+00 0.  1.
        -11    1    3    3    0    0 -0.14225662129E+03 -0.14800081705E+03 -0.68812779052E+03  0.71809542837E+03  0.00000000000E+00 0. -1.
         22    1    1    2    0    0  0.31795537208E+03  0.27368808369E+03 -0.22947975122E+03  0.47818588646E+03  0.00000000000E+00 0. -1.
<mgrwt>
<rscale>  0 0.10068616E+04</rscale>
<asrwt>0</asrwt>
<pdfrwt beam="1">  1        2 0.23982593E+00 0.10068616E+04</pdfrwt>
<pdfrwt beam="2">  1       -2 0.25012478E-01 0.10068616E+04</pdfrwt>
<totfact> 0.16813660E+02</totfact>
</mgrwt>
</event>
<event>
 6    1  0.4630212E-004  0.3027477E+04  0.7818608E-02  0.8235928E-01
         -1   -1    0    0    0  501 -0.00000000000E+00  0.00000000000E+00  0.84869272665E+03  0.84869272665E+03  0.00000000000E+00 0. -1.
          1   -1    0    0  501    0  0.00000000000E+00 -0.00000000000E+00 -0.26999223263E+04  0.26999223263E+04  0.00000000000E+00 0.  1.
         23    2    1    2    0    0  0.12334902063E+04 -0.81212001033E+03 -0.13050851445E+04  0.19740323253E+04  0.11189006673E+03 0.  0.
         11    1    3    3    0    0  0.77043079499E+03 -0.44789295514E+03 -0.81656157733E+03  0.12086953788E+04  0.00000000000E+00 0. -1.
        -11    1    3    3    0    0  0.46305941128E+03 -0.36422705519E+03 -0.48852356715E+03  0.76533694656E+03  0.00000000000E+00 0.  1.
         22    1    1    2    0    0 -0.12334902063E+04  0.81212001033E+03 -0.54614445516E+03  0.15745827276E+04  0.00000000000E+00 0. -1.
<mgrwt>
<rscale>  0 0.30274771E+04</rscale>
<asrwt>0</asrwt>
<pdfrwt beam="1">  1        1 0.41537266E+00 0.30274771E+04</pdfrwt>
<pdfrwt beam="2">  1       -1 0.13056811E+00 0.30274771E+04</pdfrwt>
<totfact> 0.41776146E-01</totfact>
</mgrwt>
</event>
<event>
 6    1  0.4630212E-004  0.2195508E+04  0.7818608E-02  0.8520300E-01
         -2   -1    0    0    0  501 -0.00000000000E+00  0.00000000000E+00  0.60681926526E+03  0.60681926526E+03  0.00000000000E+00 0. -1.
          2   -1    0    0  501    0  0.00000000000E+00 -0.00000000000E+00 -0.19858698619E+04  0.19858698619E+04  0.00000000000E+00 0.  1.
         23    2    1    2    0    0 -0.22309487786E+03 -0.65928128271E+03  0.30883611001E+03  0.76693321008E+03  0.91562391936E+02 0.  0.
         13    1    3    3    0    0 -0.10313998451E+03 -0.43123811144E+03  0.21428038976E+03  0.49246345103E+03  0.00000000000E+00 0. -1.
        -13    1    3    3    0    0 -0.11995489335E+03 -0.22804317127E+03  0.94555720250E+02  0.27446975905E+03  0.00000000000E+00 0.  1.
         22    1    1    2    0    0  0.22309487786E+03  0.65928128271E+03 -0.16878867067E+04  0.18257559171E+04  0.00000000000E+00 0.  1.
<mgrwt>
<rscale>  0 0.21955082E+04</rscale>
<asrwt>0</asrwt>
<pdfrwt beam="1">  1        2 0.30551845E+00 0.21955082E+04</pdfrwt>
<pdfrwt beam="2">  1       -2 0.93356808E-01 0.21955082E+04</pdfrwt>
<totfact> 0.60383408E+00</totfact>
</mgrwt>
</event>
<event>
 6    1  0.4630212E-004  0.1774718E+04  0.7818608E-02  0.8719861E-01
          2   -1    0    0  501    0  0.00000000000E+00  0.00000000000E+00  0.14160909190E+04  0.14160909190E+04  0.00000000000E+00 0.  1.
         -2   -1    0    0    0  501 -0.00000000000E+00 -0.00000000000E+00 -0.55604213162E+03  0.55604213162E+03  0.00000000000E+00 0. -1.
         23    2    1    2    0    0 -0.60884254339E+03  0.63117549144E+03  0.56316104079E+03  0.10462744881E+04  0.92022839634E+02 0.  0.
         13    1    3    3    0    0 -0.31471976480E+03  0.35709840079E+03  0.35320645698E+03  0.59272472486E+03  0.00000000000E+00 0.  1.
        -13    1    3    3    0    0 -0.29412277859E+03  0.27407709065E+03  0.20995458381E+03  0.45354976328E+03  0.00000000000E+00 0. -1.
         22    1    1    2    0    0  0.60884254339E+03 -0.63117549144E+03  0.29688774658E+03  0.92585856248E+03  0.00000000000E+00 0. -1.
<mgrwt>
<rscale>  0 0.17747182E+04</rscale>
<asrwt>0</asrwt>
<pdfrwt beam="1">  1        2 0.21786014E+00 0.17747182E+04</pdfrwt>
<pdfrwt beam="2">  1       -2 0.85544943E-01 0.17747182E+04</pdfrwt>
<totfact> 0.15914800E+01</totfact>
</mgrwt>
</event>
<event>
 6    1  0.4630212E-004  0.2014970E+04  0.7818608E-02  0.8599653E-01
          2   -1    0    0  501    0  0.00000000000E+00  0.00000000000E+00  0.32822670397E+04  0.32822670397E+04  0.00000000000E+00 0.  1.
         -2   -1    0    0    0  501 -0.00000000000E+00 -0.00000000000E+00 -0.30924548177E+03  0.30924548177E+03  0.00000000000E+00 0. -1.
         23    2    1    2    0    0  0.15700058715E+03  0.98604837196E+03  0.12812221718E+04  0.16270467571E+04  0.93863306359E+02 0.  0.
         13    1    3    3    0    0  0.14269732576E+03  0.84913203173E+03  0.10494289199E+04  0.13574567367E+04  0.00000000000E+00 0.  1.
        -13    1    3    3    0    0  0.14303261395E+02  0.13691634023E+03  0.23179325190E+03  0.26959002047E+03  0.00000000000E+00 0. -1.
         22    1    1    2    0    0 -0.15700058715E+03 -0.98604837196E+03  0.16917993862E+04  0.19644657644E+04  0.00000000000E+00 0. -1.
<mgrwt>
<rscale>  0 0.20149702E+04</rscale>
<asrwt>0</asrwt>
<pdfrwt beam="1">  1        2 0.50496414E+00 0.20149702E+04</pdfrwt>
<pdfrwt beam="2">  1       -2 0.47576230E-01 0.20149702E+04</pdfrwt>
<totfact> 0.44639878E+00</totfact>
</mgrwt>
</event>
<event>
 6    1  0.4630212E-004  0.1205259E+04  0.7818608E-02  0.9108266E-01
         -2   -1    0    0    0  501 -0.00000000000E+00  0.00000000000E+00  0.33937906855E+03  0.33937906855E+03  0.00000000000E+00 0. -1.
          2   -1    0    0  501    0  0.00000000000E+00 -0.00000000000E+00 -0.10700786242E+04  0.10700786242E+04  0.00000000000E+00 0.  1.
         23    2    1    2    0    0  0.28739965355E+03  0.21908642973E+03 -0.92605122889E+03  0.99865396743E+03  0.95610896766E+02 0.  0.
         11    1    3    3    0    0  0.16607579334E+03  0.78069356073E+02 -0.53530080114E+03  0.56588244467E+03  0.00000000000E+00 0. -1.
        -11    1    3    3    0    0  0.12132386021E+03  0.14101707366E+03 -0.39075042775E+03  0.43277152276E+03  0.00000000000E+00 0.  1.
         22    1    1    2    0    0 -0.28739965355E+03 -0.21908642973E+03  0.19535167320E+03  0.41080372537E+03  0.00000000000E+00 0. -1.
<mgrwt>
<rscale>  0 0.12052590E+04</rscale>
<asrwt>0</asrwt>
<pdfrwt beam="1">  1        2 0.16462748E+00 0.12052590E+04</pdfrwt>
<pdfrwt beam="2">  1       -2 0.52212164E-01 0.12052590E+04</pdfrwt>
<totfact> 0.77655478E+01</totfact>
</mgrwt>
</event>
<event>
 6    1  0.4630212E-004  0.1448500E+04  0.7818608E-02  0.8919441E-01
          2   -1    0    0  501    0  0.00000000000E+00  0.00000000000E+00  0.73848736867E+03  0.73848736867E+03  0.00000000000E+00 0.  1.
         -2   -1    0    0    0  501 -0.00000000000E+00 -0.00000000000E+00 -0.71028724487E+03  0.71028724487E+03  0.00000000000E+00 0. -1.
         23    2    1    2    0    0  0.97032774590E+02  0.28036499625E+03  0.67173589597E+03  0.74014341147E+03  0.92537911907E+02 0.  0.
         11    1    3    3    0    0  0.13414008119E+02  0.15640462610E+03  0.40494767219E+03  0.43430975109E+03  0.00000000000E+00 0. -1.
        -11    1    3    3    0    0  0.83618766471E+02  0.12396037015E+03  0.26678822378E+03  0.30583366038E+03  0.00000000000E+00 0.  1.
         22    1    1    2    0    0 -0.97032774590E+02 -0.28036499625E+03 -0.64353577218E+03  0.70863120207E+03  0.00000000000E+00 0. -1.
<mgrwt>
<rscale>  0 0.14485001E+04</rscale>
<asrwt>0</asrwt>
<pdfrwt beam="1">  1        2 0.11361344E+00 0.14485001E+04</pdfrwt>
<pdfrwt beam="2">  1       -2 0.10927496E+00 0.14485001E+04</pdfrwt>
<totfact> 0.24775924E+01</totfact>
</mgrwt>
</event>
<event>
 6    1  0.4630212E-004  0.9788244E+03  0.7818608E-02  0.9332080E-01
         -2   -1    0    0    0  501 -0.00000000000E+00  0.00000000000E+00  0.79721189628E+03  0.79721189628E+03  0.00000000000E+00 0. -1.
          2   -1    0    0  501    0  0.00000000000E+00 -0.00000000000E+00 -0.30045252179E+03  0.30045252179E+03  0.00000000000E+00 0.  1.
         23    2    1    2    0    0 -0.27547291320E+03  0.20340483062E+03 -0.13484258985E+03  0.37920781369E+03  0.91417672840E+02 0.  0.
         13    1    3    3    0    0 -0.21220795613E+02  0.21167982606E+02  0.13650441340E+02  0.32935394378E+02  0.00000000000E+00 0.  1.
        -13    1    3    3    0    0 -0.25425211758E+03  0.18223684801E+03 -0.14849303119E+03  0.34627241932E+03  0.00000000000E+00 0. -1.
         22    1    1    2    0    0  0.27547291320E+03 -0.20340483062E+03  0.63160196433E+03  0.71845660438E+03  0.00000000000E+00 0. -1.
<mgrwt>
<rscale>  0 0.97882445E+03</rscale>
<asrwt>0</asrwt>
<pdfrwt beam="1">  1        2 0.46223465E-01 0.97882445E+03</pdfrwt>
<pdfrwt beam="2">  1       -2 0.12264798E+00 0.97882445E+03</pdfrwt>
<totfact> 0.55060737E+01</totfact>
</mgrwt>
</event>
<event>
 6    1  0.4630212E-004  0.1721351E+04  0.7818608E-02  0.8749280E-01
          2   -1    0    0  501    0  0.00000000000E+00  0.00000000000E+00  0.55689124494E+03  0.55689124494E+03  0.00000000000E+00 0.  1.
         -2   -1    0    0    0  501 -0.00000000000E+00 -0.00000000000E+00 -0.13301734374E+04  0.13301734374E+04  0.00000000000E+00 0. -1.
         23    2    1    2    0    0  0.21279580502E+03 -0.65976518239E+02 -0.12963973726E+04  0.13184836000E+04  0.90099389883E+02 0.  0.
         11    1    3    3    0    0  0.15075123798E+03 -0.67264089577E+02 -0.11053811435E+04  0.11176394168E+04  0.00000000000E+00 0.  1.
        -11    1    3    3    0    0  0.62044567039E+02  0.12875713384E+01 -0.19101622906E+03  0.20084418315E+03  0.00000000000E+00 0. -1.
         22    1    1    2    0    0 -0.21279580502E+03  0.65976518239E+02  0.52311518013E+03  0.56858108241E+03  0.00000000000E+00 0.  1.
<mgrwt>
<rscale>  0 0.17213506E+04</rscale>
<asrwt>0</asrwt>
<pdfrwt beam="1">  1        2 0.85675577E-01 0.17213506E+04</pdfrwt>
<pdfrwt beam="2">  1       -2 0.20464207E+00 0.17213506E+04</pdfrwt>
<totfact> 0.63851252E+00</totfact>
</mgrwt>
</event>
<event>
 6    1  0.4630212E-004  0.2120405E+04  0.7818608E-02  0.8552308E-01
          2   -1    0    0  501    0  0.00000000000E+00  0.00000000000E+00  0.21393462158E+04  0.21393462158E+04  0.00000000000E+00 0.  1.
         -2   -1    0    0    0  501 -0.00000000000E+00 -0.00000000000E+00 -0.52540778239E+03  0.52540778239E+03  0.00000000000E+00 0. -1.
         23    2    1    2    0    0 -0.42334961293E+03 -0.69244569329E+03 -0.44291334211E+02  0.81856010395E+03  0.96814196052E+02 0.  0.
         13    1    3    3    0    0 -0.20135603551E+03 -0.23987798855E+03 -0.10984987927E+02  0.31337895971E+03  0.00000000000E+00 0.  1.
        -13    1    3    3    0    0 -0.22199357742E+03 -0.45256770474E+03 -0.33306346284E+02  0.50518114424E+03  0.00000000000E+00 0. -1.
         22    1    1    2    0    0  0.42334961293E+03  0.69244569329E+03  0.16582297676E+04  0.18461938942E+04  0.00000000000E+00 0. -1.
<mgrwt>
<rscale>  0 0.21204048E+04</rscale>
<asrwt>0</asrwt>
<pdfrwt beam="1">  1        2 0.32913018E+00 0.21204048E+04</pdfrwt>
<pdfrwt beam="2">  1       -2 0.80831968E-01 0.21204048E+04</pdfrwt>
<totfact> 0.69386387E+00</totfact>
</mgrwt>
</event>
<event>
 6    1  0.4630212E-004  0.6477614E+04  0.7818608E-02  0.7633848E-01
         -2   -1    0    0    0  501 -0.00000000000E+00  0.00000000000E+00  0.42596051697E+04  0.42596051697E+04  0.00000000000E+00 0. -1.
          2   -1    0    0  501    0  0.00000000000E+00 -0.00000000000E+00 -0.24626395332E+04  0.24626395332E+04  0.00000000000E+00 0.  1.
         23    2    1    2    0    0  0.23309927299E+04  0.13219737193E+04 -0.98784748388E+03  0.28574904111E+04  0.90924015723E+02 0.  0.
         11    1    3    3    0    0  0.94894964294E+03  0.51014357063E+03 -0.43693930677E+03  0.11626125087E+04  0.00000000000E+00 0. -1.
        -11    1    3    3    0    0  0.13820430869E+04  0.81183014866E+03 -0.55090817711E+03  0.16948779024E+04  0.00000000000E+00 0.  1.
         22    1    1    2    0    0 -0.23309927299E+04 -0.13219737193E+04  0.27848131203E+04  0.38647542919E+04  0.00000000000E+00 0. -1.
<mgrwt>
<rscale>  0 0.64776144E+04</rscale>
<asrwt>0</asrwt>
<pdfrwt beam="1">  1        2 0.37886762E+00 0.64776144E+04</pdfrwt>
<pdfrwt beam="2">  1       -2 0.65532387E+00 0.64776144E+04</pdfrwt>
<totfact> 0.78519657E-04</totfact>
</mgrwt>
</event>
<event>
 6    1  0.4630212E-004  0.2127451E+04  0.7818608E-02  0.8549246E-01
         -2   -1    0    0    0  501 -0.00000000000E+00  0.00000000000E+00  0.60147603876E+03  0.60147603876E+03  0.00000000000E+00 0. -1.
          2   -1    0    0  501    0  0.00000000000E+00 -0.00000000000E+00 -0.18812254074E+04  0.18812254074E+04  0.00000000000E+00 0.  1.
         23    2    1    2    0    0  0.91219319096E+03  0.25586380181E+02 -0.12741420799E+04  0.15701322586E+04  0.95531090081E+02 0.  0.
         13    1    3    3    0    0  0.51009960432E+03 -0.68412516822E+01 -0.78354096932E+03  0.93497853433E+03  0.00000000000E+00 0. -1.
        -13    1    3    3    0    0  0.40209358664E+03  0.32427631863E+02 -0.49060111056E+03  0.63515372423E+03  0.00000000000E+00 0.  1.
         22    1    1    2    0    0 -0.91219319096E+03 -0.25586380181E+02 -0.56072887733E+01  0.91256918760E+03  0.00000000000E+00 0. -1.
<mgrwt>
<rscale>  0 0.21274511E+04</rscale>
<asrwt>0</asrwt>
<pdfrwt beam="1">  1        2 0.28941929E+00 0.21274511E+04</pdfrwt>
<pdfrwt beam="2">  1       -2 0.92534775E-01 0.21274511E+04</pdfrwt>
<totfact> 0.70865285E+00</totfact>
</mgrwt>
</event>
<event>
 6    1  0.4630212E-004  0.2764326E+04  0.7818608E-02  0.8314430E-01
         -2   -1    0    0    0  501 -0.00000000000E+00  0.00000000000E+00  0.15140664184E+04  0.15140664184E+04  0.00000000000E+00 0. -1.
          2   -1    0    0  501    0  0.00000000000E+00 -0.00000000000E+00 -0.12617508780E+04  0.12617508780E+04  0.00000000000E+00 0.  1.
         23    2    1    2    0    0 -0.27781000694E+03 -0.54637076646E+03 -0.11159098365E+04  0.12765707869E+04  0.93160057489E+02 0.  0.
         13    1    3    3    0    0 -0.48441569934E+02 -0.12836273826E+03 -0.32927242596E+03  0.35671264173E+03  0.00000000000E+00 0.  1.
        -13    1    3    3    0    0 -0.22936843701E+03 -0.41800802819E+03 -0.78663741051E+03  0.91985814512E+03  0.00000000000E+00 0. -1.
         22    1    1    2    0    0  0.27781000694E+03  0.54637076646E+03  0.13682253769E+04  0.14992465095E+04  0.00000000000E+00 0. -1.
<mgrwt>
<rscale>  0 0.27643261E+04</rscale>
<asrwt>0</asrwt>
<pdfrwt beam="1">  1        2 0.19411552E+00 0.27643261E+04</pdfrwt>
<pdfrwt beam="2">  1       -2 0.23293329E+00 0.27643261E+04</pdfrwt>
<totfact> 0.12451544E+00</totfact>
</mgrwt>
</event>
<event>
 6    1  0.4630212E-004  0.1258069E+04  0.7818608E-02  0.9063494E-01
         -2   -1    0    0    0  501 -0.00000000000E+00  0.00000000000E+00  0.40403130917E+03  0.40403130917E+03  0.00000000000E+00 0. -1.
          2   -1    0    0  501    0  0.00000000000E+00 -0.00000000000E+00 -0.97934119992E+03  0.97934119992E+03  0.00000000000E+00 0.  1.
         23    2    1    2    0    0  0.49416317137E+03 -0.14087681510E+03 -0.68113537437E+03  0.85873687367E+03  0.97160192566E+02 0.  0.
         13    1    3    3    0    0  0.34802481824E+03 -0.11014250314E+03 -0.40815864261E+03  0.54758206932E+03  0.00000000000E+00 0.  1.
        -13    1    3    3    0    0  0.14613835313E+03 -0.30734311953E+02 -0.27297673176E+03  0.31115480435E+03  0.00000000000E+00 0. -1.
         22    1    1    2    0    0 -0.49416317137E+03  0.14087681510E+03  0.10582548362E+03  0.52463563542E+03  0.00000000000E+00 0. -1.
<mgrwt>
<rscale>  0 0.12580692E+04</rscale>
<asrwt>0</asrwt>
<pdfrwt beam="1">  1        2 0.15066788E+00 0.12580692E+04</pdfrwt>
<pdfrwt beam="2">  1       -2 0.62158663E-01 0.12580692E+04</pdfrwt>
<totfact> 0.61355159E+01</totfact>
</mgrwt>
</event>
<event>
 6    1  0.4630212E-004  0.1135979E+04  0.7818608E-02  0.9170817E-01
         -2   -1    0    0    0  501 -0.00000000000E+00  0.00000000000E+00  0.34251293554E+03  0.34251293554E+03  0.00000000000E+00 0. -1.
          2   -1    0    0  501    0  0.00000000000E+00 -0.00000000000E+00 -0.94189804567E+03  0.94189804567E+03  0.00000000000E+00 0.  1.
         23    2    1    2    0    0  0.46844363310E+03  0.31413694678E+03 -0.27943691720E+03  0.63596028541E+03  0.90769131305E+02 0.  0.
         13    1    3    3    0    0  0.36097687375E+03  0.19297980525E+03 -0.20146078203E+03  0.45621481268E+03  0.00000000000E+00 0.  1.
        -13    1    3    3    0    0  0.10746675935E+03  0.12115714153E+03 -0.77976135170E+02  0.17974547273E+03  0.00000000000E+00 0. -1.
         22    1    1    2    0    0 -0.46844363310E+03 -0.31413694678E+03 -0.31994819294E+03  0.64845069580E+03  0.00000000000E+00 0. -1.
<mgrwt>
<rscale>  0 0.11359793E+04</rscale>
<asrwt>0</asrwt>
<pdfrwt beam="1">  1        2 0.14490739E+00 0.11359793E+04</pdfrwt>
<pdfrwt beam="2">  1       -2 0.52694299E-01 0.11359793E+04</pdfrwt>
<totfact> 0.92518820E+01</totfact>
</mgrwt>
</event>
<event>
 6    1  0.4630212E-004  0.2761976E+04  0.7818608E-02  0.8315171E-01
          2   -1    0    0  501    0  0.00000000000E+00  0.00000000000E+00  0.11224683624E+04  0.11224683624E+04  0.00000000000E+00 0.  1.
         -2   -1    0    0    0  501 -0.00000000000E+00 -0.00000000000E+00 -0.16990482116E+04  0.16990482116E+04  0.00000000000E+00 0. -1.
         23    2    1    2    0    0  0.94341239405E+03  0.65545409145E+03  0.49159872131E+03  0.12528698739E+04  0.91469157788E+02 0.  0.
         11    1    3    3    0    0  0.42129507042E+03  0.24338569892E+03  0.22949546019E+03  0.53795380940E+03  0.00000000000E+00 0. -1.
        -11    1    3    3    0    0  0.52211732363E+03  0.41206839253E+03  0.26210326112E+03  0.71491606448E+03  0.00000000000E+00 0.  1.
         22    1    1    2    0    0 -0.94341239405E+03 -0.65545409145E+03 -0.10681785705E+04  0.15686467001E+04  0.00000000000E+00 0. -1.
<mgrwt>
<rscale>  0 0.27619760E+04</rscale>
<asrwt>0</asrwt>
<pdfrwt beam="1">  1        2 0.17268744E+00 0.27619760E+04</pdfrwt>
<pdfrwt beam="2">  1       -2 0.26139203E+00 0.27619760E+04</pdfrwt>
<totfact> 0.10077279E+00</totfact>
</mgrwt>
</event>
<event>
 6    1  0.4630212E-004  0.2269679E+04  0.7818608E-02  0.8489973E-01
         -2   -1    0    0    0  501 -0.00000000000E+00  0.00000000000E+00  0.11794135978E+04  0.11794135978E+04  0.00000000000E+00 0. -1.
          2   -1    0    0  501    0  0.00000000000E+00 -0.00000000000E+00 -0.10919499202E+04  0.10919499202E+04  0.00000000000E+00 0.  1.
         23    2    1    2    0    0  0.89861051914E+02 -0.34885985789E+03 -0.10311200350E+04  0.10962006650E+04  0.93108335897E+02 0.  0.
         11    1    3    3    0    0  0.63968996283E+02 -0.15950203029E+03 -0.36911029418E+03  0.40715517856E+03  0.00000000000E+00 0. -1.
        -11    1    3    3    0    0  0.25892055631E+02 -0.18935782760E+03 -0.66200974083E+03  0.68904548644E+03  0.00000000000E+00 0.  1.
         22    1    1    2    0    0 -0.89861051914E+02  0.34885985789E+03  0.11185837126E+04  0.11751628530E+04  0.00000000000E+00 0. -1.
<mgrwt>
<rscale>  0 0.22696789E+04</rscale>
<asrwt>0</asrwt>
<pdfrwt beam="1">  1        2 0.16799230E+00 0.22696789E+04</pdfrwt>
<pdfrwt beam="2">  1       -2 0.18144825E+00 0.22696789E+04</pdfrwt>
<totfact> 0.35488376E+00</totfact>
</mgrwt>
</event>
<event>
 6    1  0.4630212E-004  0.2373607E+04  0.7818608E-02  0.8449451E-01
         -2   -1    0    0    0  501 -0.00000000000E+00  0.00000000000E+00  0.14647989187E+04  0.14647989187E+04  0.00000000000E+00 0. -1.
          2   -1    0    0  501    0  0.00000000000E+00 -0.00000000000E+00 -0.96156689767E+03  0.96156689767E+03  0.00000000000E+00 0.  1.
         23    2    1    2    0    0 -0.14396534033E+03 -0.10827829764E+04 -0.21758724706E+03  0.11176544615E+04  0.93071435140E+02 0.  0.
         13    1    3    3    0    0  0.16770965800E+01 -0.18339165001E+03 -0.60386617519E+02  0.19308509399E+03  0.00000000000E+00 0. -1.
        -13    1    3    3    0    0 -0.14564243691E+03 -0.89939132637E+03 -0.15720062954E+03  0.92456936750E+03  0.00000000000E+00 0.  1.
         22    1    1    2    0    0  0.14396534033E+03  0.10827829764E+04  0.72081926809E+03  0.13087113549E+04  0.00000000000E+00 0. -1.
<mgrwt>
<rscale>  0 0.23736067E+04</rscale>
<asrwt>0</asrwt>
<pdfrwt beam="1">  1        2 0.14793337E+00 0.23736067E+04</pdfrwt>
<pdfrwt beam="2">  1       -2 0.22535368E+00 0.23736067E+04</pdfrwt>
<totfact> 0.21977893E+00</totfact>
</mgrwt>
</event>
<event>
 6    1  0.4630212E-004  0.2629935E+04  0.7818608E-02  0.8358104E-01
         -2   -1    0    0    0  501 -0.00000000000E+00  0.00000000000E+00  0.26875322412E+04  0.26875322412E+04  0.00000000000E+00 0. -1.
          2   -1    0    0  501    0  0.00000000000E+00 -0.00000000000E+00 -0.64339286463E+03  0.64339286463E+03  0.00000000000E+00 0.  1.
         23    2    1    2    0    0  0.48490198453E+03 -0.76652362406E+03 -0.17965883878E+03  0.92926590781E+03  0.92571206216E+02 0.  0.
         11    1    3    3    0    0  0.27208720757E+03 -0.48456906036E+03 -0.74579638205E+02  0.56071449528E+03  0.00000000000E+00 0.  1.
        -11    1    3    3    0    0  0.21281477697E+03 -0.28195456371E+03 -0.10507920057E+03  0.36855141254E+03  0.00000000000E+00 0. -1.
         22    1    1    2    0    0 -0.48490198453E+03  0.76652362406E+03  0.22237982154E+04  0.24016591980E+04  0.00000000000E+00 0. -1.
<mgrwt>
<rscale>  0 0.26299347E+04</rscale>
<asrwt>0</asrwt>
<pdfrwt beam="1">  1        2 0.98983519E-01 0.26299347E+04</pdfrwt>
<pdfrwt beam="2">  1       -2 0.41346649E+00 0.26299347E+04</pdfrwt>
<totfact> 0.24322255E-01</totfact>
</mgrwt>
</event>
<event>
 6    1  0.4630212E-004  0.2968910E+04  0.7818608E-02  0.8252665E-01
          1   -1    0    0  501    0  0.00000000000E+00  0.00000000000E+00  0.23534624608E+04  0.23534624608E+04  0.00000000000E+00 0.  1.
         -1   -1    0    0    0  501 -0.00000000000E+00 -0.00000000000E+00 -0.93632522900E+03  0.93632522900E+03  0.00000000000E+00 0. -1.
         23    2    1    2    0    0  0.41629082504E+03  0.88317842171E+03 -0.52787142405E+03  0.11134695038E+04  0.88678745288E+02 0.  0.
         11    1    3    3    0    0  0.16952673022E+03  0.28904199615E+03 -0.21450441824E+03  0.39786521995E+03  0.00000000000E+00 0.  1.
        -11    1    3    3    0    0  0.24676409482E+03  0.59413642556E+03 -0.31336700581E+03  0.71560428381E+03  0.00000000000E+00 0. -1.
         22    1    1    2    0    0 -0.41629082504E+03 -0.88317842171E+03  0.19450086559E+04  0.21763181861E+04  0.00000000000E+00 0.  1.
<mgrwt>
<rscale>  0 0.29689098E+04</rscale>
<asrwt>0</asrwt>
<pdfrwt beam="1">  1        1 0.36207115E+00 0.29689098E+04</pdfrwt>
<pdfrwt beam="2">  1       -1 0.14405004E+00 0.29689098E+04</pdfrwt>
<totfact> 0.56729252E-01</totfact>
</mgrwt>
</event>
<event>
 6    1  0.4630212E-004  0.1136694E+04  0.7818608E-02  0.9170148E-01
          2   -1    0    0  501    0  0.00000000000E+00  0.00000000000E+00  0.78498801306E+03  0.78498801306E+03  0.00000000000E+00 0.  1.
         -2   -1    0    0    0  501 -0.00000000000E+00 -0.00000000000E+00 -0.41149439174E+03  0.41149439174E+03  0.00000000000E+00 0. -1.
         23    2    1    2    0    0 -0.51952622613E+03 -0.83271616162E+02  0.40459341378E+03  0.66940664290E+03  0.86992881249E+02 0.  0.
         13    1    3    3    0    0 -0.26533013215E+03 -0.40649449035E+02  0.15175751001E+03  0.30835498792E+03  0.00000000000E+00 0. -1.
        -13    1    3    3    0    0 -0.25419609398E+03 -0.42622167127E+02  0.25283590377E+03  0.36105165498E+03  0.00000000000E+00 0.  1.
         22    1    1    2    0    0  0.51952622613E+03  0.83271616162E+02 -0.31099792468E+02  0.52707576190E+03  0.00000000000E+00 0. -1.
<mgrwt>
<rscale>  0 0.11366937E+04</rscale>
<asrwt>0</asrwt>
<pdfrwt beam="1">  1        2 0.12076739E+00 0.11366937E+04</pdfrwt>
<pdfrwt beam="2">  1       -2 0.63306829E-01 0.11366937E+04</pdfrwt>
<totfact> 0.80885078E+01</totfact>
</mgrwt>
</event>
<event>
 6    1  0.4630212E-004  0.2213122E+04  0.7818608E-02  0.8512986E-01
         -2   -1    0    0    0  501 -0.00000000000E+00  0.00000000000E+00  0.11511980308E+04  0.11511980308E+04  0.00000000000E+00 0. -1.
          2   -1    0    0  501    0  0.00000000000E+00 -0.00000000000E+00 -0.10636551115E+04  0.10636551115E+04  0.00000000000E+00 0.  1.
         23    2    1    2    0    0  0.72177329555E+03 -0.56292642102E+03 -0.57525192244E+03  0.10847470199E+04  0.88985826282E+02 0.  0.
         11    1    3    3    0    0  0.41938689239E+03 -0.31376241168E+03 -0.37914784605E+03  0.64659516365E+03  0.00000000000E+00 0. -1.
        -11    1    3    3    0    0  0.30238640316E+03 -0.24916400934E+03 -0.19610407639E+03  0.43815185626E+03  0.00000000000E+00 0.  1.
         22    1    1    2    0    0 -0.72177329555E+03  0.56292642102E+03  0.66279484172E+03  0.11301061224E+04  0.00000000000E+00 0. -1.
<mgrwt>
<rscale>  0 0.22131224E+04</rscale>
<asrwt>0</asrwt>
<pdfrwt beam="1">  1        2 0.16363925E+00 0.22131224E+04</pdfrwt>
<pdfrwt beam="2">  1       -2 0.17710739E+00 0.22131224E+04</pdfrwt>
<totfact> 0.39792156E+00</totfact>
</mgrwt>
</event>
<event>
 6    1  0.4630212E-004  0.2147819E+04  0.7818608E-02  0.8540467E-01
         -2   -1    0    0    0  501 -0.00000000000E+00  0.00000000000E+00  0.95342839113E+03  0.95342839113E+03  0.00000000000E+00 0. -1.
          2   -1    0    0  501    0  0.00000000000E+00 -0.00000000000E+00 -0.12096149986E+04  0.12096149986E+04  0.00000000000E+00 0.  1.
         23    2    1    2    0    0  0.53404777850E+03 -0.79471953670E+03 -0.61372980850E+03  0.11409752352E+04  0.91509768913E+02 0.  0.
         11    1    3    3    0    0  0.60381018095E+02 -0.46219023509E+02 -0.46159779008E+02  0.88953868260E+02  0.00000000000E+00 0.  1.
        -11    1    3    3    0    0  0.47366676041E+03 -0.74850051319E+03 -0.56757002949E+03  0.10520213670E+04  0.00000000000E+00 0. -1.
         22    1    1    2    0    0 -0.53404777850E+03  0.79471953670E+03  0.35754320107E+03  0.10220681545E+04  0.00000000000E+00 0. -1.
<mgrwt>
<rscale>  0 0.21478187E+04</rscale>
<asrwt>0</asrwt>
<pdfrwt beam="1">  1        2 0.18609461E+00 0.21478187E+04</pdfrwt>
<pdfrwt beam="2">  1       -2 0.14668129E+00 0.21478187E+04</pdfrwt>
<totfact> 0.54548849E+00</totfact>
</mgrwt>
</event>
<event>
 6    1  0.4630212E-004  0.1759810E+04  0.7818608E-02  0.8727969E-01
          2   -1    0    0  501    0  0.00000000000E+00  0.00000000000E+00  0.15620539589E+04  0.15620539589E+04  0.00000000000E+00 0.  1.
         -2   -1    0    0    0  501 -0.00000000000E+00 -0.00000000000E+00 -0.49565023484E+03  0.49565023484E+03  0.00000000000E+00 0. -1.
         23    2    1    2    0    0  0.25422946865E+03  0.83941208238E+03  0.57072949423E+03  0.10502627766E+04  0.89858097118E+02 0.  0.
         13    1    3    3    0    0  0.39607948893E+02  0.23659873149E+03  0.12558173084E+03  0.27077392873E+03  0.00000000000E+00 0. -1.
        -13    1    3    3    0    0  0.21462151976E+03  0.60281335090E+03  0.44514776339E+03  0.77948884791E+03  0.00000000000E+00 0.  1.
         22    1    1    2    0    0 -0.25422946865E+03 -0.83941208238E+03  0.49567422981E+03  0.10074414171E+04  0.00000000000E+00 0. -1.
<mgrwt>
<rscale>  0 0.17598095E+04</rscale>
<asrwt>0</asrwt>
<pdfrwt beam="1">  1        2 0.24031599E+00 0.17598095E+04</pdfrwt>
<pdfrwt beam="2">  1       -2 0.76253883E-01 0.17598095E+04</pdfrwt>
<totfact> 0.17070195E+01</totfact>
</mgrwt>
</event>
<event>
 6    1  0.4630212E-004  0.5569056E+04  0.7818608E-02  0.7746258E-01
          2   -1    0    0  501    0  0.00000000000E+00  0.00000000000E+00  0.33946782478E+04  0.33946782478E+04  0.00000000000E+00 0.  1.
         -2   -1    0    0    0  501 -0.00000000000E+00 -0.00000000000E+00 -0.22840446234E+04  0.22840446234E+04  0.00000000000E+00 0. -1.
         23    2    1    2    0    0 -0.21050672706E+03 -0.26945486727E+04  0.12353396241E+04  0.29730885244E+04  0.91026122324E+02 0.  0.
         13    1    3    3    0    0 -0.89320008894E+02 -0.10797568921E+04  0.54408127135E+03  0.12123850213E+04  0.00000000000E+00 0. -1.
        -13    1    3    3    0    0 -0.12118671817E+03 -0.16147917806E+04  0.69125835275E+03  0.17607035031E+04  0.00000000000E+00 0.  1.
         22    1    1    2    0    0  0.21050672706E+03  0.26945486727E+04 -0.12470599968E+03  0.27056343467E+04  0.00000000000E+00 0.  1.
<mgrwt>
<rscale>  0 0.55690561E+04</rscale>
<asrwt>0</asrwt>
<pdfrwt beam="1">  1        2 0.52225819E+00 0.55690561E+04</pdfrwt>
<pdfrwt beam="2">  1       -2 0.35139148E+00 0.55690561E+04</pdfrwt>
<totfact> 0.10187220E-02</totfact>
</mgrwt>
</event>
<event>
 6    1  0.4630212E-004  0.2936951E+04  0.7818608E-02  0.8261968E-01
          2   -1    0    0  501    0  0.00000000000E+00  0.00000000000E+00  0.42586654215E+04  0.42586654215E+04  0.00000000000E+00 0.  1.
         -2   -1    0    0    0  501 -0.00000000000E+00 -0.00000000000E+00 -0.50636061389E+03  0.50636061389E+03  0.00000000000E+00 0. -1.
         23    2    1    2    0    0 -0.32407299543E+03  0.12981995093E+04  0.28538974206E+04  0.31533557511E+04  0.92610655115E+02 0.  0.
         11    1    3    3    0    0 -0.12207832262E+03  0.66817083676E+03  0.14076752511E+04  0.15629795253E+04  0.00000000000E+00 0. -1.
        -11    1    3    3    0    0 -0.20199467281E+03  0.63002867251E+03  0.14462221695E+04  0.15903762258E+04  0.00000000000E+00 0.  1.
         22    1    1    2    0    0  0.32407299543E+03 -0.12981995093E+04  0.89840738700E+03  0.16116702843E+04  0.00000000000E+00 0. -1.
<mgrwt>
<rscale>  0 0.29369511E+04</rscale>
<asrwt>0</asrwt>
<pdfrwt beam="1">  1        2 0.65517927E+00 0.29369511E+04</pdfrwt>
<pdfrwt beam="2">  1       -2 0.77901636E-01 0.29369511E+04</pdfrwt>
<totfact> 0.26072539E-01</totfact>
</mgrwt>
</event>
<event>
 6    1  0.4630212E-004  0.2606180E+04  0.7818608E-02  0.8366105E-01
         -2   -1    0    0    0  501 -0.00000000000E+00  0.00000000000E+00  0.10678679488E+04  0.10678679488E+04  0.00000000000E+00 0. -1.
          2   -1    0    0  501    0  0.00000000000E+00 -0.00000000000E+00 -0.15901251751E+04  0.15901251751E+04  0.00000000000E+00 0.  1.
         23    2    1    2    0    0 -0.84342044317E+02  0.12898254413E+04 -0.41584125913E+03  0.13610399222E+04  0.93501163302E+02 0.  0.
         11    1    3    3    0    0 -0.52005057700E+02  0.23811771823E+03 -0.81324420836E+02  0.25694013930E+03  0.00000000000E+00 0.  1.
        -11    1    3    3    0    0 -0.32336986618E+02  0.10517077230E+04 -0.33451683829E+03  0.11040997829E+04  0.00000000000E+00 0. -1.
         22    1    1    2    0    0  0.84342044317E+02 -0.12898254413E+04 -0.10641596719E+03  0.12969532017E+04  0.00000000000E+00 0. -1.
<mgrwt>
<rscale>  0 0.26061801E+04</rscale>
<asrwt>0</asrwt>
<pdfrwt beam="1">  1        2 0.24463464E+00 0.26061801E+04</pdfrwt>
<pdfrwt beam="2">  1       -2 0.16428738E+00 0.26061801E+04</pdfrwt>
<totfact> 0.23400266E+00</totfact>
</mgrwt>
</event>
<event>
 6    1  0.4630212E-004  0.1499126E+04  0.7818608E-02  0.8885034E-01
          2   -1    0    0  501    0  0.00000000000E+00  0.00000000000E+00  0.38014071485E+03  0.38014071485E+03  0.00000000000E+00 0.  1.
         -2   -1    0    0    0  501 -0.00000000000E+00 -0.00000000000E+00 -0.14779914108E+04  0.14779914108E+04  0.00000000000E+00 0. -1.
         23    2    1    2    0    0  0.73849320755E+03 -0.10417503715E+03 -0.59666248437E+03  0.95956978536E+03  0.92430496851E+02 0.  0.
         11    1    3    3    0    0  0.12831535166E+03 -0.53775050196E+01 -0.63480099531E+02  0.14326014822E+03  0.00000000000E+00 0.  1.
        -11    1    3    3    0    0  0.61017785589E+03 -0.98797532134E+02 -0.53318238484E+03  0.81630963713E+03  0.00000000000E+00 0. -1.
         22    1    1    2    0    0 -0.73849320755E+03  0.10417503715E+03 -0.50118821156E+03  0.89856234028E+03  0.00000000000E+00 0.  1.
<mgrwt>
<rscale>  0 0.14991260E+04</rscale>
<asrwt>0</asrwt>
<pdfrwt beam="1">  1        2 0.58483187E-01 0.14991260E+04</pdfrwt>
<pdfrwt beam="2">  1       -2 0.22738330E+00 0.14991260E+04</pdfrwt>
<totfact> 0.72229542E+00</totfact>
</mgrwt>
</event>
<event>
 6    1  0.4630212E-004  0.3179245E+04  0.7818608E-02  0.8194320E-01
         -1   -1    0    0    0  501 -0.00000000000E+00  0.00000000000E+00  0.15709896933E+04  0.15709896933E+04  0.00000000000E+00 0. -1.
          1   -1    0    0  501    0  0.00000000000E+00 -0.00000000000E+00 -0.16084760875E+04  0.16084760875E+04  0.00000000000E+00 0.  1.
         23    2    1    2    0    0 -0.98404377158E+03 -0.12413712086E+04 -0.13587038009E+03  0.15923224254E+04  0.87665980801E+02 0.  0.
         11    1    3    3    0    0 -0.93178391155E+03 -0.11391024547E+04 -0.12457680333E+03  0.14769207968E+04  0.00000000000E+00 0.  1.
        -11    1    3    3    0    0 -0.52259860031E+02 -0.10226875393E+03 -0.11293576761E+02  0.11540162858E+03  0.00000000000E+00 0. -1.
         22    1    1    2    0    0  0.98404377158E+03  0.12413712086E+04  0.98383985882E+02  0.15871433554E+04  0.00000000000E+00 0. -1.
<mgrwt>
<rscale>  0 0.31792448E+04</rscale>
<asrwt>0</asrwt>
<pdfrwt beam="1">  1        1 0.24745786E+00 0.31792448E+04</pdfrwt>
<pdfrwt beam="2">  1       -1 0.24169072E+00 0.31792448E+04</pdfrwt>
<totfact> 0.36468505E-01</totfact>
</mgrwt>
</event>
<event>
 6    1  0.4630212E-004  0.2608712E+04  0.7818608E-02  0.8365248E-01
          2   -1    0    0  501    0  0.00000000000E+00  0.00000000000E+00  0.29237277800E+04  0.29237277800E+04  0.00000000000E+00 0.  1.
         -2   -1    0    0    0  501 -0.00000000000E+00 -0.00000000000E+00 -0.58190930634E+03  0.58190930634E+03  0.00000000000E+00 0. -1.
         23    2    1    2    0    0  0.10566326603E+04  0.59561574531E+03  0.18112951287E+04  0.21817467153E+04  0.89431491999E+02 0.  0.
         13    1    3    3    0    0  0.62331850133E+03  0.37239375170E+03  0.10115065598E+04  0.12451299454E+04  0.00000000000E+00 0.  1.
        -13    1    3    3    0    0  0.43331415896E+03  0.22322199361E+03  0.79978856884E+03  0.93661676988E+03  0.00000000000E+00 0. -1.
         22    1    1    2    0    0 -0.10566326603E+04 -0.59561574531E+03  0.53052334495E+03  0.13238903710E+04  0.00000000000E+00 0. -1.
<mgrwt>
<rscale>  0 0.26087119E+04</rscale>
<asrwt>0</asrwt>
<pdfrwt beam="1">  1        2 0.44980427E+00 0.26087119E+04</pdfrwt>
<pdfrwt beam="2">  1       -2 0.89524510E-01 0.26087119E+04</pdfrwt>
<totfact> 0.18365446E+00</totfact>
</mgrwt>
</event>
<event>
 6    1  0.4630212E-004  0.3088316E+04  0.7818608E-02  0.8218952E-01
         -2   -1    0    0    0  501 -0.00000000000E+00  0.00000000000E+00  0.86051353177E+03  0.86051353177E+03  0.00000000000E+00 0. -1.
          2   -1    0    0  501    0  0.00000000000E+00 -0.00000000000E+00 -0.27709308789E+04  0.27709308789E+04  0.00000000000E+00 0.  1.
         23    2    1    2    0    0  0.43791274837E+03  0.62063314777E+03 -0.25350859886E+04  0.26479994498E+04  0.91033164377E+02 0.  0.
         11    1    3    3    0    0  0.21407109769E+03  0.38113846424E+03 -0.14640829086E+04  0.15279501717E+04  0.00000000000E+00 0.  1.
        -11    1    3    3    0    0  0.22384165067E+03  0.23949468353E+03 -0.10710030800E+04  0.11200492781E+04  0.00000000000E+00 0. -1.
         22    1    1    2    0    0 -0.43791274837E+03 -0.62063314777E+03  0.62466864154E+03  0.98344496084E+03  0.00000000000E+00 0. -1.
<mgrwt>
<rscale>  0 0.30883157E+04</rscale>
<asrwt>0</asrwt>
<pdfrwt beam="1">  1        2 0.42629706E+00 0.30883157E+04</pdfrwt>
<pdfrwt beam="2">  1       -2 0.13238670E+00 0.30883157E+04</pdfrwt>
<totfact> 0.84818994E-01</totfact>
</mgrwt>
</event>
<event>
 6    1  0.4630212E-004  0.2012852E+04  0.7818608E-02  0.8600635E-01
         -2   -1    0    0    0  501 -0.00000000000E+00  0.00000000000E+00  0.78718785655E+03  0.78718785655E+03  0.00000000000E+00 0. -1.
          2   -1    0    0  501    0  0.00000000000E+00 -0.00000000000E+00 -0.12867236927E+04  0.12867236927E+04  0.00000000000E+00 0.  1.
         23    2    1    2    0    0  0.67463897019E+03  0.89818079791E+02  0.51079962190E+03  0.85572323648E+03  0.90227358193E+02 0.  0.
         13    1    3    3    0    0  0.29371282067E+03  0.40687773607E+02  0.27884456583E+03  0.40703440621E+03  0.00000000000E+00 0. -1.
        -13    1    3    3    0    0  0.38092614952E+03  0.49130306184E+02  0.23195505607E+03  0.44868883027E+03  0.00000000000E+00 0.  1.
         22    1    1    2    0    0 -0.67463897019E+03 -0.89818079791E+02 -0.10103354580E+04  0.12181883127E+04  0.00000000000E+00 0.  1.
<mgrwt>
<rscale>  0 0.20128520E+04</rscale>
<asrwt>0</asrwt>
<pdfrwt beam="1">  1        2 0.19795749E+00 0.20128520E+04</pdfrwt>
<pdfrwt beam="2">  1       -2 0.12110582E+00 0.20128520E+04</pdfrwt>
<totfact> 0.81080469E+00</totfact>
</mgrwt>
</event>
<event>
 6    1  0.4630212E-004  0.2147264E+04  0.7818608E-02  0.8540704E-01
         -2   -1    0    0    0  501 -0.00000000000E+00  0.00000000000E+00  0.68439747188E+03  0.68439747188E+03  0.00000000000E+00 0. -1.
          2   -1    0    0  501    0  0.00000000000E+00 -0.00000000000E+00 -0.16842345162E+04  0.16842345162E+04  0.00000000000E+00 0.  1.
         23    2    1    2    0    0  0.79320450369E+03 -0.71018323028E+03 -0.63698643449E+03  0.12438234842E+04  0.88382899858E+02 0.  0.
         11    1    3    3    0    0  0.24823171706E+03 -0.23882130507E+03 -0.25268689672E+03  0.42720635398E+03  0.00000000000E+00 0.  1.
        -11    1    3    3    0    0  0.54497278663E+03 -0.47136192522E+03 -0.38429953778E+03  0.81661713027E+03  0.00000000000E+00 0. -1.
         22    1    1    2    0    0 -0.79320450369E+03  0.71018323028E+03 -0.36285060984E+03  0.11248085038E+04  0.00000000000E+00 0. -1.
<mgrwt>
<rscale>  0 0.21472642E+04</rscale>
<asrwt>0</asrwt>
<pdfrwt beam="1">  1        2 0.25911300E+00 0.21472642E+04</pdfrwt>
<pdfrwt beam="2">  1       -2 0.10529192E+00 0.21472642E+04</pdfrwt>
<totfact> 0.67084676E+00</totfact>
</mgrwt>
</event>
<event>
 6    1  0.4630212E-004  0.1186639E+04  0.7818608E-02  0.9124632E-01
          2   -1    0    0  501    0  0.00000000000E+00  0.00000000000E+00  0.11497760980E+04  0.11497760980E+04  0.00000000000E+00 0.  1.
         -2   -1    0    0    0  501 -0.00000000000E+00 -0.00000000000E+00 -0.30617090283E+03  0.30617090283E+03  0.00000000000E+00 0. -1.
         23    2    1    2    0    0  0.18167349418E+03 -0.51712144735E+03  0.69198550214E+03  0.88725694365E+03  0.89224991426E+02 0.  0.
         13    1    3    3    0    0  0.10409344698E+03 -0.20960229273E+03  0.24112827027E+03  0.33602293009E+03  0.00000000000E+00 0. -1.
        -13    1    3    3    0    0  0.77580047195E+02 -0.30751915461E+03  0.45085723187E+03  0.55123401356E+03  0.00000000000E+00 0.  1.
         22    1    1    2    0    0 -0.18167349418E+03  0.51712144735E+03  0.15161969300E+03  0.56869005715E+03  0.00000000000E+00 0.  1.
<mgrwt>
<rscale>  0 0.11866389E+04</rscale>
<asrwt>0</asrwt>
<pdfrwt beam="1">  1        2 0.17688863E+00 0.11866389E+04</pdfrwt>
<pdfrwt beam="2">  1       -2 0.47103216E-01 0.11866389E+04</pdfrwt>
<totfact> 0.85651377E+01</totfact>
</mgrwt>
</event>
<event>
 6    1  0.4630212E-004  0.3010559E+04  0.7818608E-02  0.8240722E-01
         -2   -1    0    0    0  501 -0.00000000000E+00  0.00000000000E+00  0.96417729525E+03  0.96417729525E+03  0.00000000000E+00 0. -1.
          2   -1    0    0  501    0  0.00000000000E+00 -0.00000000000E+00 -0.23500511096E+04  0.23500511096E+04  0.00000000000E+00 0.  1.
         23    2    1    2    0    0 -0.86143829026E+03 -0.85526380012E+03 -0.16709254862E+04  0.20673095818E+04  0.90690853510E+02 0.  0.
         13    1    3    3    0    0 -0.61433481092E+03 -0.65917262375E+03 -0.12692313909E+04  0.15565552131E+04  0.00000000000E+00 0. -1.
        -13    1    3    3    0    0 -0.24710347933E+03 -0.19609117637E+03 -0.40169409521E+03  0.51075436863E+03  0.00000000000E+00 0.  1.
         22    1    1    2    0    0  0.86143829026E+03  0.85526380012E+03  0.28505167181E+03  0.12469188231E+04  0.00000000000E+00 0. -1.
<mgrwt>
<rscale>  0 0.30105587E+04</rscale>
<asrwt>0</asrwt>
<pdfrwt beam="1">  1        2 0.36154632E+00 0.30105587E+04</pdfrwt>
<pdfrwt beam="2">  1       -2 0.14833497E+00 0.30105587E+04</pdfrwt>
<totfact> 0.11205469E+00</totfact>
</mgrwt>
</event>
<event>
 6    1  0.4630212E-004  0.2259817E+04  0.7818608E-02  0.8493935E-01
         -2   -1    0    0    0  501 -0.00000000000E+00  0.00000000000E+00  0.60242136603E+03  0.60242136603E+03  0.00000000000E+00 0. -1.
          2   -1    0    0  501    0  0.00000000000E+00 -0.00000000000E+00 -0.21192702330E+04  0.21192702330E+04  0.00000000000E+00 0.  1.
         23    2    1    2    0    0  0.47507457188E+03 -0.72071460959E+03  0.11284456688E+03  0.87750449202E+03  0.11024899061E+03 0.  0.
         11    1    3    3    0    0  0.55697103729E+02 -0.13461554976E+03  0.50244575022E+02  0.15410396141E+03  0.00000000000E+00 0.  1.
        -11    1    3    3    0    0  0.41937746815E+03 -0.58609905982E+03  0.62599991857E+02  0.72340053062E+03  0.00000000000E+00 0. -1.
         22    1    1    2    0    0 -0.47507457188E+03  0.72071460959E+03 -0.16296934338E+04  0.18441871070E+04  0.00000000000E+00 0.  1.
<mgrwt>
<rscale>  0 0.22598174E+04</rscale>
<asrwt>0</asrwt>
<pdfrwt beam="1">  1        2 0.32604158E+00 0.22598174E+04</pdfrwt>
<pdfrwt beam="2">  1       -2 0.92680208E-01 0.22598174E+04</pdfrwt>
<totfact> 0.51468766E+00</totfact>
</mgrwt>
</event>
<event>
 6    1  0.4630212E-004  0.2280906E+04  0.7818608E-02  0.8485488E-01
          2   -1    0    0  501    0  0.00000000000E+00  0.00000000000E+00  0.26143635079E+04  0.26143635079E+04  0.00000000000E+00 0.  1.
         -2   -1    0    0    0  501 -0.00000000000E+00 -0.00000000000E+00 -0.49749528118E+03  0.49749528118E+03  0.00000000000E+00 0. -1.
         23    2    1    2    0    0 -0.12913613560E+03  0.85290091496E+03  0.20741833943E+04  0.22481817041E+04  0.89264266414E+02 0.  0.
         11    1    3    3    0    0 -0.11939399477E+03  0.72894561572E+03  0.16898697255E+04  0.18442549514E+04  0.00000000000E+00 0. -1.
        -11    1    3    3    0    0 -0.97421408315E+01  0.12395529924E+03  0.38431366877E+03  0.40392675266E+03  0.00000000000E+00 0.  1.
         22    1    1    2    0    0  0.12913613560E+03 -0.85290091496E+03  0.42684832458E+02  0.86367708501E+03  0.00000000000E+00 0. -1.
<mgrwt>
<rscale>  0 0.22809064E+04</rscale>
<asrwt>0</asrwt>
<pdfrwt beam="1">  1        2 0.40220976E+00 0.22809064E+04</pdfrwt>
<pdfrwt beam="2">  1       -2 0.76537737E-01 0.22809064E+04</pdfrwt>
<totfact> 0.41369493E+00</totfact>
</mgrwt>
</event>
<event>
 6    1  0.4630212E-004  0.1338964E+04  0.7818608E-02  0.8999225E-01
          2   -1    0    0  501    0  0.00000000000E+00  0.00000000000E+00  0.25167703788E+04  0.25167703788E+04  0.00000000000E+00 0.  1.
         -2   -1    0    0    0  501 -0.00000000000E+00 -0.00000000000E+00 -0.17808774137E+03  0.17808774137E+03  0.00000000000E+00 0. -1.
         23    2    1    2    0    0  0.11311056651E+03 -0.64870919685E+03  0.13801789333E+04  0.15319535784E+04  0.91489104605E+02 0.  0.
         11    1    3    3    0    0  0.18652887438E+02 -0.23949794851E+03  0.59166072429E+03  0.63856840684E+03  0.00000000000E+00 0.  1.
        -11    1    3    3    0    0  0.94457679068E+02 -0.40921124834E+03  0.78851820897E+03  0.89338517157E+03  0.00000000000E+00 0. -1.
         22    1    1    2    0    0 -0.11311056651E+03  0.64870919685E+03  0.95850370421E+03  0.11629045418E+04  0.00000000000E+00 0. -1.
<mgrwt>
<rscale>  0 0.13389637E+04</rscale>
<asrwt>0</asrwt>
<pdfrwt beam="1">  1        2 0.38719542E+00 0.13389637E+04</pdfrwt>
<pdfrwt beam="2">  1       -2 0.27398116E-01 0.13389637E+04</pdfrwt>
<totfact> 0.40556241E+01</totfact>
</mgrwt>
</event>
<event>
 6    1  0.4630212E-004  0.1234112E+04  0.7818608E-02  0.9083511E-01
         -2   -1    0    0    0  501 -0.00000000000E+00  0.00000000000E+00  0.34971004731E+03  0.34971004731E+03  0.00000000000E+00 0. -1.
          2   -1    0    0  501    0  0.00000000000E+00 -0.00000000000E+00 -0.10887831261E+04  0.10887831261E+04  0.00000000000E+00 0.  1.
         23    2    1    2    0    0  0.16280388114E+03  0.18747795470E+03 -0.10257406135E+04  0.10592421184E+04  0.90537130921E+02 0.  0.
         11    1    3    3    0    0  0.88583245807E+02  0.11667496190E+03 -0.76787473412E+03  0.78172350960E+03  0.00000000000E+00 0. -1.
        -11    1    3    3    0    0  0.74220635336E+02  0.70802992801E+02 -0.25786587939E+03  0.27751860884E+03  0.00000000000E+00 0.  1.
         22    1    1    2    0    0 -0.16280388114E+03 -0.18747795470E+03  0.28666753473E+03  0.37925105495E+03  0.00000000000E+00 0. -1.
<mgrwt>
<rscale>  0 0.12341125E+04</rscale>
<asrwt>0</asrwt>
<pdfrwt beam="1">  1        2 0.16750510E+00 0.12341125E+04</pdfrwt>
<pdfrwt beam="2">  1       -2 0.53801545E-01 0.12341125E+04</pdfrwt>
<totfact> 0.70926750E+01</totfact>
</mgrwt>
</event>
<event>
 6    1  0.4630212E-004  0.2090987E+04  0.7818608E-02  0.8565224E-01
         -2   -1    0    0    0  501 -0.00000000000E+00  0.00000000000E+00  0.10203627364E+04  0.10203627364E+04  0.00000000000E+00 0. -1.
          2   -1    0    0  501    0  0.00000000000E+00 -0.00000000000E+00 -0.10712436340E+04  0.10712436340E+04  0.00000000000E+00 0.  1.
         23    2    1    2    0    0  0.18049319931E+03  0.12510041737E+03  0.99496918268E+03  0.10229481932E+04  0.90727184480E+02 0.  0.
         13    1    3    3    0    0  0.12893651400E+03  0.40169831491E+02  0.65402499315E+03  0.66782253007E+03  0.00000000000E+00 0.  1.
        -13    1    3    3    0    0  0.51556685310E+02  0.84930585879E+02  0.34094418953E+03  0.35512566310E+03  0.00000000000E+00 0. -1.
         22    1    1    2    0    0 -0.18049319931E+03 -0.12510041737E+03 -0.10458500803E+04  0.10686581773E+04  0.00000000000E+00 0.  1.
<mgrwt>
<rscale>  0 0.20909874E+04</rscale>
<asrwt>0</asrwt>
<pdfrwt beam="1">  1        2 0.16480671E+00 0.20909874E+04</pdfrwt>
<pdfrwt beam="2">  1       -2 0.15697888E+00 0.20909874E+04</pdfrwt>
<totfact> 0.55534479E+00</totfact>
</mgrwt>
</event>
<event>
 6    1  0.4630212E-004  0.1664440E+04  0.7818608E-02  0.8781910E-01
          2   -1    0    0  501    0  0.00000000000E+00  0.00000000000E+00  0.51387591895E+03  0.51387591895E+03  0.00000000000E+00 0.  1.
         -2   -1    0    0    0  501 -0.00000000000E+00 -0.00000000000E+00 -0.13477766456E+04  0.13477766456E+04  0.00000000000E+00 0. -1.
         23    2    1    2    0    0 -0.77655773109E+03 -0.13948683035E+03 -0.13070412109E+03  0.80477794964E+03  0.89919382740E+02 0.  0.
         13    1    3    3    0    0 -0.33911584720E+03 -0.98767802170E+02 -0.83291129015E+02  0.36289399105E+03  0.00000000000E+00 0. -1.
        -13    1    3    3    0    0 -0.43744188389E+03 -0.40719028181E+02 -0.47412992073E+02  0.44188395859E+03  0.00000000000E+00 0.  1.
         22    1    1    2    0    0  0.77655773109E+03  0.13948683035E+03 -0.70319660555E+03  0.10568746149E+04  0.00000000000E+00 0.  1.
<mgrwt>
<rscale>  0 0.16644398E+04</rscale>
<asrwt>0</asrwt>
<pdfrwt beam="1">  1        2 0.79057835E-01 0.16644398E+04</pdfrwt>
<pdfrwt beam="2">  1       -2 0.20735025E+00 0.16644398E+04</pdfrwt>
<totfact> 0.67723323E+00</totfact>
</mgrwt>
</event>
<event>
 6    1  0.4630212E-004  0.2187482E+04  0.7818608E-02  0.8523656E-01
          2   -1    0    0  501    0  0.00000000000E+00  0.00000000000E+00  0.48869174039E+03  0.48869174039E+03  0.00000000000E+00 0.  1.
         -2   -1    0    0    0  501 -0.00000000000E+00 -0.00000000000E+00 -0.24479024021E+04  0.24479024021E+04  0.00000000000E+00 0. -1.
         23    2    1    2    0    0 -0.15046381622E+03  0.46509507046E+03 -0.22919629181E+04  0.23452593399E+04  0.90523858954E+02 0.  0.
         13    1    3    3    0    0 -0.10881917099E+03  0.24918555374E+03 -0.10941381055E+04  0.11274188424E+04  0.00000000000E+00 0.  1.
        -13    1    3    3    0    0 -0.41644645235E+02  0.21590951672E+03 -0.11978248126E+04  0.12178404976E+04  0.00000000000E+00 0. -1.
         22    1    1    2    0    0  0.15046381622E+03 -0.46509507046E+03  0.33275225641E+03  0.59133480255E+03  0.00000000000E+00 0.  1.
<mgrwt>
<rscale>  0 0.21874823E+04</rscale>
<asrwt>0</asrwt>
<pdfrwt beam="1">  1        2 0.75183345E-01 0.21874823E+04</pdfrwt>
<pdfrwt beam="2">  1       -2 0.37660037E+00 0.21874823E+04</pdfrwt>
<totfact> 0.61036620E-01</totfact>
</mgrwt>
</event>
<event>
 6    1  0.4630212E-004  0.2074914E+04  0.7818608E-02  0.8572375E-01
         -2   -1    0    0    0  501 -0.00000000000E+00  0.00000000000E+00  0.62597239526E+03  0.62597239526E+03  0.00000000000E+00 0.  1.
          2   -1    0    0  501    0  0.00000000000E+00 -0.00000000000E+00 -0.17194321701E+04  0.17194321701E+04  0.00000000000E+00 0. -1.
         23    2    1    2    0    0  0.31890632694E+03  0.58212685482E+03 -0.14460958729E+04  0.15937895455E+04  0.91645629036E+02 0.  0.
         11    1    3    3    0    0  0.10092952531E+03  0.18142137260E+03 -0.55852509397E+03  0.59586136316E+03  0.00000000000E+00 0.  1.
        -11    1    3    3    0    0  0.21797680163E+03  0.40070548222E+03 -0.88757077889E+03  0.99792818232E+03  0.00000000000E+00 0. -1.
         22    1    1    2    0    0 -0.31890632694E+03 -0.58212685482E+03  0.35263609803E+03  0.75161501987E+03  0.00000000000E+00 0.  1.
<mgrwt>
<rscale>  0 0.20749140E+04</rscale>
<asrwt>0</asrwt>
<pdfrwt beam="1">  1        2 0.26452802E+00 0.20749140E+04</pdfrwt>
<pdfrwt beam="2">  1       -2 0.96303448E-01 0.20749140E+04</pdfrwt>
<totfact> 0.79741691E+00</totfact>
</mgrwt>
</event>
<event>
 6    1  0.4630212E-004  0.4913127E+04  0.7818608E-02  0.7842050E-01
          2   -1    0    0  501    0  0.00000000000E+00  0.00000000000E+00  0.40999262053E+04  0.40999262053E+04  0.00000000000E+00 0.  1.
         -2   -1    0    0    0  501 -0.00000000000E+00 -0.00000000000E+00 -0.14719057967E+04  0.14719057967E+04  0.00000000000E+00 0. -1.
         23    2    1    2    0    0  0.17116298558E+04 -0.48482636811E+03  0.32336622792E+04  0.36925940058E+04  0.11809058049E+03 0.  0.
         11    1    3    3    0    0  0.36906236739E+03 -0.69686984358E+02  0.75573145379E+03  0.84391547980E+03  0.00000000000E+00 0.  1.
        -11    1    3    3    0    0  0.13425674884E+04 -0.41513938375E+03  0.24779308254E+04  0.28486785260E+04  0.00000000000E+00 0. -1.
         22    1    1    2    0    0 -0.17116298558E+04  0.48482636811E+03 -0.60564187062E+03  0.18792379961E+04  0.00000000000E+00 0. -1.
<mgrwt>
<rscale>  0 0.49131274E+04</rscale>
<asrwt>0</asrwt>
<pdfrwt beam="1">  1        2 0.63075787E+00 0.49131274E+04</pdfrwt>
<pdfrwt beam="2">  1       -2 0.22644705E+00 0.49131274E+04</pdfrwt>
<totfact> 0.18573614E-02</totfact>
</mgrwt>
</event>
<event>
 6    1  0.4630212E-004  0.3466983E+04  0.7818608E-02  0.8121659E-01
          2   -1    0    0  501    0  0.00000000000E+00  0.00000000000E+00  0.26471053563E+04  0.26471053563E+04  0.00000000000E+00 0.  1.
         -2   -1    0    0    0  501 -0.00000000000E+00 -0.00000000000E+00 -0.11351994407E+04  0.11351994407E+04  0.00000000000E+00 0. -1.
         23    2    1    2    0    0 -0.10573306061E+04 -0.13604808024E+04  0.56041818246E+03  0.18140098672E+04  0.87790858621E+02 0.  0.
         11    1    3    3    0    0 -0.18105507004E+03 -0.28969630315E+03  0.10760763712E+03  0.35816796341E+03  0.00000000000E+00 0. -1.
        -11    1    3    3    0    0 -0.87627553607E+03 -0.10707844992E+04  0.45281054534E+03  0.14558419038E+04  0.00000000000E+00 0.  1.
         22    1    1    2    0    0  0.10573306061E+04  0.13604808024E+04  0.95148773317E+03  0.19682949298E+04  0.00000000000E+00 0.  1.
<mgrwt>
<rscale>  0 0.34669828E+04</rscale>
<asrwt>0</asrwt>
<pdfrwt beam="1">  1        2 0.40724698E+00 0.34669828E+04</pdfrwt>
<pdfrwt beam="2">  1       -2 0.17464607E+00 0.34669828E+04</pdfrwt>
<totfact> 0.46466715E-01</totfact>
</mgrwt>
</event>
<event>
 6    1  0.4630212E-004  0.5223069E+04  0.7818608E-02  0.7794989E-01
          2   -1    0    0  501    0  0.00000000000E+00  0.00000000000E+00  0.25892223792E+04  0.25892223792E+04  0.00000000000E+00 0.  1.
         -2   -1    0    0    0  501 -0.00000000000E+00 -0.00000000000E+00 -0.26340384353E+04  0.26340384353E+04  0.00000000000E+00 0. -1.
         23    2    1    2    0    0 -0.69189886090E+03 -0.23831777044E+04 -0.83340722981E+03  0.26193913777E+04  0.91561862707E+02 0.  0.
         11    1    3    3    0    0 -0.23115164106E+03 -0.88696046419E+03 -0.34606165934E+03  0.97973905621E+03  0.00000000000E+00 0.  1.
        -11    1    3    3    0    0 -0.46074721984E+03 -0.14962172402E+04 -0.48734557047E+03  0.16396523215E+04  0.00000000000E+00 0. -1.
         22    1    1    2    0    0  0.69189886090E+03  0.23831777044E+04  0.78859117371E+03  0.26038694367E+04  0.00000000000E+00 0. -1.
<mgrwt>
<rscale>  0 0.52230685E+04</rscale>
<asrwt>0</asrwt>
<pdfrwt beam="1">  1        2 0.39834190E+00 0.52230685E+04</pdfrwt>
<pdfrwt beam="2">  1       -2 0.40523668E+00 0.52230685E+04</pdfrwt>
<totfact> 0.15164059E-02</totfact>
</mgrwt>
</event>
<event>
 6    1  0.4630212E-004  0.8025298E+03  0.7818608E-02  0.9556363E-01
          2   -1    0    0  501    0  0.00000000000E+00  0.00000000000E+00  0.65732509161E+03  0.65732509161E+03  0.00000000000E+00 0.  1.
         -2   -1    0    0    0  501 -0.00000000000E+00 -0.00000000000E+00 -0.24495263519E+03  0.24495263519E+03  0.00000000000E+00 0. -1.
         23    2    1    2    0    0  0.27822790825E+03 -0.38665931796E+02  0.52306611551E+03  0.60035238938E+03  0.88988802807E+02 0.  0.
         13    1    3    3    0    0  0.24688769100E+03 -0.63161510027E+02  0.45593902391E+03  0.52232490065E+03  0.00000000000E+00 0. -1.
        -13    1    3    3    0    0  0.31340217249E+02  0.24495578231E+02  0.67127091602E+02  0.78027488727E+02  0.00000000000E+00 0.  1.
         22    1    1    2    0    0 -0.27822790825E+03  0.38665931796E+02 -0.11069365909E+03  0.30192533742E+03  0.00000000000E+00 0. -1.
<mgrwt>
<rscale>  0 0.80252978E+03</rscale>
<asrwt>0</asrwt>
<pdfrwt beam="1">  1        2 0.10112694E+00 0.80252978E+03</pdfrwt>
<pdfrwt beam="2">  1       -2 0.37685021E-01 0.80252978E+03</pdfrwt>
<totfact> 0.29619677E+02</totfact>
</mgrwt>
</event>
<event>
 6    1  0.5560530E-004  0.4452800E+04  0.7818608E-02  0.7918953E-01
         -2   -1    0    0    0  501 -0.00000000000E+00  0.00000000000E+00  0.12257515393E+04  0.12257515393E+04  0.00000000000E+00 0. -1.
          2   -1    0    0  501    0  0.00000000000E+00 -0.00000000000E+00 -0.40439321072E+04  0.40439321072E+04  0.00000000000E+00 0.  1.
         23    2    1    2    0    0 -0.80135453939E+03 -0.14989888399E+04 -0.31096502276E+04  0.35451282829E+04  0.94198535624E+02 0.  0.
         11    1    3    3    0    0 -0.37798489870E+03 -0.77470331212E+03 -0.15037051191E+04  0.17332532679E+04  0.00000000000E+00 0. -1.
        -11    1    3    3    0    0 -0.42336964069E+03 -0.72428552773E+03 -0.16059451085E+04  0.18118750150E+04  0.00000000000E+00 0.  1.
         22    1    1    2    0    0  0.80135453939E+03  0.14989888399E+04  0.29146965971E+03  0.17245553637E+04  0.00000000000E+00 0. -1.
<mgrwt>
<rscale>  0 0.44527996E+04</rscale>
<asrwt>0</asrwt>
<pdfrwt beam="1">  1        2 0.62214339E+00 0.44527996E+04</pdfrwt>
<pdfrwt beam="2">  1       -2 0.18857716E+00 0.44527996E+04</pdfrwt>
<totfact> 0.37796653E-02</totfact>
</mgrwt>
</event>
<event>
 6    1  0.4630212E-004  0.2282384E+04  0.7818608E-02  0.8484899E-01
          2   -1    0    0  501    0  0.00000000000E+00  0.00000000000E+00  0.42025055248E+04  0.42025055248E+04  0.00000000000E+00 0.  1.
         -2   -1    0    0    0  501 -0.00000000000E+00 -0.00000000000E+00 -0.30989112783E+03  0.30989112783E+03  0.00000000000E+00 0. -1.
         23    2    1    2    0    0  0.81709665435E+03 -0.79351315103E+03  0.20107802608E+04  0.23127126345E+04  0.89957819327E+02 0.  0.
         11    1    3    3    0    0  0.31462477563E+03 -0.36349239576E+03  0.81489295512E+03  0.94613212582E+03  0.00000000000E+00 0.  1.
        -11    1    3    3    0    0  0.50247187872E+03 -0.43002075527E+03  0.11958873057E+04  0.13665805087E+04  0.00000000000E+00 0. -1.
         22    1    1    2    0    0 -0.81709665435E+03  0.79351315103E+03  0.18818341362E+04  0.21996840181E+04  0.00000000000E+00 0. -1.
<mgrwt>
<rscale>  0 0.22823840E+04</rscale>
<asrwt>0</asrwt>
<pdfrwt beam="1">  1        2 0.64653927E+00 0.22823840E+04</pdfrwt>
<pdfrwt beam="2">  1       -2 0.47675561E-01 0.22823840E+04</pdfrwt>
<totfact> 0.88237236E-01</totfact>
</mgrwt>
</event>
<event>
 6    1  0.4630212E-004  0.3167346E+04  0.7818608E-02  0.8197495E-01
          2   -1    0    0  501    0  0.00000000000E+00  0.00000000000E+00  0.30314013226E+04  0.30314013226E+04  0.00000000000E+00 0.  1.
         -2   -1    0    0    0  501 -0.00000000000E+00 -0.00000000000E+00 -0.82734668078E+03  0.82734668078E+03  0.00000000000E+00 0. -1.
         23    2    1    2    0    0  0.53996103012E+03  0.10722022312E+04  0.23589244163E+04  0.26483099894E+04  0.88576857965E+02 0.  0.
         13    1    3    3    0    0  0.17094436887E+03  0.43223899342E+03  0.93495222370E+03  0.10441207714E+04  0.00000000000E+00 0.  1.
        -13    1    3    3    0    0  0.36901666125E+03  0.63996323779E+03  0.14239721926E+04  0.16041892180E+04  0.00000000000E+00 0. -1.
         22    1    1    2    0    0 -0.53996103012E+03 -0.10722022312E+04 -0.15486977444E+03  0.12104380140E+04  0.00000000000E+00 0. -1.
<mgrwt>
<rscale>  0 0.31673458E+04</rscale>
<asrwt>0</asrwt>
<pdfrwt beam="1">  1        2 0.46636943E+00 0.31673458E+04</pdfrwt>
<pdfrwt beam="2">  1       -2 0.12728411E+00 0.31673458E+04</pdfrwt>
<totfact> 0.64305124E-01</totfact>
</mgrwt>
</event>
<event>
 6    1  0.4630212E-004  0.7822366E+03  0.7818608E-02  0.9586091E-01
          2   -1    0    0  501    0  0.00000000000E+00  0.00000000000E+00  0.74487503247E+03  0.74487503247E+03  0.00000000000E+00 0.  1.
         -2   -1    0    0    0  501 -0.00000000000E+00 -0.00000000000E+00 -0.20536806105E+03  0.20536806105E+03  0.00000000000E+00 0. -1.
         23    2    1    2    0    0 -0.18319355990E+02 -0.16932180158E+03  0.69391093925E+03  0.72036039175E+03  0.91658229776E+02 0.  0.
         13    1    3    3    0    0 -0.47324708955E+02 -0.44316371852E+02  0.21602216340E+03  0.22554188961E+03  0.00000000000E+00 0. -1.
        -13    1    3    3    0    0  0.29005352966E+02 -0.12500542972E+03  0.47788877586E+03  0.49481850213E+03  0.00000000000E+00 0.  1.
         22    1    1    2    0    0  0.18319355990E+02  0.16932180158E+03 -0.15440396784E+03  0.22988270178E+03  0.00000000000E+00 0. -1.
<mgrwt>
<rscale>  0 0.78223664E+03</rscale>
<asrwt>0</asrwt>
<pdfrwt beam="1">  1        2 0.11459616E+00 0.78223664E+03</pdfrwt>
<pdfrwt beam="2">  1       -2 0.31595087E-01 0.78223664E+03</pdfrwt>
<totfact> 0.35380902E+02</totfact>
</mgrwt>
</event>
<event>
 6    1  0.4630212E-004  0.3336906E+04  0.7818608E-02  0.8153568E-01
          2   -1    0    0  501    0  0.00000000000E+00  0.00000000000E+00  0.12795039372E+04  0.12795039372E+04  0.00000000000E+00 0.  1.
         -2   -1    0    0    0  501 -0.00000000000E+00 -0.00000000000E+00 -0.21756366919E+04  0.21756366919E+04  0.00000000000E+00 0. -1.
         23    2    1    2    0    0 -0.47392385063E+03 -0.11029393900E+04 -0.16463829358E+04  0.20395296486E+04  0.89584049304E+02 0.  0.
         11    1    3    3    0    0 -0.33620092616E+03 -0.85884773850E+03 -0.12230425899E+04  0.15318236443E+04  0.00000000000E+00 0.  1.
        -11    1    3    3    0    0 -0.13772292447E+03 -0.24409165153E+03 -0.42334034588E+03  0.50770600422E+03  0.00000000000E+00 0. -1.
         22    1    1    2    0    0  0.47392385063E+03  0.11029393900E+04  0.75025018105E+03  0.14156109806E+04  0.00000000000E+00 0.  1.
<mgrwt>
<rscale>  0 0.33369062E+04</rscale>
<asrwt>0</asrwt>
<pdfrwt beam="1">  1        2 0.19684676E+00 0.33369062E+04</pdfrwt>
<pdfrwt beam="2">  1       -2 0.33471334E+00 0.33369062E+04</pdfrwt>
<totfact> 0.27447680E-01</totfact>
</mgrwt>
</event>
<event>
 6    1  0.4630212E-004  0.8372940E+03  0.7818608E-02  0.9507551E-01
          2   -1    0    0  501    0  0.00000000000E+00  0.00000000000E+00  0.16448280380E+04  0.16448280380E+04  0.00000000000E+00 0.  1.
         -2   -1    0    0    0  501 -0.00000000000E+00 -0.00000000000E+00 -0.10655538803E+03  0.10655538803E+03  0.00000000000E+00 0. -1.
         23    2    1    2    0    0  0.23461426448E+03 -0.15292045319E+03  0.13711414572E+03  0.32251195800E+03  0.82372058332E+02 0.  0.
         13    1    3    3    0    0  0.21352200195E+03 -0.13645077796E+03  0.14819140464E+03  0.29354923357E+03  0.00000000000E+00 0. -1.
        -13    1    3    3    0    0  0.21092262533E+02 -0.16469675236E+02 -0.11077258921E+02  0.28962724429E+02  0.00000000000E+00 0.  1.
         22    1    1    2    0    0 -0.23461426448E+03  0.15292045319E+03  0.14011585043E+04  0.14288714680E+04  0.00000000000E+00 0.  1.
<mgrwt>
<rscale>  0 0.83729395E+03</rscale>
<asrwt>0</asrwt>
<pdfrwt beam="1">  1        2 0.25305045E+00 0.83729395E+03</pdfrwt>
<pdfrwt beam="2">  1       -2 0.16393138E-01 0.83729395E+03</pdfrwt>
<totfact> 0.32019129E+02</totfact>
</mgrwt>
</event>
<event>
 6    1  0.4630212E-004  0.2351482E+04  0.7818608E-02  0.8457895E-01
          2   -1    0    0  501    0  0.00000000000E+00  0.00000000000E+00  0.31083930119E+04  0.31083930119E+04  0.00000000000E+00 0.  1.
         -2   -1    0    0    0  501 -0.00000000000E+00 -0.00000000000E+00 -0.44472081080E+03  0.44472081080E+03  0.00000000000E+00 0. -1.
         23    2    1    2    0    0  0.34064848025E+03 -0.10155702462E+04  0.20598756132E+04  0.23234819137E+04  0.89757170189E+02 0.  0.
         11    1    3    3    0    0  0.12672877350E+03 -0.33528863733E+03  0.77794351879E+03  0.85654817190E+03  0.00000000000E+00 0.  1.
        -11    1    3    3    0    0  0.21391970675E+03 -0.68028160884E+03  0.12819320944E+04  0.14669337418E+04  0.00000000000E+00 0. -1.
         22    1    1    2    0    0 -0.34064848025E+03  0.10155702462E+04  0.60379658789E+03  0.12296319090E+04  0.00000000000E+00 0. -1.
<mgrwt>
<rscale>  0 0.23514821E+04</rscale>
<asrwt>0</asrwt>
<pdfrwt beam="1">  1        2 0.47821430E+00 0.23514821E+04</pdfrwt>
<pdfrwt beam="2">  1       -2 0.68418588E-01 0.23514821E+04</pdfrwt>
<totfact> 0.26243050E+00</totfact>
</mgrwt>
</event>
<event>
 6    1  0.4630212E-004  0.2304982E+04  0.7818608E-02  0.8475960E-01
          2   -1    0    0  501    0  0.00000000000E+00  0.00000000000E+00  0.15871741759E+04  0.15871741759E+04  0.00000000000E+00 0.  1.
         -2   -1    0    0    0  501 -0.00000000000E+00 -0.00000000000E+00 -0.83685520990E+03  0.83685520990E+03  0.00000000000E+00 0. -1.
         23    2    1    2    0    0 -0.37261816605E+03 -0.93601170094E+03  0.96034884343E+03  0.13949158102E+04  0.92509537095E+02 0.  0.
         13    1    3    3    0    0 -0.62014578885E+02 -0.23738013553E+03  0.26965803362E+03  0.36456904947E+03  0.00000000000E+00 0. -1.
        -13    1    3    3    0    0 -0.31060358717E+03 -0.69863156542E+03  0.69069080981E+03  0.10303467607E+04  0.00000000000E+00 0.  1.
         22    1    1    2    0    0  0.37261816605E+03  0.93601170094E+03 -0.21002987748E+03  0.10291135756E+04  0.00000000000E+00 0. -1.
<mgrwt>
<rscale>  0 0.23049815E+04</rscale>
<asrwt>0</asrwt>
<pdfrwt beam="1">  1        2 0.24418064E+00 0.23049815E+04</pdfrwt>
<pdfrwt beam="2">  1       -2 0.12874696E+00 0.23049815E+04</pdfrwt>
<totfact> 0.45739463E+00</totfact>
</mgrwt>
</event>
<event>
 6    1  0.4630212E-004  0.1495966E+04  0.7818608E-02  0.8887140E-01
          2   -1    0    0  501    0  0.00000000000E+00  0.00000000000E+00  0.30551928140E+04  0.30551928140E+04  0.00000000000E+00 0.  1.
         -2   -1    0    0    0  501 -0.00000000000E+00 -0.00000000000E+00 -0.18312380599E+03  0.18312380599E+03  0.00000000000E+00 0. -1.
         23    2    1    2    0    0  0.55321021725E+03 -0.38063141426E+03  0.74164904022E+03  0.10045728887E+04  0.90562530027E+02 0.  0.
         11    1    3    3    0    0  0.39112648134E+03 -0.29241469670E+03  0.58873188649E+03  0.76491274890E+03  0.00000000000E+00 0. -1.
        -11    1    3    3    0    0  0.16208373590E+03 -0.88216717560E+02  0.15291715373E+03  0.23966013979E+03  0.00000000000E+00 0.  1.
         22    1    1    2    0    0 -0.55321021725E+03  0.38063141426E+03  0.21304199678E+04  0.22337437313E+04  0.00000000000E+00 0. -1.
<mgrwt>
<rscale>  0 0.14959660E+04</rscale>
<asrwt>0</asrwt>
<pdfrwt beam="1">  1        2 0.47002963E+00 0.14959660E+04</pdfrwt>
<pdfrwt beam="2">  1       -2 0.28172895E-01 0.14959660E+04</pdfrwt>
<totfact> 0.18045417E+01</totfact>
</mgrwt>
</event>
<event>
 6    1  0.4630212E-004  0.2563761E+04  0.7818608E-02  0.8380616E-01
          2   -1    0    0  501    0  0.00000000000E+00  0.00000000000E+00  0.32482165429E+04  0.32482165429E+04  0.00000000000E+00 0. -1.
         -2   -1    0    0    0  501 -0.00000000000E+00 -0.00000000000E+00 -0.50588307746E+03  0.50588307746E+03  0.00000000000E+00 0.  1.
         23    2    1    2    0    0  0.37251351366E+03 -0.73921932034E+03  0.28030156834E+04  0.29241033234E+04  0.90949452707E+02 0.  0.
         11    1    3    3    0    0  0.14650160947E+03 -0.31120038152E+03  0.10130909507E+04  0.10698886266E+04  0.00000000000E+00 0. -1.
        -11    1    3    3    0    0  0.22601190419E+03 -0.42801893881E+03  0.17899247327E+04  0.18542146968E+04  0.00000000000E+00 0.  1.
         22    1    1    2    0    0 -0.37251351366E+03  0.73921932034E+03 -0.60682217968E+02  0.82999629698E+03  0.00000000000E+00 0.  1.
<mgrwt>
<rscale>  0 0.25637611E+04</rscale>
<asrwt>0</asrwt>
<pdfrwt beam="1">  1        2 0.49972561E+00 0.25637611E+04</pdfrwt>
<pdfrwt beam="2">  1       -2 0.77828168E-01 0.25637611E+04</pdfrwt>
<totfact> 0.15733048E+00</totfact>
</mgrwt>
</event>
<event>
 6    1  0.4630212E-004  0.2754892E+04  0.7818608E-02  0.8317411E-01
         -2   -1    0    0    0  501 -0.00000000000E+00  0.00000000000E+00  0.50181543663E+03  0.50181543663E+03  0.00000000000E+00 0. -1.
          2   -1    0    0  501    0  0.00000000000E+00 -0.00000000000E+00 -0.37809859703E+04  0.37809859703E+04  0.00000000000E+00 0.  1.
         23    2    1    2    0    0  0.95845399540E+03  0.62970543511E+03 -0.28237076900E+04  0.30488608094E+04  0.84048321861E+02 0.  0.
         11    1    3    3    0    0  0.10457859319E+03  0.94191020510E+02 -0.39455871259E+03  0.41890954653E+03  0.00000000000E+00 0. -1.
        -11    1    3    3    0    0  0.85387540221E+03  0.53551441460E+03 -0.24291489774E+04  0.26299512629E+04  0.00000000000E+00 0.  1.
         22    1    1    2    0    0 -0.95845399540E+03 -0.62970543511E+03 -0.45546284376E+03  0.12339405976E+04  0.00000000000E+00 0. -1.
<mgrwt>
<rscale>  0 0.27548917E+04</rscale>
<asrwt>0</asrwt>
<pdfrwt beam="1">  1        2 0.58169016E+00 0.27548917E+04</pdfrwt>
<pdfrwt beam="2">  1       -2 0.77202374E-01 0.27548917E+04</pdfrwt>
<totfact> 0.66420519E-01</totfact>
</mgrwt>
</event>
<event>
 6    1  0.4630212E-004  0.2099631E+04  0.7818608E-02  0.8561406E-01
         -2   -1    0    0    0  501 -0.00000000000E+00  0.00000000000E+00  0.85367160075E+03  0.85367160075E+03  0.00000000000E+00 0. -1.
          2   -1    0    0  501    0  0.00000000000E+00 -0.00000000000E+00 -0.12910262367E+04  0.12910262367E+04  0.00000000000E+00 0.  1.
         23    2    1    2    0    0 -0.20651028194E+03 -0.55103869542E+03  0.66663378919E+03  0.89366603000E+03  0.89152811960E+02 0.  0.
         11    1    3    3    0    0 -0.89242503052E+02 -0.20373015953E+03  0.19107231455E+03  0.29322147200E+03  0.00000000000E+00 0.  1.
        -11    1    3    3    0    0 -0.11726777889E+03 -0.34730853589E+03  0.47556147463E+03  0.60044455799E+03  0.00000000000E+00 0. -1.
         22    1    1    2    0    0  0.20651028194E+03  0.55103869542E+03 -0.11039884251E+04  0.12510318074E+04  0.00000000000E+00 0.  1.
<mgrwt>
<rscale>  0 0.20996309E+04</rscale>
<asrwt>0</asrwt>
<pdfrwt beam="1">  1        2 0.19861942E+00 0.20996309E+04</pdfrwt>
<pdfrwt beam="2">  1       -2 0.13133409E+00 0.20996309E+04</pdfrwt>
<totfact> 0.65267696E+00</totfact>
</mgrwt>
</event>
<event>
 6    1  0.4630212E-004  0.3041405E+04  0.7818608E-02  0.8232005E-01
          2   -1    0    0  501    0  0.00000000000E+00  0.00000000000E+00  0.32875256720E+04  0.32875256720E+04  0.00000000000E+00 0.  1.
         -2   -1    0    0    0  501 -0.00000000000E+00 -0.00000000000E+00 -0.70342757715E+03  0.70342757715E+03  0.00000000000E+00 0. -1.
         23    2    1    2    0    0 -0.84689866121E+03  0.11893716862E+04  0.18447334103E+04  0.23543401345E+04  0.89631265317E+02 0.  0.
         11    1    3    3    0    0 -0.41246701421E+03  0.50265375175E+03  0.81513808316E+03  0.10427079776E+04  0.00000000000E+00 0. -1.
        -11    1    3    3    0    0 -0.43443164700E+03  0.68671793444E+03  0.10295953271E+04  0.13116321569E+04  0.00000000000E+00 0.  1.
         22    1    1    2    0    0  0.84689866121E+03 -0.11893716862E+04  0.73936468460E+03  0.16366131147E+04  0.00000000000E+00 0. -1.
<mgrwt>
<rscale>  0 0.30414051E+04</rscale>
<asrwt>0</asrwt>
<pdfrwt beam="1">  1        2 0.50577317E+00 0.30414051E+04</pdfrwt>
<pdfrwt beam="2">  1       -2 0.10821963E+00 0.30414051E+04</pdfrwt>
<totfact> 0.66148605E-01</totfact>
</mgrwt>
</event>
<event>
 6    1  0.4630212E-004  0.1940992E+04  0.7818608E-02  0.8634717E-01
          2   -1    0    0  501    0  0.00000000000E+00  0.00000000000E+00  0.15535861092E+04  0.15535861092E+04  0.00000000000E+00 0.  1.
         -2   -1    0    0    0  501 -0.00000000000E+00 -0.00000000000E+00 -0.60625084009E+03  0.60625084009E+03  0.00000000000E+00 0. -1.
         23    2    1    2    0    0  0.59750650858E+03 -0.35763061512E+03  0.12235817345E+04  0.14106869014E+04  0.89283750920E+02 0.  0.
         11    1    3    3    0    0  0.30661903619E+03 -0.13302197608E+03  0.60393876012E+03  0.69025510171E+03  0.00000000000E+00 0.  1.
        -11    1    3    3    0    0  0.29088747239E+03 -0.22460863905E+03  0.61964297437E+03  0.72043179969E+03  0.00000000000E+00 0. -1.
         22    1    1    2    0    0 -0.59750650858E+03  0.35763061512E+03 -0.27624646535E+03  0.74915004791E+03  0.00000000000E+00 0. -1.
<mgrwt>
<rscale>  0 0.19409924E+04</rscale>
<asrwt>0</asrwt>
<pdfrwt beam="1">  1        2 0.23901325E+00 0.19409924E+04</pdfrwt>
<pdfrwt beam="2">  1       -2 0.93269360E-01 0.19409924E+04</pdfrwt>
<totfact> 0.10754212E+01</totfact>
</mgrwt>
</event>
<event>
 6    1  0.4630212E-004  0.2319954E+04  0.7818608E-02  0.8470095E-01
          2   -1    0    0  501    0  0.00000000000E+00  0.00000000000E+00  0.25052612250E+04  0.25052612250E+04  0.00000000000E+00 0.  1.
         -2   -1    0    0    0  501 -0.00000000000E+00 -0.00000000000E+00 -0.53708816318E+03  0.53708816318E+03  0.00000000000E+00 0. -1.
         23    2    1    2    0    0 -0.62781362875E+03 -0.57396517016E+03 -0.44943305560E+02  0.85689211848E+03  0.93049626555E+02 0.  0.
         11    1    3    3    0    0 -0.42940750314E+03 -0.42839821918E+03 -0.64807382173E+02  0.61001297915E+03  0.00000000000E+00 0.  1.
        -11    1    3    3    0    0 -0.19840612561E+03 -0.14556695098E+03  0.19864076612E+02  0.24687913933E+03  0.00000000000E+00 0. -1.
         22    1    1    2    0    0  0.62781362875E+03  0.57396517016E+03  0.20131163674E+04  0.21854572697E+04  0.00000000000E+00 0.  1.
<mgrwt>
<rscale>  0 0.23199536E+04</rscale>
<asrwt>0</asrwt>
<pdfrwt beam="1">  1        2 0.38542480E+00 0.23199536E+04</pdfrwt>
<pdfrwt beam="2">  1       -2 0.82628950E-01 0.23199536E+04</pdfrwt>
<totfact> 0.40201376E+00</totfact>
</mgrwt>
</event>
<event>
 6    1  0.4630212E-004  0.1285645E+04  0.7818608E-02  0.9041027E-01
          2   -1    0    0  501    0  0.00000000000E+00  0.00000000000E+00  0.12808737770E+04  0.12808737770E+04  0.00000000000E+00 0.  1.
         -2   -1    0    0    0  501 -0.00000000000E+00 -0.00000000000E+00 -0.32260871243E+03  0.32260871243E+03  0.00000000000E+00 0. -1.
         23    2    1    2    0    0  0.94863738755E+02 -0.37484353212E+03 -0.15342186036E+03  0.42647160521E+03  0.93983830049E+02 0.  0.
         13    1    3    3    0    0 -0.18196952299E+02 -0.69329601118E+02 -0.35832382255E+02  0.80135399682E+02  0.00000000000E+00 0. -1.
        -13    1    3    3    0    0  0.11306069105E+03 -0.30551393100E+03 -0.11758947811E+03  0.34633620553E+03  0.00000000000E+00 0.  1.
         22    1    1    2    0    0 -0.94863738755E+02  0.37484353212E+03  0.11116869249E+04  0.11770108842E+04  0.00000000000E+00 0.  1.
<mgrwt>
<rscale>  0 0.12856454E+04</rscale>
<asrwt>0</asrwt>
<pdfrwt beam="1">  1        2 0.19705750E+00 0.12856454E+04</pdfrwt>
<pdfrwt beam="2">  1       -2 0.49632110E-01 0.12856454E+04</pdfrwt>
<totfact> 0.63920094E+01</totfact>
</mgrwt>
</event>
<event>
 6    1  0.4630212E-004  0.3584255E+04  0.7818608E-02  0.8094108E-01
          2   -1    0    0  501    0  0.00000000000E+00  0.00000000000E+00  0.24282519324E+04  0.24282519324E+04  0.00000000000E+00 0.  1.
         -2   -1    0    0    0  501 -0.00000000000E+00 -0.00000000000E+00 -0.13226471365E+04  0.13226471365E+04  0.00000000000E+00 0. -1.
         23    2    1    2    0    0 -0.17467556341E+04 -0.26106736729E+02  0.13993857388E+03  0.17548158895E+04  0.89214318595E+02 0.  0.
         11    1    3    3    0    0 -0.10973923957E+04 -0.54300684535E+02  0.10853593162E+03  0.11040827337E+04  0.00000000000E+00 0.  1.
        -11    1    3    3    0    0 -0.64936323835E+03  0.28193947806E+02  0.31402642254E+02  0.65073315572E+03  0.00000000000E+00 0. -1.
         22    1    1    2    0    0  0.17467556341E+04  0.26106736729E+02  0.96566622202E+03  0.19960831794E+04  0.00000000000E+00 0.  1.
<mgrwt>
<rscale>  0 0.35842547E+04</rscale>
<asrwt>0</asrwt>
<pdfrwt beam="1">  1        2 0.37357722E+00 0.35842547E+04</pdfrwt>
<pdfrwt beam="2">  1       -2 0.20348417E+00 0.35842547E+04</pdfrwt>
<totfact> 0.39438397E-01</totfact>
</mgrwt>
</event>
<event>
 6    1  0.4630212E-004  0.3996739E+04  0.7818608E-02  0.8005205E-01
          2   -1    0    0  501    0  0.00000000000E+00  0.00000000000E+00  0.39740396869E+04  0.39740396869E+04  0.00000000000E+00 0.  1.
         -2   -1    0    0    0  501 -0.00000000000E+00 -0.00000000000E+00 -0.10048917609E+04  0.10048917609E+04  0.00000000000E+00 0. -1.
         23    2    1    2    0    0  0.45536851558E+03  0.10280996907E+04 -0.57109100243E+03  0.12644138305E+04  0.90818184968E+02 0.  0.
         13    1    3    3    0    0  0.33749927534E+03  0.75559086000E+03 -0.46424637061E+03  0.94886669306E+03  0.00000000000E+00 0.  1.
        -13    1    3    3    0    0  0.11786924023E+03  0.27250883068E+03 -0.10684463182E+03  0.31554713743E+03  0.00000000000E+00 0. -1.
         22    1    1    2    0    0 -0.45536851558E+03 -0.10280996907E+04  0.35402389284E+04  0.37145176173E+04  0.00000000000E+00 0.  1.
<mgrwt>
<rscale>  0 0.39967385E+04</rscale>
<asrwt>0</asrwt>
<pdfrwt beam="1">  1        2 0.61139071E+00 0.39967385E+04</pdfrwt>
<pdfrwt beam="2">  1       -2 0.15459873E+00 0.39967385E+04</pdfrwt>
<totfact> 0.78038818E-02</totfact>
</mgrwt>
</event>
<event>
 6    1  0.4630212E-004  0.2291062E+04  0.7818608E-02  0.8481454E-01
         -2   -1    0    0    0  501 -0.00000000000E+00  0.00000000000E+00  0.15973127711E+04  0.15973127711E+04  0.00000000000E+00 0. -1.
          2   -1    0    0  501    0  0.00000000000E+00 -0.00000000000E+00 -0.82153041582E+03  0.82153041582E+03  0.00000000000E+00 0.  1.
         23    2    1    2    0    0 -0.14493970491E+03  0.75155461473E+03 -0.50889569013E+03  0.92343704231E+03  0.88990396671E+02 0.  0.
         11    1    3    3    0    0 -0.34050636197E+02  0.65962947834E+02 -0.31272497110E+02  0.80551383525E+02  0.00000000000E+00 0.  1.
        -11    1    3    3    0    0 -0.11088906872E+03  0.68559166690E+03 -0.47762319302E+03  0.84288565879E+03  0.00000000000E+00 0. -1.
         22    1    1    2    0    0  0.14493970491E+03 -0.75155461473E+03  0.12846780454E+04  0.14954061446E+04  0.00000000000E+00 0. -1.
<mgrwt>
<rscale>  0 0.22910618E+04</rscale>
<asrwt>0</asrwt>
<pdfrwt beam="1">  1        2 0.12638929E+00 0.22910618E+04</pdfrwt>
<pdfrwt beam="2">  1       -2 0.24574043E+00 0.22910618E+04</pdfrwt>
<totfact> 0.20583847E+00</totfact>
</mgrwt>
</event>
<event>
 6    1  0.4630212E-004  0.3489828E+04  0.7818608E-02  0.8116205E-01
          2   -1    0    0  501    0  0.00000000000E+00  0.00000000000E+00  0.34263901895E+04  0.34263901895E+04  0.00000000000E+00 0.  1.
         -2   -1    0    0    0  501 -0.00000000000E+00 -0.00000000000E+00 -0.88861020649E+03  0.88861020649E+03  0.00000000000E+00 0. -1.
         23    2    1    2    0    0 -0.61875747634E+03  0.15527444539E+04  0.65551588301E+03  0.17977013879E+04  0.90294260943E+02 0.  0.
         13    1    3    3    0    0 -0.23764829441E+03  0.51889937198E+03  0.18970950046E+03  0.60143409003E+03  0.00000000000E+00 0.  1.
        -13    1    3    3    0    0 -0.38110918193E+03  0.10338450820E+04  0.46580638255E+03  0.11962672979E+04  0.00000000000E+00 0. -1.
         22    1    1    2    0    0  0.61875747634E+03 -0.15527444539E+04  0.18822641000E+04  0.25172990081E+04  0.00000000000E+00 0.  1.
<mgrwt>
<rscale>  0 0.34898282E+04</rscale>
<asrwt>0</asrwt>
<pdfrwt beam="1">  1        2 0.52713695E+00 0.34898282E+04</pdfrwt>
<pdfrwt beam="2">  1       -2 0.13670926E+00 0.34898282E+04</pdfrwt>
<totfact> 0.28687493E-01</totfact>
</mgrwt>
</event>
<event>
 6    1  0.4630212E-004  0.5165530E+04  0.7818608E-02  0.7803468E-01
         -2   -1    0    0    0  501 -0.00000000000E+00  0.00000000000E+00  0.17413898116E+04  0.17413898116E+04  0.00000000000E+00 0. -1.
          2   -1    0    0  501    0  0.00000000000E+00 -0.00000000000E+00 -0.38306613435E+04  0.38306613435E+04  0.00000000000E+00 0.  1.
         23    2    1    2    0    0  0.16421691110E+04  0.18584979673E+03  0.10945874047E+04  0.19848214071E+04  0.10067221913E+03 0.  0.
         13    1    3    3    0    0  0.65141617077E+03  0.24232067323E+02  0.43172376873E+03  0.78186676174E+03  0.00000000000E+00 0. -1.
        -13    1    3    3    0    0  0.99075294020E+03  0.16161772941E+03  0.66286363598E+03  0.12029546454E+04  0.00000000000E+00 0.  1.
         22    1    1    2    0    0 -0.16421691110E+04 -0.18584979673E+03 -0.31838589367E+04  0.35872297480E+04  0.00000000000E+00 0.  1.
<mgrwt>
<rscale>  0 0.51655298E+04</rscale>
<asrwt>0</asrwt>
<pdfrwt beam="1">  1        2 0.58933251E+00 0.51655298E+04</pdfrwt>
<pdfrwt beam="2">  1       -2 0.26790613E+00 0.51655298E+04</pdfrwt>
<totfact> 0.16628056E-02</totfact>
</mgrwt>
</event>
<event>
 6    1  0.4630212E-004  0.1528597E+04  0.7818608E-02  0.8865656E-01
          2   -1    0    0  501    0  0.00000000000E+00  0.00000000000E+00  0.20346752037E+04  0.20346752037E+04  0.00000000000E+00 0.  1.
         -2   -1    0    0    0  501 -0.00000000000E+00 -0.00000000000E+00 -0.28709849877E+03  0.28709849877E+03  0.00000000000E+00 0. -1.
         23    2    1    2    0    0  0.34738173559E+03 -0.29198364926E+03 -0.52006120118E+02  0.46585698401E+03  0.91594603349E+02 0.  0.
         11    1    3    3    0    0  0.16918259840E+03 -0.19032096351E+03 -0.55689798798E+02  0.26066486998E+03  0.00000000000E+00 0.  1.
        -11    1    3    3    0    0  0.17819913719E+03 -0.10166268575E+03  0.36836786796E+01  0.20519211403E+03  0.00000000000E+00 0. -1.
         22    1    1    2    0    0 -0.34738173559E+03  0.29198364926E+03  0.17995828250E+04  0.18559167184E+04  0.00000000000E+00 0.  1.
<mgrwt>
<rscale>  0 0.15285970E+04</rscale>
<asrwt>0</asrwt>
<pdfrwt beam="1">  1        2 0.31302695E+00 0.15285970E+04</pdfrwt>
<pdfrwt beam="2">  1       -2 0.44169001E-01 0.15285970E+04</pdfrwt>
<totfact> 0.29962547E+01</totfact>
</mgrwt>
</event>
<event>
 6    1  0.4630212E-004  0.3463424E+04  0.7818608E-02  0.8122513E-01
         -2   -1    0    0    0  501 -0.00000000000E+00  0.00000000000E+00  0.28868659286E+04  0.28868659286E+04  0.00000000000E+00 0. -1.
          2   -1    0    0  501    0  0.00000000000E+00 -0.00000000000E+00 -0.10387828754E+04  0.10387828754E+04  0.00000000000E+00 0.  1.
         23    2    1    2    0    0 -0.12007014899E+04 -0.72408727617E+03 -0.22492866116E+03  0.14229774274E+04  0.91024200121E+02 0.  0.
         11    1    3    3    0    0 -0.43494645018E+03 -0.28625438720E+03 -0.12298153227E+03  0.53501817352E+03  0.00000000000E+00 0. -1.
        -11    1    3    3    0    0 -0.76575503970E+03 -0.43783288897E+03 -0.10194712889E+03  0.88795925389E+03  0.00000000000E+00 0.  1.
         22    1    1    2    0    0  0.12007014899E+04  0.72408727617E+03  0.20730117144E+04  0.25026713766E+04  0.00000000000E+00 0. -1.
<mgrwt>
<rscale>  0 0.34634243E+04</rscale>
<asrwt>0</asrwt>
<pdfrwt beam="1">  1        2 0.15981275E+00 0.34634243E+04</pdfrwt>
<pdfrwt beam="2">  1       -2 0.44413322E+00 0.34634243E+04</pdfrwt>
<totfact> 0.74341352E-02</totfact>
</mgrwt>
</event>
<event>
 6    1  0.4630212E-004  0.2415521E+04  0.7818608E-02  0.8433716E-01
          2   -1    0    0  501    0  0.00000000000E+00  0.00000000000E+00  0.19821546940E+04  0.19821546940E+04  0.00000000000E+00 0.  1.
         -2   -1    0    0    0  501 -0.00000000000E+00 -0.00000000000E+00 -0.73590880644E+03  0.73590880644E+03  0.00000000000E+00 0. -1.
         23    2    1    2    0    0 -0.16919199191E+03  0.90384382786E+02  0.19638820729E+04  0.19752331286E+04  0.88982297295E+02 0.  0.
         13    1    3    3    0    0 -0.13625887130E+02 -0.16865308707E+02  0.26133411170E+03  0.26223199914E+03  0.00000000000E+00 0.  1.
        -13    1    3    3    0    0 -0.15556610478E+03  0.10724969149E+03  0.17025479612E+04  0.17130011295E+04  0.00000000000E+00 0. -1.
         22    1    1    2    0    0  0.16919199191E+03 -0.90384382786E+02 -0.71763618536E+03  0.74283037183E+03  0.00000000000E+00 0. -1.
<mgrwt>
<rscale>  0 0.24155207E+04</rscale>
<asrwt>0</asrwt>
<pdfrwt beam="1">  1        2 0.30494687E+00 0.24155207E+04</pdfrwt>
<pdfrwt beam="2">  1       -2 0.11321674E+00 0.24155207E+04</pdfrwt>
<totfact> 0.37605683E+00</totfact>
</mgrwt>
</event>
<event>
 6    1  0.4630212E-004  0.3185066E+04  0.7818608E-02  0.8192772E-01
          2   -1    0    0  501    0  0.00000000000E+00  0.00000000000E+00  0.18111895206E+04  0.18111895206E+04  0.00000000000E+00 0.  1.
         -2   -1    0    0    0  501 -0.00000000000E+00 -0.00000000000E+00 -0.14002735837E+04  0.14002735837E+04  0.00000000000E+00 0. -1.
         23    2    1    2    0    0 -0.11608244070E+04 -0.98108098808E+03 -0.26940273275E+03  0.15462704123E+04  0.91329876061E+02 0.  0.
         13    1    3    3    0    0 -0.73766125923E+03 -0.57894995404E+03 -0.19503134917E+03  0.95779142291E+03  0.00000000000E+00 0. -1.
        -13    1    3    3    0    0 -0.42316314781E+03 -0.40213103404E+03 -0.74371383582E+02  0.58847898935E+03  0.00000000000E+00 0.  1.
         22    1    1    2    0    0  0.11608244070E+04  0.98108098808E+03  0.68031866970E+03  0.16651926920E+04  0.00000000000E+00 0.  1.
<mgrwt>
<rscale>  0 0.31850657E+04</rscale>
<asrwt>0</asrwt>
<pdfrwt beam="1">  1        2 0.27864454E+00 0.31850657E+04</pdfrwt>
<pdfrwt beam="2">  1       -2 0.21542670E+00 0.31850657E+04</pdfrwt>
<totfact> 0.75799908E-01</totfact>
</mgrwt>
</event>
<event>
 6    1  0.4630212E-004  0.1862785E+04  0.7818608E-02  0.8673606E-01
          2   -1    0    0  501    0  0.00000000000E+00  0.00000000000E+00  0.54230542972E+03  0.54230542972E+03  0.00000000000E+00 0.  1.
         -2   -1    0    0    0  501 -0.00000000000E+00 -0.00000000000E+00 -0.15996366877E+04  0.15996366877E+04  0.00000000000E+00 0. -1.
         23    2    1    2    0    0 -0.90889249604E+03  0.19233495359E+03 -0.51479900022E+03  0.10661077647E+04  0.92138220277E+02 0.  0.
         11    1    3    3    0    0 -0.69743983540E+03  0.12210701969E+03 -0.35606016225E+03  0.79253472316E+03  0.00000000000E+00 0. -1.
        -11    1    3    3    0    0 -0.21145266063E+03  0.70227933897E+02 -0.15873883797E+03  0.27357304156E+03  0.00000000000E+00 0.  1.
         22    1    1    2    0    0  0.90889249604E+03 -0.19233495359E+03 -0.54253225773E+03  0.10758343527E+04  0.00000000000E+00 0. -1.
<mgrwt>
<rscale>  0 0.18627846E+04</rscale>
<asrwt>0</asrwt>
<pdfrwt beam="1">  1        2 0.83431605E-01 0.18627846E+04</pdfrwt>
<pdfrwt beam="2">  1       -2 0.24609795E+00 0.18627846E+04</pdfrwt>
<totfact> 0.35706966E+00</totfact>
</mgrwt>
</event>
<event>
 6    1  0.4630212E-004  0.1415518E+04  0.7818608E-02  0.8942661E-01
         -2   -1    0    0    0  501 -0.00000000000E+00  0.00000000000E+00  0.21002618452E+04  0.21002618452E+04  0.00000000000E+00 0. -1.
          2   -1    0    0  501    0  0.00000000000E+00 -0.00000000000E+00 -0.23850508285E+03  0.23850508285E+03  0.00000000000E+00 0.  1.
         23    2    1    2    0    0 -0.40073538544E+03 -0.12779670755E+02 -0.22556826864E+02  0.41227014071E+03  0.93304283679E+02 0.  0.
         13    1    3    3    0    0 -0.28300886590E+02 -0.63134950115E+00  0.23514343753E+02  0.36800314484E+02  0.00000000000E+00 0. -1.
        -13    1    3    3    0    0 -0.37243449885E+03 -0.12148321254E+02 -0.46071170617E+02  0.37546982622E+03  0.00000000000E+00 0.  1.
         22    1    1    2    0    0  0.40073538544E+03  0.12779670755E+02  0.18843135892E+04  0.19264967873E+04  0.00000000000E+00 0. -1.
<mgrwt>
<rscale>  0 0.14155185E+04</rscale>
<asrwt>0</asrwt>
<pdfrwt beam="1">  1        2 0.36693091E-01 0.14155185E+04</pdfrwt>
<pdfrwt beam="2">  1       -2 0.32311719E+00 0.14155185E+04</pdfrwt>
<totfact> 0.31803384E+00</totfact>
</mgrwt>
</event>
<event>
 6    1  0.4630212E-004  0.2327042E+04  0.7818608E-02  0.8467334E-01
         -2   -1    0    0    0  501 -0.00000000000E+00  0.00000000000E+00  0.18087446954E+04  0.18087446954E+04  0.00000000000E+00 0. -1.
          2   -1    0    0  501    0  0.00000000000E+00 -0.00000000000E+00 -0.74846463449E+03  0.74846463449E+03  0.00000000000E+00 0.  1.
         23    2    1    2    0    0 -0.51601700230E+03 -0.10104366167E+04  0.25647572857E+03  0.11667572064E+04  0.91032281686E+02 0.  0.
         11    1    3    3    0    0 -0.12696624949E+03 -0.28663697739E+03  0.33335974446E+02  0.31526571730E+03  0.00000000000E+00 0. -1.
        -11    1    3    3    0    0 -0.38905075281E+03 -0.72379963932E+03  0.22313975412E+03  0.85149148910E+03  0.00000000000E+00 0.  1.
         22    1    1    2    0    0  0.51601700230E+03  0.10104366167E+04  0.80380433236E+03  0.13904521235E+04  0.00000000000E+00 0. -1.
<mgrwt>
<rscale>  0 0.23270423E+04</rscale>
<asrwt>0</asrwt>
<pdfrwt beam="1">  1        2 0.11514841E+00 0.23270423E+04</pdfrwt>
<pdfrwt beam="2">  1       -2 0.27826841E+00 0.23270423E+04</pdfrwt>
<totfact> 0.14677848E+00</totfact>
</mgrwt>
</event>
<event>
 6    1  0.4630212E-004  0.1904078E+04  0.7818608E-02  0.8652829E-01
          2   -1    0    0  501    0  0.00000000000E+00  0.00000000000E+00  0.14364256835E+04  0.14364256835E+04  0.00000000000E+00 0.  1.
         -2   -1    0    0    0  501 -0.00000000000E+00 -0.00000000000E+00 -0.63099548435E+03  0.63099548435E+03  0.00000000000E+00 0. -1.
         23    2    1    2    0    0  0.35956549965E+02  0.46060909784E+03  0.13047514306E+04  0.13871452631E+04  0.91334937671E+02 0.  0.
         13    1    3    3    0    0  0.14754091468E+02  0.39398270124E+03  0.10102103660E+04  0.10844192158E+04  0.00000000000E+00 0. -1.
        -13    1    3    3    0    0  0.21202458496E+02  0.66626396595E+02  0.29454106456E+03  0.30272604725E+03  0.00000000000E+00 0.  1.
         22    1    1    2    0    0 -0.35956549965E+02 -0.46060909784E+03 -0.49932123140E+03  0.68027590478E+03  0.00000000000E+00 0. -1.
<mgrwt>
<rscale>  0 0.19040779E+04</rscale>
<asrwt>0</asrwt>
<pdfrwt beam="1">  1        2 0.22098857E+00 0.19040779E+04</pdfrwt>
<pdfrwt beam="2">  1       -2 0.97076229E-01 0.19040779E+04</pdfrwt>
<totfact> 0.11442361E+01</totfact>
</mgrwt>
</event>
<event>
 6    1  0.4630212E-004  0.3385173E+04  0.7818608E-02  0.8141555E-01
         -2   -1    0    0    0  501 -0.00000000000E+00  0.00000000000E+00  0.89567882449E+03  0.89567882449E+03  0.00000000000E+00 0. -1.
          2   -1    0    0  501    0  0.00000000000E+00 -0.00000000000E+00 -0.31985231641E+04  0.31985231641E+04  0.00000000000E+00 0.  1.
         23    2    1    2    0    0 -0.88003797307E+03  0.12626704457E+04 -0.30371445930E+03  0.15712426614E+04  0.88076896658E+02 0.  0.
         11    1    3    3    0    0 -0.53714470523E+03  0.74706878232E+03 -0.22326915123E+03  0.94682908372E+03  0.00000000000E+00 0.  1.
        -11    1    3    3    0    0 -0.34289326784E+03  0.51560166335E+03 -0.80445308070E+02  0.62441357766E+03  0.00000000000E+00 0. -1.
         22    1    1    2    0    0  0.88003797307E+03 -0.12626704457E+04 -0.19991298803E+04  0.25229593272E+04  0.00000000000E+00 0.  1.
<mgrwt>
<rscale>  0 0.33851732E+04</rscale>
<asrwt>0</asrwt>
<pdfrwt beam="1">  1        2 0.49208048E+00 0.33851732E+04</pdfrwt>
<pdfrwt beam="2">  1       -2 0.13779674E+00 0.33851732E+04</pdfrwt>
<totfact> 0.40302690E-01</totfact>
</mgrwt>
</event>
<event>
 6    1  0.4630212E-004  0.3757264E+04  0.7818608E-02  0.8055389E-01
          2   -1    0    0  501    0  0.00000000000E+00  0.00000000000E+00  0.23357656941E+04  0.23357656941E+04  0.00000000000E+00 0.  1.
         -2   -1    0    0    0  501 -0.00000000000E+00 -0.00000000000E+00 -0.15109643898E+04  0.15109643898E+04  0.00000000000E+00 0. -1.
         23    2    1    2    0    0  0.13105721652E+04 -0.72767242153E+03 -0.74448077463E+03  0.16765335959E+04  0.96988253160E+02 0.  0.
         11    1    3    3    0    0  0.11440036547E+04 -0.67076246826E+03 -0.65736195484E+03  0.14801322206E+04  0.00000000000E+00 0. -1.
        -11    1    3    3    0    0  0.16656851047E+03 -0.56909953265E+02 -0.87118819786E+02  0.19640137531E+03  0.00000000000E+00 0.  1.
         22    1    1    2    0    0 -0.13105721652E+04  0.72767242153E+03  0.15692820789E+04  0.21701964880E+04  0.00000000000E+00 0.  1.
<mgrwt>
<rscale>  0 0.37572643E+04</rscale>
<asrwt>0</asrwt>
<pdfrwt beam="1">  1        2 0.35934857E+00 0.37572643E+04</pdfrwt>
<pdfrwt beam="2">  1       -2 0.23245606E+00 0.37572643E+04</pdfrwt>
<totfact> 0.28728198E-01</totfact>
</mgrwt>
</event>
<event>
 6    1  0.4630212E-004  0.3790547E+04  0.7818608E-02  0.8048187E-01
         -2   -1    0    0    0  501 -0.00000000000E+00  0.00000000000E+00  0.18089946532E+04  0.18089946532E+04  0.00000000000E+00 0. -1.
          2   -1    0    0  501    0  0.00000000000E+00 -0.00000000000E+00 -0.19856670664E+04  0.19856670664E+04  0.00000000000E+00 0.  1.
         23    2    1    2    0    0  0.21970027852E+03 -0.12812675066E+04  0.12907973926E+04  0.18342071124E+04  0.90791996048E+02 0.  0.
         11    1    3    3    0    0  0.17284354886E+03 -0.90743188876E+03  0.96858131595E+03  0.13384533203E+04  0.00000000000E+00 0. -1.
        -11    1    3    3    0    0  0.46856729658E+02 -0.37383561786E+03  0.32221607668E+03  0.49575379208E+03  0.00000000000E+00 0.  1.
         22    1    1    2    0    0 -0.21970027852E+03  0.12812675066E+04 -0.14674698058E+04  0.19604546072E+04  0.00000000000E+00 0.  1.
<mgrwt>
<rscale>  0 0.37905467E+04</rscale>
<asrwt>0</asrwt>
<pdfrwt beam="1">  1        2 0.30548724E+00 0.37905467E+04</pdfrwt>
<pdfrwt beam="2">  1       -2 0.27830687E+00 0.37905467E+04</pdfrwt>
<totfact> 0.23550649E-01</totfact>
</mgrwt>
</event>
<event>
 6    1  0.4630212E-004  0.1438632E+04  0.7818608E-02  0.8926320E-01
          2   -1    0    0  501    0  0.00000000000E+00  0.00000000000E+00  0.25461584646E+03  0.25461584646E+03  0.00000000000E+00 0.  1.
         -2   -1    0    0    0  501 -0.00000000000E+00 -0.00000000000E+00 -0.20321407199E+04  0.20321407199E+04  0.00000000000E+00 0. -1.
         23    2    1    2    0    0 -0.42041212340E+03  0.18151410909E+03 -0.17681654271E+04  0.18287376535E+04  0.90436178724E+02 0.  0.
         13    1    3    3    0    0 -0.16067793427E+03  0.28481308028E+02 -0.70651648955E+03  0.72511663439E+03  0.00000000000E+00 0.  1.
        -13    1    3    3    0    0 -0.25973418913E+03  0.15303280106E+03 -0.10616489376E+04  0.11036210191E+04  0.00000000000E+00 0. -1.
         22    1    1    2    0    0  0.42041212340E+03 -0.18151410909E+03 -0.93594463370E+01  0.45801891286E+03  0.00000000000E+00 0.  1.
<mgrwt>
<rscale>  0 0.14386316E+04</rscale>
<asrwt>0</asrwt>
<pdfrwt beam="1">  1        2 0.39171670E-01 0.14386316E+04</pdfrwt>
<pdfrwt beam="2">  1       -2 0.31263702E+00 0.14386316E+04</pdfrwt>
<totfact> 0.34205732E+00</totfact>
</mgrwt>
</event>
<event>
 6    1  0.4630212E-004  0.3261104E+04  0.7818608E-02  0.8172864E-01
          2   -1    0    0  501    0  0.00000000000E+00  0.00000000000E+00  0.24698383454E+04  0.24698383454E+04  0.00000000000E+00 0.  1.
         -2   -1    0    0    0  501 -0.00000000000E+00 -0.00000000000E+00 -0.10764670237E+04  0.10764670237E+04  0.00000000000E+00 0. -1.
         23    2    1    2    0    0 -0.33317700700E+03  0.10690995422E+04  0.19841853990E+04  0.22801924108E+04  0.91131682920E+02 0.  0.
         13    1    3    3    0    0 -0.23613363353E+03  0.60825140011E+03  0.11658891140E+04  0.13360487584E+04  0.00000000000E+00 0.  1.
        -13    1    3    3    0    0 -0.97043373475E+02  0.46084814210E+03  0.81829628497E+03  0.94414365242E+03  0.00000000000E+00 0. -1.
         22    1    1    2    0    0  0.33317700700E+03 -0.10690995422E+04 -0.59081407728E+03  0.12661129582E+04  0.00000000000E+00 0. -1.
<mgrwt>
<rscale>  0 0.32611038E+04</rscale>
<asrwt>0</asrwt>
<pdfrwt beam="1">  1        2 0.37997513E+00 0.32611038E+04</pdfrwt>
<pdfrwt beam="2">  1       -2 0.16561031E+00 0.32611038E+04</pdfrwt>
<totfact> 0.69574080E-01</totfact>
</mgrwt>
</event>
<event>
 6    1  0.4630212E-004  0.1546633E+04  0.7818608E-02  0.8854022E-01
          2   -1    0    0  501    0  0.00000000000E+00  0.00000000000E+00  0.75466715843E+03  0.75466715843E+03  0.00000000000E+00 0.  1.
         -2   -1    0    0    0  501 -0.00000000000E+00 -0.00000000000E+00 -0.79242626045E+03  0.79242626045E+03  0.00000000000E+00 0. -1.
         23    2    1    2    0    0  0.32289651490E+02  0.37013020364E+03  0.65630453200E+03  0.75984293948E+03  0.92664258033E+02 0.  0.
         13    1    3    3    0    0  0.61591883889E+02  0.18249732362E+03  0.31311507787E+03  0.36761377189E+03  0.00000000000E+00 0. -1.
        -13    1    3    3    0    0 -0.29302232399E+02  0.18763288001E+03  0.34318945413E+03  0.39222916759E+03  0.00000000000E+00 0.  1.
         22    1    1    2    0    0 -0.32289651490E+02 -0.37013020364E+03 -0.69406363403E+03  0.78725047940E+03  0.00000000000E+00 0. -1.
<mgrwt>
<rscale>  0 0.15466326E+04</rscale>
<asrwt>0</asrwt>
<pdfrwt beam="1">  1        2 0.11610264E+00 0.15466326E+04</pdfrwt>
<pdfrwt beam="2">  1       -2 0.12191173E+00 0.15466326E+04</pdfrwt>
<totfact> 0.18281183E+01</totfact>
</mgrwt>
</event>
<event>
 6    1  0.4630212E-004  0.4230766E+04  0.7818608E-02  0.7959546E-01
          2   -1    0    0  501    0  0.00000000000E+00  0.00000000000E+00  0.12087037340E+04  0.12087037340E+04  0.00000000000E+00 0.  1.
         -2   -1    0    0    0  501 -0.00000000000E+00 -0.00000000000E+00 -0.37021853135E+04  0.37021853135E+04  0.00000000000E+00 0. -1.
         23    2    1    2    0    0 -0.11937753808E+04 -0.14656105037E+04 -0.14777519785E+03  0.18983399214E+04  0.93504757413E+02 0.  0.
         13    1    3    3    0    0 -0.28964691498E+03 -0.35202039621E+03 -0.75806794562E+02  0.46212591878E+03  0.00000000000E+00 0. -1.
        -13    1    3    3    0    0 -0.90412846584E+03 -0.11135901075E+04 -0.71968403283E+02  0.14362140026E+04  0.00000000000E+00 0.  1.
         22    1    1    2    0    0  0.11937753808E+04  0.14656105037E+04 -0.23457063816E+04  0.30125491261E+04  0.00000000000E+00 0.  1.
<mgrwt>
<rscale>  0 0.42307660E+04</rscale>
<asrwt>0</asrwt>
<pdfrwt beam="1">  1        2 0.18595442E+00 0.42307660E+04</pdfrwt>
<pdfrwt beam="2">  1       -2 0.56956697E+00 0.42307660E+04</pdfrwt>
<totfact> 0.99492314E-03</totfact>
</mgrwt>
</event>
<event>
 6    1  0.4630212E-004  0.2501778E+04  0.7818608E-02  0.8402353E-01
          2   -1    0    0  501    0  0.00000000000E+00  0.00000000000E+00  0.15706506088E+04  0.15706506088E+04  0.00000000000E+00 0.  1.
         -2   -1    0    0    0  501 -0.00000000000E+00 -0.00000000000E+00 -0.99622588909E+03  0.99622588909E+03  0.00000000000E+00 0. -1.
         23    2    1    2    0    0  0.44785732663E+03  0.56462143043E+03  0.13346188114E+04  0.15193706021E+04  0.88916309574E+02 0.  0.
         11    1    3    3    0    0  0.36776247261E+03  0.41031319797E+03  0.97478208281E+03  0.11197349087E+04  0.00000000000E+00 0.  1.
        -11    1    3    3    0    0  0.80094854014E+02  0.15430823247E+03  0.35983672857E+03  0.39963569345E+03  0.00000000000E+00 0. -1.
         22    1    1    2    0    0 -0.44785732663E+03 -0.56462143043E+03 -0.76019409167E+03  0.10475058958E+04  0.00000000000E+00 0. -1.
<mgrwt>
<rscale>  0 0.25017776E+04</rscale>
<asrwt>0</asrwt>
<pdfrwt beam="1">  1        2 0.24163855E+00 0.25017776E+04</pdfrwt>
<pdfrwt beam="2">  1       -2 0.15326552E+00 0.25017776E+04</pdfrwt>
<totfact> 0.29226847E+00</totfact>
</mgrwt>
</event>
<event>
 6    1  0.4630212E-004  0.1675982E+04  0.7818608E-02  0.8775182E-01
          2   -1    0    0  501    0  0.00000000000E+00  0.00000000000E+00  0.13321570334E+04  0.13321570334E+04  0.00000000000E+00 0.  1.
         -2   -1    0    0    0  501 -0.00000000000E+00 -0.00000000000E+00 -0.52713689948E+03  0.52713689948E+03  0.00000000000E+00 0. -1.
         23    2    1    2    0    0 -0.20105357317E+03  0.69981744676E+03  0.85825996422E+03  0.11292244310E+04  0.91491263794E+02 0.  0.
         13    1    3    3    0    0 -0.41432450134E+02  0.13452959726E+03  0.22568579351E+03  0.26598672496E+03  0.00000000000E+00 0.  1.
        -13    1    3    3    0    0 -0.15962112303E+03  0.56528784950E+03  0.63257417072E+03  0.86323770606E+03  0.00000000000E+00 0. -1.
         22    1    1    2    0    0  0.20105357317E+03 -0.69981744676E+03 -0.53239830260E+02  0.73006950190E+03  0.00000000000E+00 0. -1.
<mgrwt>
<rscale>  0 0.16759823E+04</rscale>
<asrwt>0</asrwt>
<pdfrwt beam="1">  1        2 0.20494724E+00 0.16759823E+04</pdfrwt>
<pdfrwt beam="2">  1       -2 0.81097985E-01 0.16759823E+04</pdfrwt>
<totfact> 0.20235995E+01</totfact>
</mgrwt>
</event>
<event>
 6    1  0.4630212E-004  0.1117186E+04  0.7818608E-02  0.9188601E-01
         -2   -1    0    0    0  501 -0.00000000000E+00  0.00000000000E+00  0.17867478709E+03  0.17867478709E+03  0.00000000000E+00 0. -1.
          2   -1    0    0  501    0  0.00000000000E+00 -0.00000000000E+00 -0.17463348483E+04  0.17463348483E+04  0.00000000000E+00 0.  1.
         23    2    1    2    0    0 -0.38536817799E+03  0.39763583782E+03 -0.86673299096E+03  0.10317450330E+04  0.81540439782E+02 0.  0.
         11    1    3    3    0    0 -0.14355799731E+03  0.10023361915E+03 -0.23969575168E+03  0.29683283237E+03  0.00000000000E+00 0. -1.
        -11    1    3    3    0    0 -0.24181018067E+03  0.29740221867E+03 -0.62703723927E+03  0.73491220060E+03  0.00000000000E+00 0.  1.
         22    1    1    2    0    0  0.38536817799E+03 -0.39763583782E+03 -0.70092707024E+03  0.89326460241E+03  0.00000000000E+00 0. -1.
<mgrwt>
<rscale>  0 0.11171858E+04</rscale>
<asrwt>0</asrwt>
<pdfrwt beam="1">  1        2 0.26866691E+00 0.11171858E+04</pdfrwt>
<pdfrwt beam="2">  1       -2 0.27488428E-01 0.11171858E+04</pdfrwt>
<totfact> 0.11057278E+02</totfact>
</mgrwt>
</event>
<event>
 6    1  0.4630212E-004  0.3011329E+04  0.7818608E-02  0.8240503E-01
         -2   -1    0    0    0  501 -0.00000000000E+00  0.00000000000E+00  0.16416738023E+04  0.16416738023E+04  0.00000000000E+00 0. -1.
          2   -1    0    0  501    0  0.00000000000E+00 -0.00000000000E+00 -0.13809229232E+04  0.13809229232E+04  0.00000000000E+00 0.  1.
         23    2    1    2    0    0 -0.98303137882E+03 -0.26479280547E+03  0.12422370506E+04  0.16084605840E+04  0.86756203428E+02 0.  0.
         13    1    3    3    0    0 -0.65156614594E+03 -0.13290423163E+03  0.81495587169E+03  0.10518341362E+04  0.00000000000E+00 0. -1.
        -13    1    3    3    0    0 -0.33146523288E+03 -0.13188857384E+03  0.42728117894E+03  0.55662644781E+03  0.00000000000E+00 0.  1.
         22    1    1    2    0    0  0.98303137882E+03  0.26479280547E+03 -0.98148617153E+03  0.14141361414E+04  0.00000000000E+00 0.  1.
<mgrwt>
<rscale>  0 0.30113286E+04</rscale>
<asrwt>0</asrwt>
<pdfrwt beam="1">  1        2 0.21244968E+00 0.30113286E+04</pdfrwt>
<pdfrwt beam="2">  1       -2 0.25256520E+00 0.30113286E+04</pdfrwt>
<totfact> 0.78649331E-01</totfact>
</mgrwt>
</event>
<event>
 6    1  0.4630212E-004  0.1521764E+04  0.7818608E-02  0.8870108E-01
         -2   -1    0    0    0  501 -0.00000000000E+00  0.00000000000E+00  0.33685991207E+03  0.33685991207E+03  0.00000000000E+00 0.  1.
          2   -1    0    0  501    0  0.00000000000E+00 -0.00000000000E+00 -0.17186419091E+04  0.17186419091E+04  0.00000000000E+00 0. -1.
         23    2    1    2    0    0  0.96937253539E+02  0.60210460935E+03 -0.13017395180E+04  0.14404135428E+04  0.91315988592E+02 0.  0.
         11    1    3    3    0    0  0.96683623827E+02  0.35710764001E+03 -0.73014899974E+03  0.81852987208E+03  0.00000000000E+00 0. -1.
        -11    1    3    3    0    0  0.25362971213E+00  0.24499696934E+03 -0.57159051825E+03  0.62188367069E+03  0.00000000000E+00 0.  1.
         22    1    1    2    0    0 -0.96937253539E+02 -0.60210460935E+03 -0.80042478987E+02  0.61508827835E+03  0.00000000000E+00 0.  1.
<mgrwt>
<rscale>  0 0.15217642E+04</rscale>
<asrwt>0</asrwt>
<pdfrwt beam="1">  1        2 0.26440645E+00 0.15217642E+04</pdfrwt>
<pdfrwt beam="2">  1       -2 0.51824602E-01 0.15217642E+04</pdfrwt>
<totfact> 0.32473355E+01</totfact>
</mgrwt>
</event>
<event>
 6    1  0.4630212E-004  0.3023211E+04  0.7818608E-02  0.8237134E-01
         -1   -1    0    0    0  501 -0.00000000000E+00  0.00000000000E+00  0.56077220850E+03  0.56077220850E+03  0.00000000000E+00 0.  1.
          1   -1    0    0  501    0  0.00000000000E+00 -0.00000000000E+00 -0.40746519789E+04  0.40746519789E+04  0.00000000000E+00 0. -1.
         23    2    1    2    0    0 -0.15430882329E+03 -0.66285357493E+03 -0.38256910125E+04  0.38868172642E+04  0.90833075225E+02 0.  0.
         11    1    3    3    0    0 -0.87238343633E+02 -0.20239111492E+03 -0.13242537660E+04  0.13424681482E+04  0.00000000000E+00 0. -1.
        -11    1    3    3    0    0 -0.67070479653E+02 -0.46046246001E+03 -0.25014372464E+04  0.25443491160E+04  0.00000000000E+00 0.  1.
         22    1    1    2    0    0  0.15430882329E+03  0.66285357493E+03  0.31181124209E+03  0.74860692318E+03  0.00000000000E+00 0.  1.
<mgrwt>
<rscale>  0 0.30232113E+04</rscale>
<asrwt>0</asrwt>
<pdfrwt beam="1">  1        1 0.62686952E+00 0.30232113E+04</pdfrwt>
<pdfrwt beam="2">  1       -1 0.86272649E-01 0.30232113E+04</pdfrwt>
<totfact> 0.92635919E-02</totfact>
</mgrwt>
</event>
<event>
 6    1  0.4630212E-004  0.1401860E+04  0.7818608E-02  0.8952473E-01
          2   -1    0    0  501    0  0.00000000000E+00  0.00000000000E+00  0.96414440557E+03  0.96414440557E+03  0.00000000000E+00 0.  1.
         -2   -1    0    0    0  501 -0.00000000000E+00 -0.00000000000E+00 -0.50957413190E+03  0.50957413190E+03  0.00000000000E+00 0. -1.
         23    2    1    2    0    0  0.20324031420E+03 -0.28908027581E+03  0.86094413079E+03  0.93518929692E+03  0.92087966352E+02 0.  0.
         13    1    3    3    0    0  0.12126992695E+03 -0.13567504282E+03  0.54438560234E+03  0.57399459620E+03  0.00000000000E+00 0. -1.
        -13    1    3    3    0    0  0.81970387245E+02 -0.15340523299E+03  0.31655852845E+03  0.36119470072E+03  0.00000000000E+00 0.  1.
         22    1    1    2    0    0 -0.20324031420E+03  0.28908027581E+03 -0.40637385712E+03  0.53852924055E+03  0.00000000000E+00 0. -1.
<mgrwt>
<rscale>  0 0.14018603E+04</rscale>
<asrwt>0</asrwt>
<pdfrwt beam="1">  1        2 0.14832991E+00 0.14018603E+04</pdfrwt>
<pdfrwt beam="2">  1       -2 0.78396020E-01 0.14018603E+04</pdfrwt>
<totfact> 0.37423854E+01</totfact>
</mgrwt>
</event>
<event>
 6    1  0.4630212E-004  0.4288615E+04  0.7818608E-02  0.7948727E-01
          2   -1    0    0  501    0  0.00000000000E+00  0.00000000000E+00  0.20646263087E+04  0.20646263087E+04  0.00000000000E+00 0. -1.
         -2   -1    0    0    0  501 -0.00000000000E+00 -0.00000000000E+00 -0.22270643051E+04  0.22270643051E+04  0.00000000000E+00 0.  1.
         23    2    1    2    0    0 -0.55797184078E+03  0.11290596814E+04  0.16542684069E+04  0.20811407965E+04  0.91840694659E+02 0.  0.
         13    1    3    3    0    0 -0.17099977943E+03  0.26688221650E+03  0.44705249805E+03  0.54801731547E+03  0.00000000000E+00 0. -1.
        -13    1    3    3    0    0 -0.38697206135E+03  0.86217746489E+03  0.12072159089E+04  0.15331234810E+04  0.00000000000E+00 0.  1.
         22    1    1    2    0    0  0.55797184078E+03 -0.11290596814E+04 -0.18167064033E+04  0.22105498174E+04  0.00000000000E+00 0.  1.
<mgrwt>
<rscale>  0 0.42886154E+04</rscale>
<asrwt>0</asrwt>
<pdfrwt beam="1">  1        2 0.31763482E+00 0.42886154E+04</pdfrwt>
<pdfrwt beam="2">  1       -2 0.34262528E+00 0.42886154E+04</pdfrwt>
<totfact> 0.82046462E-02</totfact>
</mgrwt>
</event>
<event>
 6    1  0.4630212E-004  0.1923254E+04  0.7818608E-02  0.8643367E-01
          2   -1    0    0  501    0  0.00000000000E+00  0.00000000000E+00  0.12128061567E+04  0.12128061567E+04  0.00000000000E+00 0.  1.
         -2   -1    0    0    0  501 -0.00000000000E+00 -0.00000000000E+00 -0.76246811597E+03  0.76246811597E+03  0.00000000000E+00 0. -1.
         23    2    1    2    0    0  0.62558521447E+03 -0.30292715651E+03 -0.45365311877E+03  0.83495776434E+03  0.90728128747E+02 0.  0.
         11    1    3    3    0    0  0.30130442640E+03 -0.10750147711E+03 -0.17319052012E+03  0.36377999011E+03  0.00000000000E+00 0. -1.
        -11    1    3    3    0    0  0.32428078807E+03 -0.19542567940E+03 -0.28046259866E+03  0.47117777423E+03  0.00000000000E+00 0.  1.
         22    1    1    2    0    0 -0.62558521447E+03  0.30292715651E+03  0.90399115951E+03  0.11403165083E+04  0.00000000000E+00 0.  1.
<mgrwt>
<rscale>  0 0.19232535E+04</rscale>
<asrwt>0</asrwt>
<pdfrwt beam="1">  1        2 0.18658556E+00 0.19232535E+04</pdfrwt>
<pdfrwt beam="2">  1       -2 0.11730279E+00 0.19232535E+04</pdfrwt>
<totfact> 0.97736655E+00</totfact>
</mgrwt>
</event>
<event>
 6    1  0.4630212E-004  0.1572520E+04  0.7818608E-02  0.8837610E-01
          2   -1    0    0  501    0  0.00000000000E+00  0.00000000000E+00  0.39579607285E+04  0.39579607285E+04  0.00000000000E+00 0.  1.
         -2   -1    0    0    0  501 -0.00000000000E+00 -0.00000000000E+00 -0.15619279921E+03  0.15619279921E+03  0.00000000000E+00 0. -1.
         23    2    1    2    0    0  0.62267571217E+03 -0.18391053377E+03  0.75778826148E+03  0.10017010630E+04  0.87257340202E+02 0.  0.
         11    1    3    3    0    0  0.54891588307E+03 -0.15137222683E+03  0.61794782261E+03  0.84028668275E+03  0.00000000000E+00 0. -1.
        -11    1    3    3    0    0  0.73759829102E+02 -0.32538306939E+02  0.13984043887E+03  0.16141438025E+03  0.00000000000E+00 0.  1.
         22    1    1    2    0    0 -0.62267571217E+03  0.18391053377E+03  0.30439796678E+04  0.31124524647E+04  0.00000000000E+00 0.  1.
<mgrwt>
<rscale>  0 0.15725202E+04</rscale>
<asrwt>0</asrwt>
<pdfrwt beam="1">  1        2 0.60891696E+00 0.15725202E+04</pdfrwt>
<pdfrwt beam="2">  1       -2 0.24029664E-01 0.15725202E+04</pdfrwt>
<totfact> 0.55896516E+00</totfact>
</mgrwt>
</event>
<event>
 6    1  0.4630212E-004  0.1126144E+04  0.7818608E-02  0.9180079E-01
          2   -1    0    0  501    0  0.00000000000E+00  0.00000000000E+00  0.93782407644E+03  0.93782407644E+03  0.00000000000E+00 0. -1.
         -2   -1    0    0    0  501 -0.00000000000E+00 -0.00000000000E+00 -0.33806970813E+03  0.33806970813E+03  0.00000000000E+00 0.  1.
         23    2    1    2    0    0 -0.16336779859E+03  0.71588645626E+02  0.90241264520E+03  0.92458764405E+03  0.93272490692E+02 0.  0.
         11    1    3    3    0    0 -0.14270894868E+03  0.70241538539E+02  0.57714736157E+03  0.59866417526E+03  0.00000000000E+00 0.  1.
        -11    1    3    3    0    0 -0.20658849914E+02  0.13471070866E+01  0.32526528363E+03  0.32592346879E+03  0.00000000000E+00 0. -1.
         22    1    1    2    0    0  0.16336779859E+03 -0.71588645626E+02 -0.30265827689E+03  0.35130614052E+03  0.00000000000E+00 0.  1.
<mgrwt>
<rscale>  0 0.11261437E+04</rscale>
<asrwt>0</asrwt>
<pdfrwt beam="1">  1        2 0.14428063E+00 0.11261437E+04</pdfrwt>
<pdfrwt beam="2">  1       -2 0.52010725E-01 0.11261437E+04</pdfrwt>
<totfact> 0.95690881E+01</totfact>
</mgrwt>
</event>
<event>
 6    1  0.4630212E-004  0.2831668E+04  0.7818608E-02  0.8293504E-01
          2   -1    0    0  501    0  0.00000000000E+00  0.00000000000E+00  0.27524328685E+04  0.27524328685E+04  0.00000000000E+00 0.  1.
         -2   -1    0    0    0  501 -0.00000000000E+00 -0.00000000000E+00 -0.72829619662E+03  0.72829619662E+03  0.00000000000E+00 0. -1.
         23    2    1    2    0    0  0.12368430973E+04 -0.57134104210E+03  0.14798673707E+04  0.20136092657E+04  0.91670095502E+02 0.  0.
         11    1    3    3    0    0  0.61773637102E+03 -0.28702470012E+03  0.67232280190E+03  0.95707855086E+03  0.00000000000E+00 0.  1.
        -11    1    3    3    0    0  0.61910672623E+03 -0.28431634198E+03  0.80754456885E+03  0.10565307149E+04  0.00000000000E+00 0. -1.
         22    1    1    2    0    0 -0.12368430973E+04  0.57134104210E+03  0.54426930112E+03  0.14671197994E+04  0.00000000000E+00 0. -1.
<mgrwt>
<rscale>  0 0.28316683E+04</rscale>
<asrwt>0</asrwt>
<pdfrwt beam="1">  1        2 0.42345121E+00 0.28316683E+04</pdfrwt>
<pdfrwt beam="2">  1       -2 0.11204557E+00 0.28316683E+04</pdfrwt>
<totfact> 0.13465493E+00</totfact>
</mgrwt>
</event>
<event>
 6    1  0.4630212E-004  0.4421196E+04  0.7818608E-02  0.7924580E-01
         -2   -1    0    0    0  501 -0.00000000000E+00  0.00000000000E+00  0.15248483508E+04  0.15248483508E+04  0.00000000000E+00 0. -1.
          2   -1    0    0  501    0  0.00000000000E+00 -0.00000000000E+00 -0.32047402842E+04  0.32047402842E+04  0.00000000000E+00 0.  1.
         23    2    1    2    0    0  0.18084280304E+04  0.11921762911E+04 -0.13078365871E+04  0.25318349111E+04  0.89750923120E+02 0.  0.
         11    1    3    3    0    0  0.58671618061E+03  0.43538318395E+03 -0.45527630570E+03  0.86085475429E+03  0.00000000000E+00 0.  1.
        -11    1    3    3    0    0  0.12217118498E+04  0.75679310713E+03 -0.85256028135E+03  0.16709801568E+04  0.00000000000E+00 0. -1.
         22    1    1    2    0    0 -0.18084280304E+04 -0.11921762911E+04 -0.37205534635E+03  0.21977537239E+04  0.00000000000E+00 0. -1.
<mgrwt>
<rscale>  0 0.44211957E+04</rscale>
<asrwt>0</asrwt>
<pdfrwt beam="1">  1        2 0.49303696E+00 0.44211957E+04</pdfrwt>
<pdfrwt beam="2">  1       -2 0.23459206E+00 0.44211957E+04</pdfrwt>
<totfact> 0.78499693E-02</totfact>
</mgrwt>
</event>
<event>
 6    1  0.4630212E-004  0.2608469E+04  0.7818608E-02  0.8365330E-01
          2   -1    0    0  501    0  0.00000000000E+00  0.00000000000E+00  0.26343652483E+04  0.26343652483E+04  0.00000000000E+00 0. -1.
         -2   -1    0    0    0  501 -0.00000000000E+00 -0.00000000000E+00 -0.64570674066E+03  0.64570674066E+03  0.00000000000E+00 0.  1.
         23    2    1    2    0    0  0.75928450483E+03 -0.97424173586E+03  0.47522016806E+03  0.13265737097E+04  0.91124530444E+02 0.  0.
         13    1    3    3    0    0  0.96276417020E+02 -0.87510057779E+02  0.32132372300E+02  0.13401361138E+03  0.00000000000E+00 0. -1.
        -13    1    3    3    0    0  0.66300808781E+03 -0.88673167808E+03  0.44308779576E+03  0.11925600983E+04  0.00000000000E+00 0.  1.
         22    1    1    2    0    0 -0.75928450483E+03  0.97424173586E+03  0.15134383396E+04  0.19534982792E+04  0.00000000000E+00 0.  1.
<mgrwt>
<rscale>  0 0.26084688E+04</rscale>
<asrwt>0</asrwt>
<pdfrwt beam="1">  1        2 0.40528696E+00 0.26084688E+04</pdfrwt>
<pdfrwt beam="2">  1       -2 0.99339500E-01 0.26084688E+04</pdfrwt>
<totfact> 0.21538433E+00</totfact>
</mgrwt>
</event>
<event>
 6    1  0.4630212E-004  0.3520831E+04  0.7818608E-02  0.8108871E-01
          2   -1    0    0  501    0  0.00000000000E+00  0.00000000000E+00  0.18057690005E+04  0.18057690005E+04  0.00000000000E+00 0.  1.
         -2   -1    0    0    0  501 -0.00000000000E+00 -0.00000000000E+00 -0.17162013918E+04  0.17162013918E+04  0.00000000000E+00 0. -1.
         23    2    1    2    0    0 -0.10783518090E+04 -0.13857908391E+04 -0.62067246451E+02  0.17595141508E+04  0.93695409840E+02 0.  0.
         13    1    3    3    0    0 -0.19784173025E+03 -0.20951579793E+03  0.10981818782E+02  0.28837271049E+03  0.00000000000E+00 0. -1.
        -13    1    3    3    0    0 -0.88051007878E+03 -0.11762750412E+04 -0.73049065233E+02  0.14711414403E+04  0.00000000000E+00 0.  1.
         22    1    1    2    0    0  0.10783518090E+04  0.13857908391E+04  0.15163485511E+03  0.17624562415E+04  0.00000000000E+00 0. -1.
<mgrwt>
<rscale>  0 0.35208313E+04</rscale>
<asrwt>0</asrwt>
<pdfrwt beam="1">  1        2 0.27781061E+00 0.35208313E+04</pdfrwt>
<pdfrwt beam="2">  1       -2 0.26403098E+00 0.35208313E+04</pdfrwt>
<totfact> 0.37039927E-01</totfact>
</mgrwt>
</event>
<event>
 6    1  0.4630212E-004  0.7843205E+03  0.7818608E-02  0.9582994E-01
         -2   -1    0    0    0  501 -0.00000000000E+00  0.00000000000E+00  0.53771257566E+02  0.53771257566E+02  0.00000000000E+00 0. -1.
          2   -1    0    0  501    0  0.00000000000E+00 -0.00000000000E+00 -0.28600715242E+04  0.28600715242E+04  0.00000000000E+00 0.  1.
         23    2    1    2    0    0 -0.16464582241E+03 -0.23494530060E+03 -0.23849535346E+04  0.24040971494E+04  0.96810125885E+02 0.  0.
         13    1    3    3    0    0 -0.61773541218E+02 -0.20757800609E+02 -0.52040419768E+03  0.52446866984E+03  0.00000000000E+00 0.  1.
        -13    1    3    3    0    0 -0.10287228119E+03 -0.21418749999E+03 -0.18645493370E+04  0.18796284796E+04  0.00000000000E+00 0. -1.
         22    1    1    2    0    0  0.16464582241E+03  0.23494530060E+03 -0.42134673203E+03  0.50974563236E+03  0.00000000000E+00 0. -1.
<mgrwt>
<rscale>  0 0.78432045E+03</rscale>
<asrwt>0</asrwt>
<pdfrwt beam="1">  1        2 0.44001100E+00 0.78432045E+03</pdfrwt>
<pdfrwt beam="2">  1       -2 0.82725013E-02 0.78432045E+03</pdfrwt>
<totfact> 0.20740736E+02</totfact>
</mgrwt>
</event>
<event>
 6    1  0.4630212E-004  0.2906501E+04  0.7818608E-02  0.8270946E-01
          2   -1    0    0  501    0  0.00000000000E+00  0.00000000000E+00  0.10387252970E+04  0.10387252970E+04  0.00000000000E+00 0.  1.
         -2   -1    0    0    0  501 -0.00000000000E+00 -0.00000000000E+00 -0.20332005908E+04  0.20332005908E+04  0.00000000000E+00 0. -1.
         23    2    1    2    0    0 -0.15295168118E+03  0.82333425423E+03  0.75577891821E+03  0.11316518562E+04  0.90336257410E+02 0.  0.
         11    1    3    3    0    0 -0.80991150706E+02  0.30771866141E+03  0.33723795848E+03  0.46365912232E+03  0.00000000000E+00 0. -1.
        -11    1    3    3    0    0 -0.71960530474E+02  0.51561559282E+03  0.41854095973E+03  0.66799273385E+03  0.00000000000E+00 0.  1.
         22    1    1    2    0    0  0.15295168118E+03 -0.82333425423E+03 -0.17502542120E+04  0.19402740316E+04  0.00000000000E+00 0. -1.
<mgrwt>
<rscale>  0 0.29065009E+04</rscale>
<asrwt>0</asrwt>
<pdfrwt beam="1">  1        2 0.15980389E+00 0.29065009E+04</pdfrwt>
<pdfrwt beam="2">  1       -2 0.31280009E+00 0.29065009E+04</pdfrwt>
<totfact> 0.54434906E-01</totfact>
</mgrwt>
</event>
<event>
 6    1  0.4630212E-004  0.8829292E+03  0.7818608E-02  0.9447176E-01
          2   -1    0    0  501    0  0.00000000000E+00  0.00000000000E+00  0.94775054958E+03  0.94775054958E+03  0.00000000000E+00 0.  1.
         -2   -1    0    0    0  501 -0.00000000000E+00 -0.00000000000E+00 -0.20563530273E+03  0.20563530273E+03  0.00000000000E+00 0. -1.
         23    2    1    2    0    0 -0.21933793594E+03  0.35522905294E+03  0.20748632244E+03  0.47506078496E+03  0.91298221250E+02 0.  0.
         11    1    3    3    0    0 -0.17829186180E+03  0.20534573658E+03  0.13328613821E+03  0.30285318911E+03  0.00000000000E+00 0. -1.
        -11    1    3    3    0    0 -0.41046074143E+02  0.14988331636E+03  0.74200184231E+02  0.17220759584E+03  0.00000000000E+00 0.  1.
         22    1    1    2    0    0  0.21933793594E+03 -0.35522905294E+03  0.53462892440E+03  0.67832506736E+03  0.00000000000E+00 0.  1.
<mgrwt>
<rscale>  0 0.88292915E+03</rscale>
<asrwt>0</asrwt>
<pdfrwt beam="1">  1        2 0.14580777E+00 0.88292915E+03</pdfrwt>
<pdfrwt beam="2">  1       -2 0.31636201E-01 0.88292915E+03</pdfrwt>
<totfact> 0.25334917E+02</totfact>
</mgrwt>
</event>
<event>
 6    1  0.4630212E-004  0.4353923E+04  0.7818608E-02  0.7936722E-01
          2   -1    0    0  501    0  0.00000000000E+00  0.00000000000E+00  0.29321199345E+04  0.29321199345E+04  0.00000000000E+00 0.  1.
         -2   -1    0    0    0  501 -0.00000000000E+00 -0.00000000000E+00 -0.16162916134E+04  0.16162916134E+04  0.00000000000E+00 0. -1.
         23    2    1    2    0    0 -0.17970184505E+04 -0.87729453900E+03  0.15544753628E+04  0.25344916314E+04  0.91286124060E+02 0.  0.
         11    1    3    3    0    0 -0.99774119719E+03 -0.50467312444E+03  0.92266643694E+03  0.14496536873E+04  0.00000000000E+00 0. -1.
        -11    1    3    3    0    0 -0.79927725335E+03 -0.37262141457E+03  0.63180892581E+03  0.10848379441E+04  0.00000000000E+00 0.  1.
         22    1    1    2    0    0  0.17970184505E+04  0.87729453900E+03 -0.23864704171E+03  0.20139199165E+04  0.00000000000E+00 0. -1.
<mgrwt>
<rscale>  0 0.43539228E+04</rscale>
<asrwt>0</asrwt>
<pdfrwt beam="1">  1        2 0.45109537E+00 0.43539228E+04</pdfrwt>
<pdfrwt beam="2">  1       -2 0.24866025E+00 0.43539228E+04</pdfrwt>
<totfact> 0.96336086E-02</totfact>
</mgrwt>
</event>
<event>
 6    1  0.4630212E-004  0.9301970E+03  0.7818608E-02  0.9388602E-01
         -2   -1    0    0    0  501 -0.00000000000E+00  0.00000000000E+00  0.59171312344E+03  0.59171312344E+03  0.00000000000E+00 0. -1.
          2   -1    0    0  501    0  0.00000000000E+00 -0.00000000000E+00 -0.36557682680E+03  0.36557682680E+03  0.00000000000E+00 0.  1.
         23    2    1    2    0    0  0.59607852812E+02  0.22954555596E+03 -0.29223791387E+03  0.38724075894E+03  0.91149046638E+02 0.  0.
         13    1    3    3    0    0  0.11038462304E+02  0.16288784557E+03 -0.14442253134E+03  0.21797285483E+03  0.00000000000E+00 0. -1.
        -13    1    3    3    0    0  0.48569390508E+02  0.66657710389E+02 -0.14781538253E+03  0.16926790411E+03  0.00000000000E+00 0.  1.
         22    1    1    2    0    0 -0.59607852812E+02 -0.22954555596E+03  0.51837421051E+03  0.57004919130E+03  0.00000000000E+00 0. -1.
<mgrwt>
<rscale>  0 0.93019698E+03</rscale>
<asrwt>0</asrwt>
<pdfrwt beam="1">  1        2 0.56242589E-01 0.93019698E+03</pdfrwt>
<pdfrwt beam="2">  1       -2 0.91032788E-01 0.93019698E+03</pdfrwt>
<totfact> 0.90789726E+01</totfact>
</mgrwt>
</event>
<event>
 6    1  0.4630212E-004  0.1404965E+04  0.7818608E-02  0.8950233E-01
         -2   -1    0    0    0  501 -0.00000000000E+00  0.00000000000E+00  0.19451278878E+03  0.19451278878E+03  0.00000000000E+00 0. -1.
          2   -1    0    0  501    0  0.00000000000E+00 -0.00000000000E+00 -0.25370130467E+04  0.25370130467E+04  0.00000000000E+00 0.  1.
         23    2    1    2    0    0 -0.68985048025E+03 -0.73519699989E+02 -0.13533863777E+04  0.15233681060E+04  0.87731792848E+02 0.  0.
         13    1    3    3    0    0 -0.21862343704E+03 -0.49612460218E+02 -0.36938599370E+03  0.43209213806E+03  0.00000000000E+00 0.  1.
        -13    1    3    3    0    0 -0.47122704320E+03 -0.23907239771E+02 -0.98400038404E+03  0.10912759679E+04  0.00000000000E+00 0. -1.
         22    1    1    2    0    0  0.68985048025E+03  0.73519699989E+02 -0.98911388016E+03  0.12081577295E+04  0.00000000000E+00 0.  1.
<mgrwt>
<rscale>  0 0.14049647E+04</rscale>
<asrwt>0</asrwt>
<pdfrwt beam="1">  1        2 0.39030971E+00 0.14049647E+04</pdfrwt>
<pdfrwt beam="2">  1       -2 0.29925044E-01 0.14049647E+04</pdfrwt>
<totfact> 0.33338682E+01</totfact>
</mgrwt>
</event>
<event>
 6    1  0.4630212E-004  0.1516873E+04  0.7818608E-02  0.8873310E-01
         -2   -1    0    0    0  501 -0.00000000000E+00  0.00000000000E+00  0.29008722391E+03  0.29008722391E+03  0.00000000000E+00 0. -1.
          2   -1    0    0  501    0  0.00000000000E+00 -0.00000000000E+00 -0.19829401626E+04  0.19829401626E+04  0.00000000000E+00 0.  1.
         23    2    1    2    0    0 -0.45216045057E+03  0.57676188018E+03 -0.57312260407E+03  0.93478250542E+03  0.90804590535E+02 0.  0.
         11    1    3    3    0    0 -0.35770886699E+03  0.49660364187E+03 -0.50458191334E+03  0.79320471375E+03  0.00000000000E+00 0.  1.
        -11    1    3    3    0    0 -0.94451583585E+02  0.80158238304E+02 -0.68540690728E+02  0.14157779167E+03  0.00000000000E+00 0. -1.
         22    1    1    2    0    0  0.45216045057E+03 -0.57676188018E+03 -0.11197303346E+04  0.13382448811E+04  0.00000000000E+00 0.  1.
<mgrwt>
<rscale>  0 0.15168726E+04</rscale>
<asrwt>0</asrwt>
<pdfrwt beam="1">  1        2 0.30506771E+00 0.15168726E+04</pdfrwt>
<pdfrwt beam="2">  1       -2 0.44628805E-01 0.15168726E+04</pdfrwt>
<totfact> 0.31385846E+01</totfact>
</mgrwt>
</event>
<event>
 6    1  0.4630212E-004  0.3269636E+04  0.7818608E-02  0.8170665E-01
          2   -1    0    0  501    0  0.00000000000E+00  0.00000000000E+00  0.15389344668E+04  0.15389344668E+04  0.00000000000E+00 0.  1.
         -2   -1    0    0    0  501 -0.00000000000E+00 -0.00000000000E+00 -0.17366754754E+04  0.17366754754E+04  0.00000000000E+00 0. -1.
         23    2    1    2    0    0  0.11599601692E+04 -0.56276944053E+03 -0.11038966093E+04  0.16997498564E+04  0.91349948203E+02 0.  0.
         13    1    3    3    0    0  0.63276356028E+03 -0.25736630479E+03 -0.59565468042E+03  0.90632865802E+03  0.00000000000E+00 0.  1.
        -13    1    3    3    0    0  0.52719660889E+03 -0.30540313574E+03 -0.50824192890E+03  0.79342119838E+03  0.00000000000E+00 0. -1.
         22    1    1    2    0    0 -0.11599601692E+04  0.56276944053E+03  0.90615560075E+03  0.15758600858E+04  0.00000000000E+00 0.  1.
<mgrwt>
<rscale>  0 0.32696359E+04</rscale>
<asrwt>0</asrwt>
<pdfrwt beam="1">  1        2 0.23675915E+00 0.32696359E+04</pdfrwt>
<pdfrwt beam="2">  1       -2 0.26718084E+00 0.32696359E+04</pdfrwt>
<totfact> 0.50952840E-01</totfact>
</mgrwt>
</event>
<event>
 6    1  0.4630212E-004  0.1295438E+04  0.7818608E-02  0.9033190E-01
         -2   -1    0    0    0  501 -0.00000000000E+00  0.00000000000E+00  0.14951381992E+03  0.14951381992E+03  0.00000000000E+00 0. -1.
          2   -1    0    0  501    0  0.00000000000E+00 -0.00000000000E+00 -0.28060293579E+04  0.28060293579E+04  0.00000000000E+00 0.  1.
         23    2    1    2    0    0  0.47092121809E+03  0.37708371170E+03 -0.18516639986E+04  0.19496878604E+04  0.93082059094E+02 0.  0.
         11    1    3    3    0    0  0.57477332959E+02  0.55219233715E+02 -0.16024045475E+03  0.17896874284E+03  0.00000000000E+00 0. -1.
        -11    1    3    3    0    0  0.41344388513E+03  0.32186447798E+03 -0.16914235439E+04  0.17707191175E+04  0.00000000000E+00 0.  1.
         22    1    1    2    0    0 -0.47092121809E+03 -0.37708371170E+03 -0.80485153938E+03  0.10058553175E+04  0.00000000000E+00 0.  1.
<mgrwt>
<rscale>  0 0.12954384E+04</rscale>
<asrwt>0</asrwt>
<pdfrwt beam="1">  1        2 0.43169681E+00 0.12954384E+04</pdfrwt>
<pdfrwt beam="2">  1       -2 0.23002127E-01 0.12954384E+04</pdfrwt>
<totfact> 0.37810118E+01</totfact>
</mgrwt>
</event>
<event>
 6    1  0.4630212E-004  0.1115946E+04  0.7818608E-02  0.9189788E-01
         -3   -1    0    0    0  501 -0.00000000000E+00  0.00000000000E+00  0.16571378261E+04  0.16571378261E+04  0.00000000000E+00 0. -1.
          3   -1    0    0  501    0  0.00000000000E+00 -0.00000000000E+00 -0.18787435351E+03  0.18787435351E+03  0.00000000000E+00 0.  1.
         23    2    1    2    0    0  0.46334927864E+03  0.13361345395E+03  0.11914503536E+04  0.12884825414E+04  0.89934450405E+02 0.  0.
         11    1    3    3    0    0  0.20591816246E+03  0.17923313039E+02  0.55590697911E+03  0.59309030022E+03  0.00000000000E+00 0. -1.
        -11    1    3    3    0    0  0.25743111618E+03  0.11569014091E+03  0.63554337450E+03  0.69539224122E+03  0.00000000000E+00 0.  1.
         22    1    1    2    0    0 -0.46334927864E+03 -0.13361345395E+03  0.27781311899E+03  0.55652963818E+03  0.00000000000E+00 0.  1.
<mgrwt>
<rscale>  0 0.11159457E+04</rscale>
<asrwt>0</asrwt>
<pdfrwt beam="1">  1        3 0.28903748E-01 0.11159457E+04</pdfrwt>
<pdfrwt beam="2">  1       -3 0.25494427E+00 0.11159457E+04</pdfrwt>
<totfact> 0.20850671E+00</totfact>
</mgrwt>
</event>
<event>
 6    1  0.4630212E-004  0.6134061E+03  0.7818608E-02  0.9877977E-01
         -1   -1    0    0    0  501 -0.00000000000E+00  0.00000000000E+00  0.78144708437E+02  0.78144708437E+02  0.00000000000E+00 0. -1.
          1   -1    0    0  501    0  0.00000000000E+00 -0.00000000000E+00 -0.12037508349E+04  0.12037508349E+04  0.00000000000E+00 0.  1.
         23    2    1    2    0    0 -0.18405562003E+03 -0.23520087621E+03 -0.60496579788E+03  0.68167702048E+03  0.97488564539E+02 0.  0.
         11    1    3    3    0    0 -0.96933905061E+02 -0.19425804442E+03 -0.44100750945E+03  0.49154856644E+03  0.00000000000E+00 0.  1.
        -11    1    3    3    0    0 -0.87121714967E+02 -0.40942831787E+02 -0.16395828842E+03  0.19012845404E+03  0.00000000000E+00 0. -1.
         22    1    1    2    0    0  0.18405562003E+03  0.23520087621E+03 -0.52064032858E+03  0.60021852285E+03  0.00000000000E+00 0.  1.
<mgrwt>
<rscale>  0 0.61340609E+03</rscale>
<asrwt>0</asrwt>
<pdfrwt beam="1">  1        1 0.18519242E+00 0.61340609E+03</pdfrwt>
<pdfrwt beam="2">  1       -1 0.12022264E-01 0.61340609E+03</pdfrwt>
<totfact> 0.50885376E+02</totfact>
</mgrwt>
</event>
<event>
 6    1  0.4630212E-004  0.1195270E+04  0.7818608E-02  0.9117007E-01
         -2   -1    0    0    0  501 -0.00000000000E+00  0.00000000000E+00  0.21467342530E+04  0.21467342530E+04  0.00000000000E+00 0. -1.
          2   -1    0    0  501    0  0.00000000000E+00 -0.00000000000E+00 -0.16637707132E+03  0.16637707132E+03  0.00000000000E+00 0.  1.
         23    2    1    2    0    0 -0.22621741685E+03 -0.49400390922E+03  0.14612807151E+04  0.15616763237E+04  0.90980380514E+02 0.  0.
         13    1    3    3    0    0 -0.16921005716E+03 -0.31767704656E+03  0.85400552114E+03  0.92675572806E+03  0.00000000000E+00 0. -1.
        -13    1    3    3    0    0 -0.57007359693E+02 -0.17632686266E+03  0.60727519398E+03  0.63492059565E+03  0.00000000000E+00 0.  1.
         22    1    1    2    0    0  0.22621741685E+03  0.49400390922E+03  0.51907646659E+03  0.75143500064E+03  0.00000000000E+00 0.  1.
<mgrwt>
<rscale>  0 0.11952696E+04</rscale>
<asrwt>0</asrwt>
<pdfrwt beam="1">  1        2 0.25596474E-01 0.11952696E+04</pdfrwt>
<pdfrwt beam="2">  1       -2 0.33026679E+00 0.11952696E+04</pdfrwt>
<totfact> 0.44118357E+00</totfact>
</mgrwt>
</event>
<event>
 6    1  0.6647685E-004  0.3546210E+04  0.7818608E-02  0.8102925E-01
         -2   -1    0    0    0  501 -0.00000000000E+00  0.00000000000E+00  0.10642359544E+04  0.10642359544E+04  0.00000000000E+00 0. -1.
          2   -1    0    0  501    0  0.00000000000E+00 -0.00000000000E+00 -0.29541386318E+04  0.29541386318E+04  0.00000000000E+00 0.  1.
         23    2    1    2    0    0  0.57744123983E+03 -0.20623264234E+03 -0.28293806044E+04  0.28965060272E+04  0.91554751873E+02 0.  0.
         11    1    3    3    0    0  0.19986456395E+03 -0.10518149570E+03 -0.89747145007E+03  0.92545339951E+03  0.00000000000E+00 0. -1.
        -11    1    3    3    0    0  0.37757667588E+03 -0.10105114664E+03 -0.19319091544E+04  0.19710526277E+04  0.00000000000E+00 0.  1.
         22    1    1    2    0    0 -0.57744123983E+03  0.20623264234E+03  0.93947792707E+03  0.11218685590E+04  0.00000000000E+00 0. -1.
<mgrwt>
<rscale>  0 0.35462096E+04</rscale>
<asrwt>0</asrwt>
<pdfrwt beam="1">  1        2 0.45448285E+00 0.35462096E+04</pdfrwt>
<pdfrwt beam="2">  1       -2 0.16372861E+00 0.35462096E+04</pdfrwt>
<totfact> 0.35985037E-01</totfact>
</mgrwt>
</event>
<event>
 6    1  0.4647518E-004  0.3898905E+04  0.7818608E-02  0.8025257E-01
          2   -1    0    0  501    0  0.00000000000E+00  0.00000000000E+00  0.35437813058E+04  0.35437813058E+04  0.00000000000E+00 0.  1.
         -2   -1    0    0    0  501 -0.00000000000E+00 -0.00000000000E+00 -0.10724041680E+04  0.10724041680E+04  0.00000000000E+00 0. -1.
         23    2    1    2    0    0 -0.14172781310E+04 -0.78101940212E+03 -0.48410413148E+02  0.16215239055E+04  0.91255689772E+02 0.  0.
         13    1    3    3    0    0 -0.88978523078E+03 -0.45559641915E+03 -0.62164074776E+02  0.10015738746E+04  0.00000000000E+00 0. -1.
        -13    1    3    3    0    0 -0.52749290023E+03 -0.32542298297E+03  0.13753661628E+02  0.61995003092E+03  0.00000000000E+00 0.  1.
         22    1    1    2    0    0  0.14172781310E+04  0.78101940212E+03  0.25197875509E+04  0.29946615683E+04  0.00000000000E+00 0.  1.
<mgrwt>
<rscale>  0 0.38989054E+04</rscale>
<asrwt>0</asrwt>
<pdfrwt beam="1">  1        2 0.54519712E+00 0.38989054E+04</pdfrwt>
<pdfrwt beam="2">  1       -2 0.16498526E+00 0.38989054E+04</pdfrwt>
<totfact> 0.13919842E-01</totfact>
</mgrwt>
</event>
<event>
 6    1  0.4630212E-004  0.3514636E+04  0.7818608E-02  0.8110330E-01
          2   -1    0    0  501    0  0.00000000000E+00  0.00000000000E+00  0.24860124589E+04  0.24860124589E+04  0.00000000000E+00 0.  1.
         -2   -1    0    0    0  501 -0.00000000000E+00 -0.00000000000E+00 -0.12422168768E+04  0.12422168768E+04  0.00000000000E+00 0. -1.
         23    2    1    2    0    0  0.12580865146E+04 -0.11224415161E+04  0.11434807054E+04  0.20392297177E+04  0.90846479850E+02 0.  0.
         11    1    3    3    0    0  0.54000556579E+03 -0.45128618763E+03  0.52392165645E+03  0.87735918319E+03  0.00000000000E+00 0.  1.
        -11    1    3    3    0    0  0.71808094880E+03 -0.67115532843E+03  0.61955904897E+03  0.11618705346E+04  0.00000000000E+00 0. -1.
         22    1    1    2    0    0 -0.12580865146E+04  0.11224415161E+04  0.10031487669E+03  0.16889996180E+04  0.00000000000E+00 0.  1.
<mgrwt>
<rscale>  0 0.35146360E+04</rscale>
<asrwt>0</asrwt>
<pdfrwt beam="1">  1        2 0.38246346E+00 0.35146360E+04</pdfrwt>
<pdfrwt beam="2">  1       -2 0.19111029E+00 0.35146360E+04</pdfrwt>
<totfact> 0.44347731E-01</totfact>
</mgrwt>
</event>
<event>
 6    1  0.4630212E-004  0.3091642E+04  0.7818608E-02  0.8218035E-01
          2   -1    0    0  501    0  0.00000000000E+00  0.00000000000E+00  0.16555025247E+04  0.16555025247E+04  0.00000000000E+00 0.  1.
         -2   -1    0    0    0  501 -0.00000000000E+00 -0.00000000000E+00 -0.14434061088E+04  0.14434061088E+04  0.00000000000E+00 0. -1.
         23    2    1    2    0    0 -0.97399431912E+03  0.86282728155E+03 -0.72786826760E+03  0.14937078804E+04  0.90747812594E+02 0.  0.
         11    1    3    3    0    0 -0.58222591013E+03  0.46117817510E+03 -0.39321946399E+03  0.84041291428E+03  0.00000000000E+00 0.  1.
        -11    1    3    3    0    0 -0.39176840898E+03  0.40164910645E+03 -0.33464880361E+03  0.65329496611E+03  0.00000000000E+00 0. -1.
         22    1    1    2    0    0  0.97399431912E+03 -0.86282728155E+03  0.93996468356E+03  0.16052007531E+04  0.00000000000E+00 0.  1.
<mgrwt>
<rscale>  0 0.30916419E+04</rscale>
<asrwt>0</asrwt>
<pdfrwt beam="1">  1        2 0.25469270E+00 0.30916419E+04</pdfrwt>
<pdfrwt beam="2">  1       -2 0.22206248E+00 0.30916419E+04</pdfrwt>
<totfact> 0.84612970E-01</totfact>
</mgrwt>
</event>
<event>
 6    1  0.4630212E-004  0.3969215E+04  0.7818608E-02  0.8010786E-01
         -2   -1    0    0    0  501 -0.00000000000E+00  0.00000000000E+00  0.16115175827E+04  0.16115175827E+04  0.00000000000E+00 0. -1.
          2   -1    0    0  501    0  0.00000000000E+00 -0.00000000000E+00 -0.24440732145E+04  0.24440732145E+04  0.00000000000E+00 0.  1.
         23    2    1    2    0    0 -0.16460903014E+04 -0.29781574674E+03  0.67264732482E+03  0.18052700557E+04  0.90763710702E+02 0.  0.
         13    1    3    3    0    0 -0.12059401533E+04 -0.24471725205E+03  0.46149344959E+03  0.13142124603E+04  0.00000000000E+00 0.  1.
        -13    1    3    3    0    0 -0.44015014806E+03 -0.53098494687E+02  0.21115387522E+03  0.49105759540E+03  0.00000000000E+00 0. -1.
         22    1    1    2    0    0  0.16460903014E+04  0.29781574674E+03 -0.15052029566E+04  0.22503207416E+04  0.00000000000E+00 0.  1.
<mgrwt>
<rscale>  0 0.39692150E+04</rscale>
<asrwt>0</asrwt>
<pdfrwt beam="1">  1        2 0.37601126E+00 0.39692150E+04</pdfrwt>
<pdfrwt beam="2">  1       -2 0.24792578E+00 0.39692150E+04</pdfrwt>
<totfact> 0.19628436E-01</totfact>
</mgrwt>
</event>
<event>
 6    1  0.4630212E-004  0.1174252E+04  0.7818608E-02  0.9135698E-01
         -2   -1    0    0    0  501 -0.00000000000E+00  0.00000000000E+00  0.75136682244E+03  0.75136682244E+03  0.00000000000E+00 0. -1.
          2   -1    0    0  501    0  0.00000000000E+00 -0.00000000000E+00 -0.45878609678E+03  0.45878609678E+03  0.00000000000E+00 0.  1.
         23    2    1    2    0    0 -0.58786684203E+02 -0.40933757803E+03  0.57180564237E+03  0.71117428126E+03  0.88283852779E+02 0.  0.
         13    1    3    3    0    0 -0.76823061488E+02 -0.23090152117E+03  0.31935143788E+03  0.40150048086E+03  0.00000000000E+00 0. -1.
        -13    1    3    3    0    0  0.18036377285E+02 -0.17843605686E+03  0.25245420449E+03  0.30967380041E+03  0.00000000000E+00 0.  1.
         22    1    1    2    0    0  0.58786684203E+02  0.40933757803E+03 -0.27922491671E+03  0.49897863796E+03  0.00000000000E+00 0.  1.
<mgrwt>
<rscale>  0 0.11742515E+04</rscale>
<asrwt>0</asrwt>
<pdfrwt beam="1">  1        2 0.70582476E-01 0.11742515E+04</pdfrwt>
<pdfrwt beam="2">  1       -2 0.11559490E+00 0.11742515E+04</pdfrwt>
<totfact> 0.39137391E+01</totfact>
</mgrwt>
</event>
<event>
 6    1  0.4630212E-004  0.1535067E+04  0.7818608E-02  0.8861463E-01
          2   -1    0    0  501    0  0.00000000000E+00  0.00000000000E+00  0.45986143177E+03  0.45986143177E+03  0.00000000000E+00 0.  1.
         -2   -1    0    0    0  501 -0.00000000000E+00 -0.00000000000E+00 -0.12810545116E+04  0.12810545116E+04  0.00000000000E+00 0. -1.
         23    2    1    2    0    0 -0.57446270513E+03  0.50467526316E+03 -0.42970102197E+03  0.88186381912E+03  0.91303375346E+02 0.  0.
         11    1    3    3    0    0 -0.42344155245E+03  0.31797640432E+03 -0.28206736031E+03  0.59997811444E+03  0.00000000000E+00 0.  1.
        -11    1    3    3    0    0 -0.15102115268E+03  0.18669885884E+03 -0.14763366166E+03  0.28188570468E+03  0.00000000000E+00 0. -1.
         22    1    1    2    0    0  0.57446270513E+03 -0.50467526316E+03 -0.39149205789E+03  0.85905212428E+03  0.00000000000E+00 0.  1.
<mgrwt>
<rscale>  0 0.15350669E+04</rscale>
<asrwt>0</asrwt>
<pdfrwt beam="1">  1        2 0.70747913E-01 0.15350669E+04</pdfrwt>
<pdfrwt beam="2">  1       -2 0.19708531E+00 0.15350669E+04</pdfrwt>
<totfact> 0.90787317E+00</totfact>
</mgrwt>
</event>
<event>
 6    1  0.4630212E-004  0.3279217E+04  0.7818608E-02  0.8168204E-01
          2   -1    0    0  501    0  0.00000000000E+00  0.00000000000E+00  0.37477067196E+04  0.37477067196E+04  0.00000000000E+00 0.  1.
         -2   -1    0    0    0  501 -0.00000000000E+00 -0.00000000000E+00 -0.71732316154E+03  0.71732316154E+03  0.00000000000E+00 0. -1.
         23    2    1    2    0    0 -0.13303794298E+04 -0.78871919594E+03  0.22523591016E+04  0.27337559421E+04  0.91173630559E+02 0.  0.
         11    1    3    3    0    0 -0.81983645218E+03 -0.43576096679E+03  0.13696202857E+04  0.16546537872E+04  0.00000000000E+00 0.  1.
        -11    1    3    3    0    0 -0.51054297763E+03 -0.35295822915E+03  0.88273881587E+03  0.10791021548E+04  0.00000000000E+00 0. -1.
         22    1    1    2    0    0  0.13303794298E+04  0.78871919594E+03  0.77802445646E+03  0.17312739391E+04  0.00000000000E+00 0.  1.
<mgrwt>
<rscale>  0 0.32792175E+04</rscale>
<asrwt>0</asrwt>
<pdfrwt beam="1">  1        2 0.57657025E+00 0.32792175E+04</pdfrwt>
<pdfrwt beam="2">  1       -2 0.11035741E+00 0.32792175E+04</pdfrwt>
<totfact> 0.29283848E-01</totfact>
</mgrwt>
</event>
<event>
 6    1  0.4630212E-004  0.8480994E+03  0.7818608E-02  0.9492891E-01
         -2   -1    0    0    0  501 -0.00000000000E+00  0.00000000000E+00  0.21538710488E+03  0.21538710488E+03  0.00000000000E+00 0. -1.
          2   -1    0    0  501    0  0.00000000000E+00 -0.00000000000E+00 -0.83486030604E+03  0.83486030604E+03  0.00000000000E+00 0.  1.
         23    2    1    2    0    0 -0.61794392752E+02 -0.50238012848E+02 -0.82288705298E+03  0.83179924769E+03  0.91675959706E+02 0.  0.
         11    1    3    3    0    0 -0.32743003440E+02  0.15888341769E+02 -0.12516647183E+03  0.13035025642E+03  0.00000000000E+00 0.  1.
        -11    1    3    3    0    0 -0.29051389312E+02 -0.66126354617E+02 -0.69772058115E+03  0.70144899127E+03  0.00000000000E+00 0. -1.
         22    1    1    2    0    0  0.61794392752E+02  0.50238012848E+02  0.20341385182E+03  0.21844816324E+03  0.00000000000E+00 0. -1.
<mgrwt>
<rscale>  0 0.84809939E+03</rscale>
<asrwt>0</asrwt>
<pdfrwt beam="1">  1        2 0.12844005E+00 0.84809939E+03</pdfrwt>
<pdfrwt beam="2">  1       -2 0.33136477E-01 0.84809939E+03</pdfrwt>
<totfact> 0.27749639E+02</totfact>
</mgrwt>
</event>
<event>
 6    1  0.4630212E-004  0.3477740E+04  0.7818608E-02  0.8119086E-01
         -2   -1    0    0    0  501 -0.00000000000E+00  0.00000000000E+00  0.89782497094E+03  0.89782497094E+03  0.00000000000E+00 0.  1.
          2   -1    0    0  501    0  0.00000000000E+00 -0.00000000000E+00 -0.33677710135E+04  0.33677710135E+04  0.00000000000E+00 0. -1.
         23    2    1    2    0    0  0.51201735333E+03  0.29426674195E+03 -0.32402885804E+04  0.32949352243E+04  0.91506079451E+02 0.  0.
         13    1    3    3    0    0  0.23675444870E+03  0.18875635949E+03 -0.16281720828E+04  0.16560875470E+04  0.00000000000E+00 0.  1.
        -13    1    3    3    0    0  0.27526290463E+03  0.10551038246E+03 -0.16121164976E+04  0.16388476773E+04  0.00000000000E+00 0. -1.
         22    1    1    2    0    0 -0.51201735333E+03 -0.29426674195E+03  0.77034253787E+03  0.97066076009E+03  0.00000000000E+00 0.  1.
<mgrwt>
<rscale>  0 0.34777400E+04</rscale>
<asrwt>0</asrwt>
<pdfrwt beam="1">  1        2 0.51811862E+00 0.34777400E+04</pdfrwt>
<pdfrwt beam="2">  1       -2 0.13812692E+00 0.34777400E+04</pdfrwt>
<totfact> 0.30663583E-01</totfact>
</mgrwt>
</event>
<event>
 6    1  0.4630212E-004  0.1655509E+04  0.7818608E-02  0.8787154E-01
          2   -1    0    0  501    0  0.00000000000E+00  0.00000000000E+00  0.53251653070E+03  0.53251653070E+03  0.00000000000E+00 0.  1.
         -2   -1    0    0    0  501 -0.00000000000E+00 -0.00000000000E+00 -0.12866786268E+04  0.12866786268E+04  0.00000000000E+00 0. -1.
         23    2    1    2    0    0  0.80186617728E+03  0.12494873196E+03 -0.54189142455E+03  0.98035048184E+03  0.94017016266E+02 0.  0.
         11    1    3    3    0    0  0.26982274479E+02  0.21766286570E+02 -0.15889483032E+02  0.38135154886E+02  0.00000000000E+00 0. -1.
        -11    1    3    3    0    0  0.77488390280E+03  0.10318244539E+03 -0.52600194152E+03  0.94221532695E+03  0.00000000000E+00 0.  1.
         22    1    1    2    0    0 -0.80186617728E+03 -0.12494873196E+03 -0.21227067154E+03  0.83884467566E+03  0.00000000000E+00 0.  1.
<mgrwt>
<rscale>  0 0.16555092E+04</rscale>
<asrwt>0</asrwt>
<pdfrwt beam="1">  1        2 0.81925620E-01 0.16555092E+04</pdfrwt>
<pdfrwt beam="2">  1       -2 0.19795056E+00 0.16555092E+04</pdfrwt>
<totfact> 0.74858303E+00</totfact>
</mgrwt>
</event>
<event>
 6    1  0.4630212E-004  0.1765246E+04  0.7818608E-02  0.8725003E-01
         -1   -1    0    0    0  501 -0.00000000000E+00  0.00000000000E+00  0.28661180036E+04  0.28661180036E+04  0.00000000000E+00 0. -1.
          1   -1    0    0  501    0  0.00000000000E+00 -0.00000000000E+00 -0.27180423962E+03  0.27180423962E+03  0.00000000000E+00 0.  1.
         23    2    1    2    0    0  0.57927621956E+03 -0.60112715021E+03  0.17967961113E+04  0.19833880533E+04  0.91853771330E+02 0.  0.
         13    1    3    3    0    0  0.32902072241E+03 -0.40559453319E+03  0.11162028051E+04  0.12323434031E+04  0.00000000000E+00 0. -1.
        -13    1    3    3    0    0  0.25025549715E+03 -0.19553261702E+03  0.68059330617E+03  0.75104465019E+03  0.00000000000E+00 0.  1.
         22    1    1    2    0    0 -0.57927621956E+03  0.60112715021E+03  0.79751765270E+03  0.11545341899E+04  0.00000000000E+00 0.  1.
<mgrwt>
<rscale>  0 0.17652456E+04</rscale>
<asrwt>0</asrwt>
<pdfrwt beam="1">  1        1 0.41816039E-01 0.17652456E+04</pdfrwt>
<pdfrwt beam="2">  1       -1 0.44094121E+00 0.17652456E+04</pdfrwt>
<totfact> 0.35369008E-01</totfact>
</mgrwt>
</event>
<event>
 6    1  0.4630212E-004  0.1975486E+04  0.7818608E-02  0.8618168E-01
          2   -1    0    0  501    0  0.00000000000E+00  0.00000000000E+00  0.19348695160E+04  0.19348695160E+04  0.00000000000E+00 0.  1.
         -2   -1    0    0    0  501 -0.00000000000E+00 -0.00000000000E+00 -0.50423881326E+03  0.50423881326E+03  0.00000000000E+00 0. -1.
         23    2    1    2    0    0 -0.60429279598E+03  0.29832760591E+03 -0.17124116739E+03  0.70124681808E+03  0.90853831698E+02 0.  0.
         13    1    3    3    0    0 -0.18778231111E+03  0.89816771848E+02 -0.10201741259E+02  0.20840663232E+03  0.00000000000E+00 0. -1.
        -13    1    3    3    0    0 -0.41651048487E+03  0.20851083406E+03 -0.16103942613E+03  0.49284018576E+03  0.00000000000E+00 0.  1.
         22    1    1    2    0    0  0.60429279598E+03 -0.29832760591E+03  0.16018718702E+04  0.17378615112E+04  0.00000000000E+00 0.  1.
<mgrwt>
<rscale>  0 0.19754861E+04</rscale>
<asrwt>0</asrwt>
<pdfrwt beam="1">  1        2 0.29767223E+00 0.19754861E+04</pdfrwt>
<pdfrwt beam="2">  1       -2 0.77575203E-01 0.19754861E+04</pdfrwt>
<totfact> 0.10012182E+01</totfact>
</mgrwt>
</event>
<event>
 6    1  0.4630212E-004  0.2030593E+04  0.7818608E-02  0.8592450E-01
         -2   -1    0    0    0  501 -0.00000000000E+00  0.00000000000E+00  0.42276169564E+03  0.42276169564E+03  0.00000000000E+00 0. -1.
          2   -1    0    0  501    0  0.00000000000E+00 -0.00000000000E+00 -0.24383161758E+04  0.24383161758E+04  0.00000000000E+00 0.  1.
         23    2    1    2    0    0  0.42547725159E+03 -0.59373093662E+03 -0.19992151946E+04  0.21304519144E+04  0.91742295358E+02 0.  0.
         13    1    3    3    0    0  0.17781146291E+03 -0.31308692433E+03 -0.90532113793E+03  0.97429292377E+03  0.00000000000E+00 0.  1.
        -13    1    3    3    0    0  0.24766578868E+03 -0.28064401229E+03 -0.10938940567E+04  0.11561589907E+04  0.00000000000E+00 0. -1.
         22    1    1    2    0    0 -0.42547725159E+03  0.59373093662E+03 -0.16339285517E+02  0.73062595695E+03  0.00000000000E+00 0. -1.
<mgrwt>
<rscale>  0 0.20305927E+04</rscale>
<asrwt>0</asrwt>
<pdfrwt beam="1">  1        2 0.37512556E+00 0.20305927E+04</pdfrwt>
<pdfrwt beam="2">  1       -2 0.65040261E-01 0.20305927E+04</pdfrwt>
<totfact> 0.76382205E+00</totfact>
</mgrwt>
</event>
<event>
 6    1  0.4630212E-004  0.9396376E+03  0.7818608E-02  0.9377345E-01
         -2   -1    0    0    0  501 -0.00000000000E+00  0.00000000000E+00  0.16943106837E+03  0.16943106837E+03  0.00000000000E+00 0. -1.
          2   -1    0    0  501    0  0.00000000000E+00 -0.00000000000E+00 -0.13027700292E+04  0.13027700292E+04  0.00000000000E+00 0.  1.
         23    2    1    2    0    0  0.13748608314E+03  0.44137669872E+03 -0.65745693997E+03  0.80874084179E+03  0.89979486733E+02 0.  0.
         11    1    3    3    0    0  0.14343613698E+03  0.36972053714E+03 -0.52401217400E+03  0.65715748454E+03  0.00000000000E+00 0. -1.
        -11    1    3    3    0    0 -0.59500538382E+01  0.71656161578E+02 -0.13344476596E+03  0.15158335725E+03  0.00000000000E+00 0.  1.
         22    1    1    2    0    0 -0.13748608314E+03 -0.44137669872E+03 -0.47588202091E+03  0.66346025583E+03  0.00000000000E+00 0. -1.
<mgrwt>
<rscale>  0 0.93963763E+03</rscale>
<asrwt>0</asrwt>
<pdfrwt beam="1">  1        2 0.20042615E+00 0.93963763E+03</pdfrwt>
<pdfrwt beam="2">  1       -2 0.26066319E-01 0.93963763E+03</pdfrwt>
<totfact> 0.21890951E+02</totfact>
</mgrwt>
</event>
<event>
 6    1  0.4630212E-004  0.2631639E+04  0.7818608E-02  0.8357533E-01
         -2   -1    0    0    0  501 -0.00000000000E+00  0.00000000000E+00  0.64774901124E+03  0.64774901124E+03  0.00000000000E+00 0. -1.
          2   -1    0    0  501    0  0.00000000000E+00 -0.00000000000E+00 -0.26729199222E+04  0.26729199222E+04  0.00000000000E+00 0.  1.
         23    2    1    2    0    0  0.10856524676E+04 -0.57095287107E+03 -0.41873172480E+03  0.12994625313E+04  0.92941655919E+02 0.  0.
         11    1    3    3    0    0  0.53407274794E+03 -0.23521697012E+03 -0.17468092063E+03  0.60915855666E+03  0.00000000000E+00 0.  1.
        -11    1    3    3    0    0  0.55157971966E+03 -0.33573590095E+03 -0.24405080417E+03  0.69030397460E+03  0.00000000000E+00 0. -1.
         22    1    1    2    0    0 -0.10856524676E+04  0.57095287107E+03 -0.16064391861E+04  0.20212064021E+04  0.00000000000E+00 0.  1.
<mgrwt>
<rscale>  0 0.26316392E+04</rscale>
<asrwt>0</asrwt>
<pdfrwt beam="1">  1        2 0.41121846E+00 0.26316392E+04</pdfrwt>
<pdfrwt beam="2">  1       -2 0.99653692E-01 0.26316392E+04</pdfrwt>
<totfact> 0.20244210E+00</totfact>
</mgrwt>
</event>
<event>
 6    1  0.4630212E-004  0.2700532E+04  0.7818608E-02  0.8334832E-01
          2   -1    0    0  501    0  0.00000000000E+00  0.00000000000E+00  0.16766051197E+04  0.16766051197E+04  0.00000000000E+00 0.  1.
         -2   -1    0    0    0  501 -0.00000000000E+00 -0.00000000000E+00 -0.10874465536E+04  0.10874465536E+04  0.00000000000E+00 0. -1.
         23    2    1    2    0    0  0.85368934809E+03  0.94118072496E+03  0.75794804596E+03  0.14822183969E+04  0.88766411433E+02 0.  0.
         11    1    3    3    0    0  0.33084835192E+03  0.38813880675E+03  0.25722103419E+03  0.57120488943E+03  0.00000000000E+00 0.  1.
        -11    1    3    3    0    0  0.52284099617E+03  0.55304191821E+03  0.50072701177E+03  0.91101350752E+03  0.00000000000E+00 0. -1.
         22    1    1    2    0    0 -0.85368934809E+03 -0.94118072496E+03 -0.16878947986E+03  0.12818332764E+04  0.00000000000E+00 0. -1.
<mgrwt>
<rscale>  0 0.27005321E+04</rscale>
<asrwt>0</asrwt>
<pdfrwt beam="1">  1        2 0.25793925E+00 0.27005321E+04</pdfrwt>
<pdfrwt beam="2">  1       -2 0.16729947E+00 0.27005321E+04</pdfrwt>
<totfact> 0.19757789E+00</totfact>
</mgrwt>
</event>
<event>
 6    1  0.5128373E-004  0.3665092E+04  0.7818608E-02  0.8075742E-01
         -2   -1    0    0    0  501 -0.00000000000E+00  0.00000000000E+00  0.19559640513E+04  0.19559640513E+04  0.00000000000E+00 0. -1.
          2   -1    0    0  501    0  0.00000000000E+00 -0.00000000000E+00 -0.17169155981E+04  0.17169155981E+04  0.00000000000E+00 0.  1.
         23    2    1    2    0    0 -0.13290733797E+04 -0.12581326227E+04  0.53580869865E+02  0.18333873365E+04  0.95417353001E+02 0.  0.
         13    1    3    3    0    0 -0.40784418436E+03 -0.33561790324E+03  0.38379310260E+02  0.52957457185E+03  0.00000000000E+00 0. -1.
        -13    1    3    3    0    0 -0.92122919530E+03 -0.92251471946E+03  0.15201559605E+02  0.13038127647E+04  0.00000000000E+00 0.  1.
         22    1    1    2    0    0  0.13290733797E+04  0.12581326227E+04  0.18546758332E+03  0.18394923129E+04  0.00000000000E+00 0.  1.
<mgrwt>
<rscale>  0 0.36650922E+04</rscale>
<asrwt>0</asrwt>
<pdfrwt beam="1">  1        2 0.26414086E+00 0.36650922E+04</pdfrwt>
<pdfrwt beam="2">  1       -2 0.30091755E+00 0.36650922E+04</pdfrwt>
<totfact> 0.24408530E-01</totfact>
</mgrwt>
</event>
<event>
 6    1  0.4630212E-004  0.2323901E+04  0.7818608E-02  0.8468557E-01
          4   -1    0    0  501    0  0.00000000000E+00  0.00000000000E+00  0.15527420135E+04  0.15527420135E+04  0.00000000000E+00 0.  1.
         -4   -1    0    0    0  501 -0.00000000000E+00 -0.00000000000E+00 -0.86951264584E+03  0.86951264584E+03  0.00000000000E+00 0. -1.
         23    2    1    2    0    0  0.12354959418E+03 -0.22432963712E+03  0.15215815843E+04  0.15456574157E+04  0.90873762332E+02 0.  0.
         13    1    3    3    0    0  0.72360246809E+02 -0.20294746468E+03  0.11591717717E+04  0.11790262402E+04  0.00000000000E+00 0.  1.
        -13    1    3    3    0    0  0.51189347375E+02 -0.21382172442E+02  0.36240981263E+03  0.36663117553E+03  0.00000000000E+00 0. -1.
         22    1    1    2    0    0 -0.12354959418E+03  0.22432963712E+03 -0.83835221668E+03  0.87659724362E+03  0.00000000000E+00 0. -1.
<mgrwt>
<rscale>  0 0.23239009E+04</rscale>
<asrwt>0</asrwt>
<pdfrwt beam="1">  1        4 0.23888339E+00 0.23239009E+04</pdfrwt>
<pdfrwt beam="2">  1       -4 0.13377118E+00 0.23239009E+04</pdfrwt>
<totfact> 0.53842192E-02</totfact>
</mgrwt>
</event>
<event>
 6    1  0.4630212E-004  0.5958458E+04  0.7818608E-02  0.7695574E-01
          2   -1    0    0  501    0  0.00000000000E+00  0.00000000000E+00  0.39573733575E+04  0.39573733575E+04  0.00000000000E+00 0.  1.
         -2   -1    0    0    0  501 -0.00000000000E+00 -0.00000000000E+00 -0.22428528134E+04  0.22428528134E+04  0.00000000000E+00 0. -1.
         23    2    1    2    0    0  0.14229828220E+04  0.21638213531E+04 -0.67348679960E+03  0.26775025040E+04  0.91827175361E+02 0.  0.
         13    1    3    3    0    0  0.42226790109E+03  0.71588146677E+03 -0.23042220831E+03  0.86249107175E+03  0.00000000000E+00 0. -1.
        -13    1    3    3    0    0  0.10007149209E+04  0.14479398863E+04 -0.44306459129E+03  0.18150114323E+04  0.00000000000E+00 0.  1.
         22    1    1    2    0    0 -0.14229828220E+04 -0.21638213531E+04  0.23880073437E+04  0.35227236669E+04  0.00000000000E+00 0.  1.
<mgrwt>
<rscale>  0 0.59584582E+04</rscale>
<asrwt>0</asrwt>
<pdfrwt beam="1">  1        2 0.60882667E+00 0.59584582E+04</pdfrwt>
<pdfrwt beam="2">  1       -2 0.34505428E+00 0.59584582E+04</pdfrwt>
<totfact> 0.41582006E-03</totfact>
</mgrwt>
</event>
<event>
 6    1  0.4630212E-004  0.8534108E+03  0.7818608E-02  0.9485771E-01
         -2   -1    0    0    0  501 -0.00000000000E+00  0.00000000000E+00  0.13711892878E+03  0.13711892878E+03  0.00000000000E+00 0. -1.
          2   -1    0    0  501    0  0.00000000000E+00 -0.00000000000E+00 -0.13278800790E+04  0.13278800790E+04  0.00000000000E+00 0.  1.
         23    2    1    2    0    0  0.17897238454E+03  0.33554123753E+03 -0.30166204218E+03  0.49798491252E+03  0.11122027194E+03 0.  0.
         13    1    3    3    0    0  0.13281279216E+03  0.27951249177E+03 -0.18488920281E+03  0.36048646040E+03  0.00000000000E+00 0. -1.
        -13    1    3    3    0    0  0.46159592380E+02  0.56028745768E+02 -0.11677283937E+03  0.13749845212E+03  0.00000000000E+00 0.  1.
         22    1    1    2    0    0 -0.17897238454E+03 -0.33554123753E+03 -0.88909910802E+03  0.96701409525E+03  0.00000000000E+00 0.  1.
<mgrwt>
<rscale>  0 0.85341079E+03</rscale>
<asrwt>0</asrwt>
<pdfrwt beam="1">  1        2 0.20428924E+00 0.85341079E+03</pdfrwt>
<pdfrwt beam="2">  1       -2 0.21095220E-01 0.85341079E+03</pdfrwt>
<totfact> 0.31086077E+02</totfact>
</mgrwt>
</event>
<event>
 6    1  0.4630212E-004  0.1347039E+04  0.7818608E-02  0.8993073E-01
         -2   -1    0    0    0  501 -0.00000000000E+00  0.00000000000E+00  0.46598121877E+03  0.46598121877E+03  0.00000000000E+00 0. -1.
          2   -1    0    0  501    0  0.00000000000E+00 -0.00000000000E+00 -0.97349096970E+03  0.97349096970E+03  0.00000000000E+00 0.  1.
         23    2    1    2    0    0 -0.73436916898E+02  0.55333852293E+03 -0.65172743075E+03  0.86295224875E+03  0.91440898377E+02 0.  0.
         13    1    3    3    0    0 -0.60505633439E+02  0.39546456503E+03 -0.52520664169E+03  0.66022357603E+03  0.00000000000E+00 0. -1.
        -13    1    3    3    0    0 -0.12931283459E+02  0.15787395790E+03 -0.12652078906E+03  0.20272867272E+03  0.00000000000E+00 0.  1.
         22    1    1    2    0    0  0.73436916898E+02 -0.55333852293E+03  0.14421767983E+03  0.57651993973E+03  0.00000000000E+00 0. -1.
<mgrwt>
<rscale>  0 0.13470390E+04</rscale>
<asrwt>0</asrwt>
<pdfrwt beam="1">  1        2 0.14976784E+00 0.13470390E+04</pdfrwt>
<pdfrwt beam="2">  1       -2 0.71689420E-01 0.13470390E+04</pdfrwt>
<totfact> 0.45178028E+01</totfact>
</mgrwt>
</event>
<event>
 6    1  0.6142544E-004  0.3183822E+04  0.7818608E-02  0.8193103E-01
          2   -1    0    0  501    0  0.00000000000E+00  0.00000000000E+00  0.26803281705E+04  0.26803281705E+04  0.00000000000E+00 0.  1.
         -2   -1    0    0    0  501 -0.00000000000E+00 -0.00000000000E+00 -0.94547395110E+03  0.94547395110E+03  0.00000000000E+00 0. -1.
         23    2    1    2    0    0 -0.46220787604E+03  0.58577447531E+02  0.26001302716E+04  0.26430661018E+04  0.89741579348E+02 0.  0.
         11    1    3    3    0    0 -0.19058282876E+03 -0.12346488329E+02  0.11952142096E+04  0.12103764940E+04  0.00000000000E+00 0.  1.
        -11    1    3    3    0    0 -0.27162504728E+03  0.70923935859E+02  0.14049160620E+04  0.14326896078E+04  0.00000000000E+00 0. -1.
         22    1    1    2    0    0  0.46220787604E+03 -0.58577447531E+02 -0.86527605223E+03  0.98273601979E+03  0.00000000000E+00 0. -1.
<mgrwt>
<rscale>  0 0.31838219E+04</rscale>
<asrwt>0</asrwt>
<pdfrwt beam="1">  1        2 0.41235818E+00 0.31838219E+04</pdfrwt>
<pdfrwt beam="2">  1       -2 0.14545753E+00 0.31838219E+04</pdfrwt>
<totfact> 0.74726357E-01</totfact>
</mgrwt>
</event>
<event>
 6    1  0.4630212E-004  0.3161517E+04  0.7818608E-02  0.8199055E-01
         -2   -1    0    0    0  501 -0.00000000000E+00  0.00000000000E+00  0.17637221915E+04  0.17637221915E+04  0.00000000000E+00 0. -1.
          2   -1    0    0  501    0  0.00000000000E+00 -0.00000000000E+00 -0.14167748487E+04  0.14167748487E+04  0.00000000000E+00 0.  1.
         23    2    1    2    0    0 -0.10146913221E+03  0.15151857351E+04  0.61054426004E+03  0.16392095488E+04  0.90331915341E+02 0.  0.
         11    1    3    3    0    0 -0.27335618259E+02  0.35673080184E+03  0.10323873274E+03  0.37237392087E+03  0.00000000000E+00 0. -1.
        -11    1    3    3    0    0 -0.74133513949E+02  0.11584549332E+04  0.50730552731E+03  0.12668356280E+04  0.00000000000E+00 0.  1.
         22    1    1    2    0    0  0.10146913221E+03 -0.15151857351E+04 -0.26359691724E+03  0.15412874915E+04  0.00000000000E+00 0.  1.
<mgrwt>
<rscale>  0 0.31615169E+04</rscale>
<asrwt>0</asrwt>
<pdfrwt beam="1">  1        2 0.21796536E+00 0.31615169E+04</pdfrwt>
<pdfrwt beam="2">  1       -2 0.27134188E+00 0.31615169E+04</pdfrwt>
<totfact> 0.56865220E-01</totfact>
</mgrwt>
</event>
<event>
 6    1  0.4630212E-004  0.1239191E+04  0.7818608E-02  0.9079228E-01
          2   -1    0    0  501    0  0.00000000000E+00  0.00000000000E+00  0.16027492834E+04  0.16027492834E+04  0.00000000000E+00 0.  1.
         -2   -1    0    0    0  501 -0.00000000000E+00 -0.00000000000E+00 -0.23952508132E+03  0.23952508132E+03  0.00000000000E+00 0. -1.
         23    2    1    2    0    0  0.22978971829E+03 -0.56251691855E+03  0.53196883761E+03  0.81260738979E+03  0.90062908380E+02 0.  0.
         11    1    3    3    0    0  0.13156255731E+03 -0.42553924999E+03  0.37427316134E+03  0.58178411724E+03  0.00000000000E+00 0. -1.
        -11    1    3    3    0    0  0.98227160979E+02 -0.13697766856E+03  0.15769567628E+03  0.23082327256E+03  0.00000000000E+00 0.  1.
         22    1    1    2    0    0 -0.22978971829E+03  0.56251691855E+03  0.83125536442E+03  0.10296669749E+04  0.00000000000E+00 0.  1.
<mgrwt>
<rscale>  0 0.12391911E+04</rscale>
<asrwt>0</asrwt>
<pdfrwt beam="1">  1        2 0.24657681E+00 0.12391911E+04</pdfrwt>
<pdfrwt beam="2">  1       -2 0.36850014E-01 0.12391911E+04</pdfrwt>
<totfact> 0.75852179E+01</totfact>
</mgrwt>
</event>
<event>
 6    1  0.4630212E-004  0.1971202E+04  0.7818608E-02  0.8620204E-01
         -2   -1    0    0    0  501 -0.00000000000E+00  0.00000000000E+00  0.81195994652E+03  0.81195994652E+03  0.00000000000E+00 0. -1.
          2   -1    0    0  501    0  0.00000000000E+00 -0.00000000000E+00 -0.11963755304E+04  0.11963755304E+04  0.00000000000E+00 0.  1.
         23    2    1    2    0    0  0.16974276040E+03  0.96853345650E+03 -0.21098323332E+03  0.10098624220E+04  0.91861447951E+02 0.  0.
         11    1    3    3    0    0  0.10032843290E+03  0.34008558472E+03 -0.57205955385E+02  0.35916085632E+03  0.00000000000E+00 0. -1.
        -11    1    3    3    0    0  0.69414327501E+02  0.62844787178E+03 -0.15377727793E+03  0.65070156571E+03  0.00000000000E+00 0.  1.
         22    1    1    2    0    0 -0.16974276040E+03 -0.96853345650E+03 -0.17343235051E+03  0.99847305485E+03  0.00000000000E+00 0.  1.
<mgrwt>
<rscale>  0 0.19712017E+04</rscale>
<asrwt>0</asrwt>
<pdfrwt beam="1">  1        2 0.18405777E+00 0.19712017E+04</pdfrwt>
<pdfrwt beam="2">  1       -2 0.12491691E+00 0.19712017E+04</pdfrwt>
<totfact> 0.85150103E+00</totfact>
</mgrwt>
</event>
<event>
 6    1  0.4630212E-004  0.4857593E+04  0.7818608E-02  0.7850858E-01
          2   -1    0    0  501    0  0.00000000000E+00  0.00000000000E+00  0.32019901694E+04  0.32019901694E+04  0.00000000000E+00 0.  1.
         -2   -1    0    0    0  501 -0.00000000000E+00 -0.00000000000E+00 -0.18423084444E+04  0.18423084444E+04  0.00000000000E+00 0. -1.
         23    2    1    2    0    0 -0.17179924605E+04  0.10841045363E+04 -0.70063143077E+03  0.21509146020E+04  0.93640180300E+02 0.  0.
         11    1    3    3    0    0 -0.15098850376E+04  0.98105297669E+03 -0.60162329989E+03  0.18984647389E+04  0.00000000000E+00 0. -1.
        -11    1    3    3    0    0 -0.20810742292E+03  0.10305155959E+03 -0.99008130881E+02  0.25244986312E+03  0.00000000000E+00 0.  1.
         22    1    1    2    0    0  0.17179924605E+04 -0.10841045363E+04  0.20603131558E+04  0.28933840118E+04  0.00000000000E+00 0.  1.
<mgrwt>
<rscale>  0 0.48575934E+04</rscale>
<asrwt>0</asrwt>
<pdfrwt beam="1">  1        2 0.49261387E+00 0.48575934E+04</pdfrwt>
<pdfrwt beam="2">  1       -2 0.28343207E+00 0.48575934E+04</pdfrwt>
<totfact> 0.38164938E-02</totfact>
</mgrwt>
</event>
<event>
 6    1  0.4630212E-004  0.1822881E+04  0.7818608E-02  0.8694225E-01
         -1   -1    0    0    0  501 -0.00000000000E+00  0.00000000000E+00  0.11318434995E+04  0.11318434995E+04  0.00000000000E+00 0. -1.
          1   -1    0    0  501    0  0.00000000000E+00 -0.00000000000E+00 -0.73395669834E+03  0.73395669834E+03  0.00000000000E+00 0.  1.
         23    2    1    2    0    0 -0.49580151393E+03 -0.31482320725E+02  0.97890212772E+03  0.11013467411E+04  0.88910015344E+02 0.  0.
         13    1    3    3    0    0 -0.35889692980E+03 -0.19522585136E+02  0.61457590411E+03  0.71196325710E+03  0.00000000000E+00 0. -1.
        -13    1    3    3    0    0 -0.13690458413E+03 -0.11959735590E+02  0.36432622360E+03  0.38938348403E+03  0.00000000000E+00 0.  1.
         22    1    1    2    0    0  0.49580151393E+03  0.31482320725E+02 -0.58101532658E+03  0.76445345669E+03  0.00000000000E+00 0.  1.
<mgrwt>
<rscale>  0 0.18228814E+04</rscale>
<asrwt>0</asrwt>
<pdfrwt beam="1">  1        1 0.11291642E+00 0.18228814E+04</pdfrwt>
<pdfrwt beam="2">  1       -1 0.17412977E+00 0.18228814E+04</pdfrwt>
<totfact> 0.54750438E+00</totfact>
</mgrwt>
</event>
<event>
 6    1  0.4630212E-004  0.9375794E+03  0.7818608E-02  0.9379787E-01
          2   -1    0    0  501    0  0.00000000000E+00  0.00000000000E+00  0.49225038321E+03  0.49225038321E+03  0.00000000000E+00 0.  1.
         -2   -1    0    0    0  501 -0.00000000000E+00 -0.00000000000E+00 -0.44644717455E+03  0.44644717455E+03  0.00000000000E+00 0. -1.
         23    2    1    2    0    0  0.80437533840E+02 -0.11762222248E+03 -0.41935152770E+03  0.45220592081E+03  0.91265036895E+02 0.  0.
         11    1    3    3    0    0  0.37413163006E+02 -0.10763734009E+03 -0.36383597170E+03  0.38126389293E+03  0.00000000000E+00 0.  1.
        -11    1    3    3    0    0  0.43024370834E+02 -0.99848823955E+01 -0.55515555999E+02  0.70942027882E+02  0.00000000000E+00 0. -1.
         22    1    1    2    0    0 -0.80437533840E+02  0.11762222248E+03  0.46515473636E+03  0.48649163696E+03  0.00000000000E+00 0.  1.
<mgrwt>
<rscale>  0 0.93757942E+03</rscale>
<asrwt>0</asrwt>
<pdfrwt beam="1">  1        2 0.75730828E-01 0.93757942E+03</pdfrwt>
<pdfrwt beam="2">  1       -2 0.68684181E-01 0.93757942E+03</pdfrwt>
<totfact> 0.12178137E+02</totfact>
</mgrwt>
</event>
<event>
 6    1  0.4630212E-004  0.1144492E+04  0.7818608E-02  0.9162880E-01
         -2   -1    0    0    0  501 -0.00000000000E+00  0.00000000000E+00  0.21574489474E+03  0.21574489474E+03  0.00000000000E+00 0. -1.
          2   -1    0    0  501    0  0.00000000000E+00 -0.00000000000E+00 -0.15178355711E+04  0.15178355711E+04  0.00000000000E+00 0.  1.
         23    2    1    2    0    0 -0.17791691031E+03  0.52227306867E+03 -0.86384001743E+03  0.10289619695E+04  0.90108677835E+02 0.  0.
         13    1    3    3    0    0 -0.18633453395E+03  0.48536651024E+03 -0.78574947477E+03  0.94218015523E+03  0.00000000000E+00 0. -1.
        -13    1    3    3    0    0  0.84176236394E+01  0.36906558429E+02 -0.78090542662E+02  0.86781814316E+02  0.00000000000E+00 0.  1.
         22    1    1    2    0    0  0.17791691031E+03 -0.52227306867E+03 -0.43825065889E+03  0.70461849624E+03  0.00000000000E+00 0. -1.
<mgrwt>
<rscale>  0 0.11444916E+04</rscale>
<asrwt>0</asrwt>
<pdfrwt beam="1">  1        2 0.23351317E+00 0.11444916E+04</pdfrwt>
<pdfrwt beam="2">  1       -2 0.33191521E-01 0.11444916E+04</pdfrwt>
<totfact> 0.10403610E+02</totfact>
</mgrwt>
</event>
<event>
 6    1  0.4630212E-004  0.3585316E+04  0.7818608E-02  0.8093864E-01
         -2   -1    0    0    0  501 -0.00000000000E+00  0.00000000000E+00  0.24521295902E+04  0.24521295902E+04  0.00000000000E+00 0. -1.
          2   -1    0    0  501    0  0.00000000000E+00 -0.00000000000E+00 -0.13105432930E+04  0.13105432930E+04  0.00000000000E+00 0.  1.
         23    2    1    2    0    0 -0.12648741992E+04  0.28230573605E+03  0.18691989470E+04  0.22763944986E+04  0.91999680629E+02 0.  0.
         11    1    3    3    0    0 -0.16390741667E+03  0.67004905393E+02  0.27362167094E+03  0.32592041574E+03  0.00000000000E+00 0. -1.
        -11    1    3    3    0    0 -0.11009667826E+04  0.21530083065E+03  0.15955772761E+04  0.19504740828E+04  0.00000000000E+00 0.  1.
         22    1    1    2    0    0  0.12648741992E+04 -0.28230573605E+03 -0.72761264979E+03  0.14862783846E+04  0.00000000000E+00 0.  1.
<mgrwt>
<rscale>  0 0.35853156E+04</rscale>
<asrwt>0</asrwt>
<pdfrwt beam="1">  1        2 0.20162204E+00 0.35853156E+04</pdfrwt>
<pdfrwt beam="2">  1       -2 0.37725071E+00 0.35853156E+04</pdfrwt>
<totfact> 0.13862330E-01</totfact>
</mgrwt>
</event>
<event>
 6    1  0.4630212E-004  0.2422571E+04  0.7818608E-02  0.8431101E-01
          2   -1    0    0  501    0  0.00000000000E+00  0.00000000000E+00  0.16910770185E+04  0.16910770185E+04  0.00000000000E+00 0.  1.
         -2   -1    0    0    0  501 -0.00000000000E+00 -0.00000000000E+00 -0.86762043124E+03  0.86762043124E+03  0.00000000000E+00 0. -1.
         23    2    1    2    0    0 -0.90981796450E+03  0.71136380671E+03  0.79206698631E+03  0.14033652460E+04  0.90866433369E+02 0.  0.
         11    1    3    3    0    0 -0.41661302840E+03  0.30940579640E+03  0.30355288085E+03  0.60120105934E+03  0.00000000000E+00 0. -1.
        -11    1    3    3    0    0 -0.49320493610E+03  0.40195801031E+03  0.48851410547E+03  0.80216418661E+03  0.00000000000E+00 0.  1.
         22    1    1    2    0    0  0.90981796450E+03 -0.71136380671E+03  0.31389600930E+02  0.11553322038E+04  0.00000000000E+00 0. -1.
<mgrwt>
<rscale>  0 0.24225713E+04</rscale>
<asrwt>0</asrwt>
<pdfrwt beam="1">  1        2 0.26016569E+00 0.24225713E+04</pdfrwt>
<pdfrwt beam="2">  1       -2 0.13348007E+00 0.24225713E+04</pdfrwt>
<totfact> 0.36162037E+00</totfact>
</mgrwt>
</event>
<event>
 6    1  0.4630212E-004  0.2027359E+04  0.7818608E-02  0.8593935E-01
         -2   -1    0    0    0  501 -0.00000000000E+00  0.00000000000E+00  0.45986679146E+03  0.45986679146E+03  0.00000000000E+00 0. -1.
          2   -1    0    0  501    0  0.00000000000E+00 -0.00000000000E+00 -0.22344425648E+04  0.22344425648E+04  0.00000000000E+00 0.  1.
         23    2    1    2    0    0  0.38322094503E+03 -0.40373509624E+03  0.23367638990E+03  0.61033789009E+03  0.89707102483E+02 0.  0.
         13    1    3    3    0    0  0.29032060972E+03 -0.31324945041E+03  0.21857362930E+03  0.47977672519E+03  0.00000000000E+00 0. -1.
        -13    1    3    3    0    0  0.92900335309E+02 -0.90485645829E+02  0.15102760605E+02  0.13056116490E+03  0.00000000000E+00 0.  1.
         22    1    1    2    0    0 -0.38322094503E+03  0.40373509624E+03 -0.20082521632E+04  0.20839714661E+04  0.00000000000E+00 0.  1.
<mgrwt>
<rscale>  0 0.20273588E+04</rscale>
<asrwt>0</asrwt>
<pdfrwt beam="1">  1        2 0.34376039E+00 0.20273588E+04</pdfrwt>
<pdfrwt beam="2">  1       -2 0.70748738E-01 0.20273588E+04</pdfrwt>
<totfact> 0.83137748E+00</totfact>
</mgrwt>
</event>
<event>
 6    1  0.4630212E-004  0.1892353E+04  0.7818608E-02  0.8658672E-01
         -2   -1    0    0    0  501 -0.00000000000E+00  0.00000000000E+00  0.30156741214E+03  0.30156741214E+03  0.00000000000E+00 0. -1.
          2   -1    0    0  501    0  0.00000000000E+00 -0.00000000000E+00 -0.29686560895E+04  0.29686560895E+04  0.00000000000E+00 0.  1.
         23    2    1    2    0    0 -0.69133786576E+03  0.55529689049E+03 -0.18966119066E+04  0.20955162464E+04  0.88028026601E+02 0.  0.
         13    1    3    3    0    0 -0.14003364649E+03  0.12563196411E+03 -0.32582979877E+03  0.37624177110E+03  0.00000000000E+00 0. -1.
        -13    1    3    3    0    0 -0.55130421927E+03  0.42966492638E+03 -0.15707821079E+04  0.17192744753E+04  0.00000000000E+00 0.  1.
         22    1    1    2    0    0  0.69133786576E+03 -0.55529689049E+03 -0.77047677074E+03  0.11747072552E+04  0.00000000000E+00 0. -1.
<mgrwt>
<rscale>  0 0.18923530E+04</rscale>
<asrwt>0</asrwt>
<pdfrwt beam="1">  1        2 0.45671633E+00 0.18923530E+04</pdfrwt>
<pdfrwt beam="2">  1       -2 0.46394986E-01 0.18923530E+04</pdfrwt>
<totfact> 0.75409934E+00</totfact>
</mgrwt>
</event>
<event>
 6    1  0.4630212E-004  0.6695321E+03  0.7818608E-02  0.9770803E-01
          2   -1    0    0  501    0  0.00000000000E+00  0.00000000000E+00  0.97964520366E+03  0.97964520366E+03  0.00000000000E+00 0.  1.
         -2   -1    0    0    0  501 -0.00000000000E+00 -0.00000000000E+00 -0.11439684249E+03  0.11439684249E+03  0.00000000000E+00 0. -1.
         23    2    1    2    0    0  0.26316255905E+03 -0.99213202961E+02  0.71873374692E+03  0.77692326033E+03  0.89071664199E+02 0.  0.
         11    1    3    3    0    0  0.23001971989E+03 -0.11531800078E+03  0.64677646032E+03  0.69607981042E+03  0.00000000000E+00 0. -1.
        -11    1    3    3    0    0  0.33142839161E+02  0.16104797821E+02  0.71957286592E+02  0.80843449916E+02  0.00000000000E+00 0.  1.
         22    1    1    2    0    0 -0.26316255905E+03  0.99213202961E+02  0.14651461425E+03  0.31711878581E+03  0.00000000000E+00 0. -1.
<mgrwt>
<rscale>  0 0.66953213E+03</rscale>
<asrwt>0</asrwt>
<pdfrwt beam="1">  1        2 0.15071464E+00 0.66953213E+03</pdfrwt>
<pdfrwt beam="2">  1       -2 0.17599515E-01 0.66953213E+03</pdfrwt>
<totfact> 0.69719588E+02</totfact>
</mgrwt>
</event>
<event>
 6    1  0.4630212E-004  0.1908904E+04  0.7818608E-02  0.8650437E-01
          2   -1    0    0  501    0  0.00000000000E+00  0.00000000000E+00  0.16507373450E+04  0.16507373450E+04  0.00000000000E+00 0.  1.
         -2   -1    0    0    0  501 -0.00000000000E+00 -0.00000000000E+00 -0.55186158672E+03  0.55186158672E+03  0.00000000000E+00 0. -1.
         23    2    1    2    0    0  0.21825452857E+03 -0.41464260958E+03 -0.40598423434E+03  0.62647484705E+03  0.89911081237E+02 0.  0.
         11    1    3    3    0    0  0.16722526843E+03 -0.23215207541E+03 -0.26846097611E+03  0.39233935848E+03  0.00000000000E+00 0. -1.
        -11    1    3    3    0    0  0.51029260136E+02 -0.18249053417E+03 -0.13752325823E+03  0.23413548856E+03  0.00000000000E+00 0.  1.
         22    1    1    2    0    0 -0.21825452857E+03  0.41464260958E+03  0.15048599926E+04  0.15761240847E+04  0.00000000000E+00 0.  1.
<mgrwt>
<rscale>  0 0.19089039E+04</rscale>
<asrwt>0</asrwt>
<pdfrwt beam="1">  1        2 0.25395959E+00 0.19089039E+04</pdfrwt>
<pdfrwt beam="2">  1       -2 0.84901783E-01 0.19089039E+04</pdfrwt>
<totfact> 0.11811480E+01</totfact>
</mgrwt>
</event>
<event>
 6    1  0.4630212E-004  0.4799315E+04  0.7818608E-02  0.7860233E-01
          2   -1    0    0  501    0  0.00000000000E+00  0.00000000000E+00  0.35209092887E+04  0.35209092887E+04  0.00000000000E+00 0.  1.
         -2   -1    0    0    0  501 -0.00000000000E+00 -0.00000000000E+00 -0.16354740680E+04  0.16354740680E+04  0.00000000000E+00 0. -1.
         23    2    1    2    0    0 -0.22057528833E+04 -0.35841901104E+03  0.61479347399E+01  0.22365322179E+04  0.90711604352E+02 0.  0.
         11    1    3    3    0    0 -0.15991675352E+04 -0.28551333226E+03 -0.27044622621E+02  0.16246803010E+04  0.00000000000E+00 0. -1.
        -11    1    3    3    0    0 -0.60658534802E+03 -0.72905678784E+02  0.33192557361E+02  0.61185191696E+03  0.00000000000E+00 0.  1.
         22    1    1    2    0    0  0.22057528833E+04  0.35841901104E+03  0.18792872860E+04  0.29198511388E+04  0.00000000000E+00 0.  1.
<mgrwt>
<rscale>  0 0.47993149E+04</rscale>
<asrwt>0</asrwt>
<pdfrwt beam="1">  1        2 0.54167835E+00 0.47993149E+04</pdfrwt>
<pdfrwt beam="2">  1       -2 0.25161140E+00 0.47993149E+04</pdfrwt>
<totfact> 0.36441761E-02</totfact>
</mgrwt>
</event>
<event>
 6    1  0.4630212E-004  0.1862032E+04  0.7818608E-02  0.8673990E-01
         -1   -1    0    0    0  501 -0.00000000000E+00  0.00000000000E+00  0.96958580533E+03  0.96958580533E+03  0.00000000000E+00 0.  1.
          1   -1    0    0  501    0  0.00000000000E+00 -0.00000000000E+00 -0.89398031088E+03  0.89398031088E+03  0.00000000000E+00 0. -1.
         23    2    1    2    0    0  0.24154744736E+03 -0.76456776870E+03 -0.43150833845E+03  0.91484409065E+03  0.88494190621E+02 0.  0.
         11    1    3    3    0    0  0.20064758427E+03 -0.54618854177E+03 -0.27860442167E+03  0.64513703972E+03  0.00000000000E+00 0. -1.
        -11    1    3    3    0    0  0.40899863086E+02 -0.21837922693E+03 -0.15290391678E+03  0.26970705093E+03  0.00000000000E+00 0.  1.
         22    1    1    2    0    0 -0.24154744736E+03  0.76456776870E+03  0.50711383291E+03  0.94872202556E+03  0.00000000000E+00 0.  1.
<mgrwt>
<rscale>  0 0.18620318E+04</rscale>
<asrwt>0</asrwt>
<pdfrwt beam="1">  1        1 0.13753543E+00 0.18620318E+04</pdfrwt>
<pdfrwt beam="2">  1       -1 0.14916705E+00 0.18620318E+04</pdfrwt>
<totfact> 0.61193110E+00</totfact>
</mgrwt>
</event>
<event>
 6    1  0.4630212E-004  0.2064144E+04  0.7818608E-02  0.8577205E-01
         -2   -1    0    0    0  501 -0.00000000000E+00  0.00000000000E+00  0.14137055316E+04  0.14137055316E+04  0.00000000000E+00 0. -1.
          2   -1    0    0  501    0  0.00000000000E+00 -0.00000000000E+00 -0.75346113117E+03  0.75346113117E+03  0.00000000000E+00 0.  1.
         23    2    1    2    0    0  0.53402090543E+03  0.69954932644E+02  0.12526593170E+04  0.13665247619E+04  0.90346778830E+02 0.  0.
         11    1    3    3    0    0  0.16580137524E+03  0.16230591780E+02  0.49764056630E+03  0.52478534790E+03  0.00000000000E+00 0. -1.
        -11    1    3    3    0    0  0.36821953019E+03  0.53724340864E+02  0.75501875066E+03  0.84173941399E+03  0.00000000000E+00 0.  1.
         22    1    1    2    0    0 -0.53402090543E+03 -0.69954932644E+02 -0.59241491656E+03  0.80064190085E+03  0.00000000000E+00 0.  1.
<mgrwt>
<rscale>  0 0.20641436E+04</rscale>
<asrwt>0</asrwt>
<pdfrwt beam="1">  1        2 0.11591710E+00 0.20641436E+04</pdfrwt>
<pdfrwt beam="2">  1       -2 0.21749316E+00 0.20641436E+04</pdfrwt>
<totfact> 0.35305380E+00</totfact>
</mgrwt>
</event>
<event>
 6    1  0.4630212E-004  0.1680463E+04  0.7818608E-02  0.8772586E-01
          2   -1    0    0  501    0  0.00000000000E+00  0.00000000000E+00  0.18218041194E+04  0.18218041194E+04  0.00000000000E+00 0.  1.
         -2   -1    0    0    0  501 -0.00000000000E+00 -0.00000000000E+00 -0.38752204802E+03  0.38752204802E+03  0.00000000000E+00 0. -1.
         23    2    1    2    0    0  0.77387072715E+03  0.28127825047E+03  0.92209466847E+03  0.12396203913E+04  0.91688496686E+02 0.  0.
         13    1    3    3    0    0  0.17240401394E+03  0.31537775892E+02  0.16180264830E+03  0.23853274896E+03  0.00000000000E+00 0.  1.
        -13    1    3    3    0    0  0.60146671321E+03  0.24974047458E+03  0.76029202018E+03  0.10010876424E+04  0.00000000000E+00 0. -1.
         22    1    1    2    0    0 -0.77387072715E+03 -0.28127825047E+03  0.51218740292E+03  0.96970577612E+03  0.00000000000E+00 0. -1.
<mgrwt>
<rscale>  0 0.16804633E+04</rscale>
<asrwt>0</asrwt>
<pdfrwt beam="1">  1        2 0.28027755E+00 0.16804633E+04</pdfrwt>
<pdfrwt beam="2">  1       -2 0.59618778E-01 0.16804633E+04</pdfrwt>
<totfact> 0.20992104E+01</totfact>
</mgrwt>
</event>
<event>
 6    1  0.4630212E-004  0.8102523E+03  0.7818608E-02  0.9545295E-01
          2   -1    0    0  501    0  0.00000000000E+00  0.00000000000E+00  0.36290829832E+03  0.36290829832E+03  0.00000000000E+00 0. -1.
         -2   -1    0    0    0  501 -0.00000000000E+00 -0.00000000000E+00 -0.45225532038E+03  0.45225532038E+03  0.00000000000E+00 0.  1.
         23    2    1    2    0    0  0.36186873641E+02 -0.23325640457E+03 -0.36988060166E+03  0.44853420175E+03  0.93022742136E+02 0.  0.
         13    1    3    3    0    0 -0.59947404692E+01  0.47004986335E+01 -0.33422460149E+02  0.34279621397E+02  0.00000000000E+00 0. -1.
        -13    1    3    3    0    0  0.42181614110E+02 -0.23795690320E+03 -0.33645814151E+03  0.41425458035E+03  0.00000000000E+00 0.  1.
         22    1    1    2    0    0 -0.36186873641E+02  0.23325640457E+03  0.28053357960E+03  0.36662941696E+03  0.00000000000E+00 0. -1.
<mgrwt>
<rscale>  0 0.81025233E+03</rscale>
<asrwt>0</asrwt>
<pdfrwt beam="1">  1        2 0.55832046E-01 0.81025233E+03</pdfrwt>
<pdfrwt beam="2">  1       -2 0.69577741E-01 0.81025233E+03</pdfrwt>
<totfact> 0.16837703E+02</totfact>
</mgrwt>
</event>
<event>
 6    1  0.4630212E-004  0.5571549E+04  0.7818608E-02  0.7745920E-01
         -2   -1    0    0    0  501 -0.00000000000E+00  0.00000000000E+00  0.18992254240E+04  0.18992254240E+04  0.00000000000E+00 0. -1.
          2   -1    0    0  501    0  0.00000000000E+00 -0.00000000000E+00 -0.40861596541E+04  0.40861596541E+04  0.00000000000E+00 0.  1.
         23    2    1    2    0    0  0.80060110178E+03 -0.25796306181E+04 -0.36432203361E+03  0.27269542489E+04  0.89959330011E+02 0.  0.
         13    1    3    3    0    0  0.40070960728E+03 -0.11987560664E+04 -0.13457028533E+03  0.12710993107E+04  0.00000000000E+00 0. -1.
        -13    1    3    3    0    0  0.39989149450E+03 -0.13808745518E+04 -0.22975174828E+03  0.14558549381E+04  0.00000000000E+00 0.  1.
         22    1    1    2    0    0 -0.80060110178E+03  0.25796306181E+04 -0.18226121965E+04  0.32584308293E+04  0.00000000000E+00 0.  1.
<mgrwt>
<rscale>  0 0.55715485E+04</rscale>
<asrwt>0</asrwt>
<pdfrwt beam="1">  1        2 0.62863995E+00 0.55715485E+04</pdfrwt>
<pdfrwt beam="2">  1       -2 0.29218853E+00 0.55715485E+04</pdfrwt>
<totfact> 0.71333777E-03</totfact>
</mgrwt>
</event>
<event>
 6    1  0.4630212E-004  0.2399961E+04  0.7818608E-02  0.8439518E-01
         -2   -1    0    0    0  501 -0.00000000000E+00  0.00000000000E+00  0.55548252547E+03  0.55548252547E+03  0.00000000000E+00 0. -1.
          2   -1    0    0  501    0  0.00000000000E+00 -0.00000000000E+00 -0.25922570966E+04  0.25922570966E+04  0.00000000000E+00 0.  1.
         23    2    1    2    0    0 -0.11744805228E+04  0.13039980360E+03 -0.12807033554E+04  0.17448667517E+04  0.89164395485E+02 0.  0.
         13    1    3    3    0    0 -0.73528442147E+03  0.38424493664E+02 -0.78832567384E+03  0.10786922593E+04  0.00000000000E+00 0.  1.
        -13    1    3    3    0    0 -0.43919610133E+03  0.91975309940E+02 -0.49237768157E+03  0.66617449243E+03  0.00000000000E+00 0. -1.
         22    1    1    2    0    0  0.11744805228E+04 -0.13039980360E+03 -0.75607121576E+03  0.14028728704E+04  0.00000000000E+00 0.  1.
<mgrwt>
<rscale>  0 0.23999613E+04</rscale>
<asrwt>0</asrwt>
<pdfrwt beam="1">  1        2 0.39880879E+00 0.23999613E+04</pdfrwt>
<pdfrwt beam="2">  1       -2 0.85458849E-01 0.23999613E+04</pdfrwt>
<totfact> 0.32911702E+00</totfact>
</mgrwt>
</event>
<event>
 6    1  0.1063947E-003  0.4232671E+04  0.7818608E-02  0.7959186E-01
         -2   -1    0    0    0  501 -0.00000000000E+00  0.00000000000E+00  0.16955512166E+04  0.16955512166E+04  0.00000000000E+00 0. -1.
          2   -1    0    0  501    0  0.00000000000E+00 -0.00000000000E+00 -0.26415459582E+04  0.26415459582E+04  0.00000000000E+00 0.  1.
         23    2    1    2    0    0  0.13871775381E+03 -0.19818265915E+04 -0.12175022178E+04  0.23319548946E+04  0.93929367231E+02 0.  0.
         13    1    3    3    0    0  0.10287823871E+03 -0.14657081999E+04 -0.85144795564E+03  0.16981896480E+04  0.00000000000E+00 0. -1.
        -13    1    3    3    0    0  0.35839515097E+02 -0.51611839158E+03 -0.36605426214E+03  0.63376524660E+03  0.00000000000E+00 0.  1.
         22    1    1    2    0    0 -0.13871775381E+03  0.19818265915E+04  0.27150747622E+03  0.20051422802E+04  0.00000000000E+00 0. -1.
<mgrwt>
<rscale>  0 0.42326712E+04</rscale>
<asrwt>0</asrwt>
<pdfrwt beam="1">  1        2 0.40639168E+00 0.42326712E+04</pdfrwt>
<pdfrwt beam="2">  1       -2 0.26085403E+00 0.42326712E+04</pdfrwt>
<totfact> 0.12275322E-01</totfact>
</mgrwt>
</event>
<event>
 6    1  0.5553532E-004  0.4729598E+04  0.7818608E-02  0.7871629E-01
          2   -1    0    0  501    0  0.00000000000E+00  0.00000000000E+00  0.35983252949E+04  0.35983252949E+04  0.00000000000E+00 0.  1.
         -2   -1    0    0    0  501 -0.00000000000E+00 -0.00000000000E+00 -0.15541324712E+04  0.15541324712E+04  0.00000000000E+00 0. -1.
         23    2    1    2    0    0  0.21926854294E+04 -0.66205950846E+03  0.38603509339E+03  0.23247945536E+04  0.97233933510E+02 0.  0.
         11    1    3    3    0    0  0.14146261146E+04 -0.40086119698E+03  0.20786361802E+03  0.14849457994E+04  0.00000000000E+00 0. -1.
        -11    1    3    3    0    0  0.77805931482E+03 -0.26119831149E+03  0.17817147537E+03  0.83984875420E+03  0.00000000000E+00 0.  1.
         22    1    1    2    0    0 -0.21926854294E+04  0.66205950846E+03  0.16581577303E+04  0.28276632125E+04  0.00000000000E+00 0.  1.
<mgrwt>
<rscale>  0 0.47295979E+04</rscale>
<asrwt>0</asrwt>
<pdfrwt beam="1">  1        2 0.55358851E+00 0.47295979E+04</pdfrwt>
<pdfrwt beam="2">  1       -2 0.23909730E+00 0.47295979E+04</pdfrwt>
<totfact> 0.38549086E-02</totfact>
</mgrwt>
</event>
<event>
 6    1  0.4630212E-004  0.1714019E+04  0.7818608E-02  0.8753409E-01
         -2   -1    0    0    0  501 -0.00000000000E+00  0.00000000000E+00  0.46203935711E+03  0.46203935711E+03  0.00000000000E+00 0. -1.
          2   -1    0    0  501    0  0.00000000000E+00 -0.00000000000E+00 -0.15896170933E+04  0.15896170933E+04  0.00000000000E+00 0.  1.
         23    2    1    2    0    0 -0.11579852315E+03  0.76926161341E+03 -0.98879850117E+03  0.12614460962E+04  0.91384078446E+02 0.  0.
         13    1    3    3    0    0 -0.80342625103E+02  0.58156555475E+03 -0.80518207049E+03  0.99648963793E+03  0.00000000000E+00 0. -1.
        -13    1    3    3    0    0 -0.35455898044E+02  0.18769605866E+03 -0.18361643069E+03  0.26495645823E+03  0.00000000000E+00 0.  1.
         22    1    1    2    0    0  0.11579852315E+03 -0.76926161341E+03 -0.13877923498E+03  0.79021035420E+03  0.00000000000E+00 0. -1.
<mgrwt>
<rscale>  0 0.17140194E+04</rscale>
<asrwt>0</asrwt>
<pdfrwt beam="1">  1        2 0.24455647E+00 0.17140194E+04</pdfrwt>
<pdfrwt beam="2">  1       -2 0.71082980E-01 0.17140194E+04</pdfrwt>
<totfact> 0.19308182E+01</totfact>
</mgrwt>
</event>
<event>
 6    1  0.4630212E-004  0.1880088E+04  0.7818608E-02  0.8664832E-01
         -2   -1    0    0    0  501 -0.00000000000E+00  0.00000000000E+00  0.28291266902E+03  0.28291266902E+03  0.00000000000E+00 0. -1.
          2   -1    0    0  501    0  0.00000000000E+00 -0.00000000000E+00 -0.31235185159E+04  0.31235185159E+04  0.00000000000E+00 0.  1.
         23    2    1    2    0    0 -0.45285391291E+03 -0.16191520818E+03  0.35061403663E+02  0.49082570117E+03  0.91582562914E+02 0.  0.
         11    1    3    3    0    0 -0.22454010059E+03 -0.95462277120E+02 -0.25861679937E+02  0.24535714706E+03  0.00000000000E+00 0. -1.
        -11    1    3    3    0    0 -0.22831381231E+03 -0.66452931057E+02  0.60923083600E+02  0.24546855411E+03  0.00000000000E+00 0.  1.
         22    1    1    2    0    0  0.45285391291E+03  0.16191520818E+03 -0.28756672506E+04  0.29156054838E+04  0.00000000000E+00 0.  1.
<mgrwt>
<rscale>  0 0.18800883E+04</rscale>
<asrwt>0</asrwt>
<pdfrwt beam="1">  1        2 0.48054131E+00 0.18800883E+04</pdfrwt>
<pdfrwt beam="2">  1       -2 0.43525026E-01 0.18800883E+04</pdfrwt>
<totfact> 0.68521050E+00</totfact>
</mgrwt>
</event>
<event>
 6    1  0.4630212E-004  0.3178071E+04  0.7818608E-02  0.8194633E-01
          2   -1    0    0  501    0  0.00000000000E+00  0.00000000000E+00  0.14686822642E+04  0.14686822642E+04  0.00000000000E+00 0.  1.
         -2   -1    0    0    0  501 -0.00000000000E+00 -0.00000000000E+00 -0.17192514383E+04  0.17192514383E+04  0.00000000000E+00 0. -1.
         23    2    1    2    0    0 -0.45980224888E+02 -0.15623064805E+04 -0.40565118224E+03  0.16172758310E+04  0.90069482971E+02 0.  0.
         11    1    3    3    0    0  0.71399611096E+01 -0.10210368357E+04 -0.28671341293E+03  0.10605525824E+04  0.00000000000E+00 0. -1.
        -11    1    3    3    0    0 -0.53120185997E+02 -0.54126964488E+03 -0.11893776930E+03  0.55672324865E+03  0.00000000000E+00 0.  1.
         22    1    1    2    0    0  0.45980224888E+02  0.15623064805E+04  0.15508200810E+03  0.15706578715E+04  0.00000000000E+00 0.  1.
<mgrwt>
<rscale>  0 0.31780712E+04</rscale>
<asrwt>0</asrwt>
<pdfrwt beam="1">  1        2 0.22595112E+00 0.31780712E+04</pdfrwt>
<pdfrwt beam="2">  1       -2 0.26450022E+00 0.31780712E+04</pdfrwt>
<totfact> 0.58413475E-01</totfact>
</mgrwt>
</event>
<event>
 6    1  0.4630212E-004  0.1630867E+04  0.7818608E-02  0.8801806E-01
          2   -1    0    0  501    0  0.00000000000E+00  0.00000000000E+00  0.11266767671E+04  0.11266767671E+04  0.00000000000E+00 0.  1.
         -2   -1    0    0    0  501 -0.00000000000E+00 -0.00000000000E+00 -0.59017115126E+03  0.59017115126E+03  0.00000000000E+00 0. -1.
         23    2    1    2    0    0  0.22008355826E+03 -0.35743734534E+03  0.10019209725E+04  0.10901026091E+04  0.90993597109E+02 0.  0.
         13    1    3    3    0    0  0.15445832296E+03 -0.17380324737E+03  0.59661538184E+03  0.64032402436E+03  0.00000000000E+00 0. -1.
        -13    1    3    3    0    0  0.65625235296E+02 -0.18363409797E+03  0.40530559070E+03  0.44977858474E+03  0.00000000000E+00 0.  1.
         22    1    1    2    0    0 -0.22008355826E+03  0.35743734534E+03 -0.46541535668E+03  0.62674530927E+03  0.00000000000E+00 0. -1.
<mgrwt>
<rscale>  0 0.16308674E+04</rscale>
<asrwt>0</asrwt>
<pdfrwt beam="1">  1        2 0.17333489E+00 0.16308674E+04</pdfrwt>
<pdfrwt beam="2">  1       -2 0.90795562E-01 0.16308674E+04</pdfrwt>
<totfact> 0.20786103E+01</totfact>
</mgrwt>
</event>
<event>
 6    1  0.4630212E-004  0.1648624E+04  0.7818608E-02  0.8791221E-01
          4   -1    0    0  501    0  0.00000000000E+00  0.00000000000E+00  0.92818577185E+03  0.92818577185E+03  0.00000000000E+00 0. -1.
         -4   -1    0    0    0  501 -0.00000000000E+00 -0.00000000000E+00 -0.73206308083E+03  0.73206308083E+03  0.00000000000E+00 0.  1.
         23    2    1    2    0    0 -0.57850055903E+03 -0.57664924059E+03  0.83611583890E+01  0.82213093937E+03  0.92963051967E+02 0.  0.
         13    1    3    3    0    0 -0.40603824423E+03 -0.34413360204E+03 -0.58760811890E+01  0.53228706557E+03  0.00000000000E+00 0.  1.
        -13    1    3    3    0    0 -0.17246231480E+03 -0.23251563854E+03  0.14237239578E+02  0.28984387380E+03  0.00000000000E+00 0. -1.
         22    1    1    2    0    0  0.57850055903E+03  0.57664924059E+03  0.18776153263E+03  0.83811791331E+03  0.00000000000E+00 0. -1.
<mgrwt>
<rscale>  0 0.16486243E+04</rscale>
<asrwt>0</asrwt>
<pdfrwt beam="1">  1        4 0.14279781E+00 0.16486243E+04</pdfrwt>
<pdfrwt beam="2">  1       -4 0.11262509E+00 0.16486243E+04</pdfrwt>
<totfact> 0.40149172E-01</totfact>
</mgrwt>
</event>
<event>
 6    1  0.4630212E-004  0.1129754E+04  0.7818608E-02  0.9176667E-01
         -2   -1    0    0    0  501 -0.00000000000E+00  0.00000000000E+00  0.18679035316E+03  0.18679035316E+03  0.00000000000E+00 0. -1.
          2   -1    0    0  501    0  0.00000000000E+00 -0.00000000000E+00 -0.17082587210E+04  0.17082587210E+04  0.00000000000E+00 0.  1.
         23    2    1    2    0    0  0.17305414726E+03  0.41112186975E+03 -0.19433167439E+03  0.49495595842E+03  0.90816691376E+02 0.  0.
         11    1    3    3    0    0  0.75359400986E+02  0.28982373140E+03 -0.12726017985E+03  0.32537975963E+03  0.00000000000E+00 0. -1.
        -11    1    3    3    0    0  0.97694746278E+02  0.12129813835E+03 -0.67071494539E+02  0.16957619879E+03  0.00000000000E+00 0.  1.
         22    1    1    2    0    0 -0.17305414726E+03 -0.41112186975E+03 -0.13271366935E+04  0.14000931158E+04  0.00000000000E+00 0.  1.
<mgrwt>
<rscale>  0 0.11297544E+04</rscale>
<asrwt>0</asrwt>
<pdfrwt beam="1">  1        2 0.26280904E+00 0.11297544E+04</pdfrwt>
<pdfrwt beam="2">  1       -2 0.28736977E-01 0.11297544E+04</pdfrwt>
<totfact> 0.10683804E+02</totfact>
</mgrwt>
</event>
<event>
 6    1  0.4630212E-004  0.1872105E+04  0.7818608E-02  0.8668867E-01
         -2   -1    0    0    0  501 -0.00000000000E+00  0.00000000000E+00  0.36250185819E+03  0.36250185819E+03  0.00000000000E+00 0. -1.
          2   -1    0    0  501    0  0.00000000000E+00 -0.00000000000E+00 -0.24170754829E+04  0.24170754829E+04  0.00000000000E+00 0.  1.
         23    2    1    2    0    0  0.71276334979E+02 -0.81435365073E+03 -0.35966159777E+03  0.89782843024E+03  0.92126222452E+02 0.  0.
         13    1    3    3    0    0  0.41648253876E+02 -0.16012040533E+03 -0.46231331387E+02  0.17178607993E+03  0.00000000000E+00 0. -1.
        -13    1    3    3    0    0  0.29628081103E+02 -0.65423324539E+03 -0.31343026638E+03  0.72604235031E+03  0.00000000000E+00 0.  1.
         22    1    1    2    0    0 -0.71276334979E+02  0.81435365073E+03 -0.16949120269E+04  0.18817489108E+04  0.00000000000E+00 0.  1.
<mgrwt>
<rscale>  0 0.18721051E+04</rscale>
<asrwt>0</asrwt>
<pdfrwt beam="1">  1        2 0.37185776E+00 0.18721051E+04</pdfrwt>
<pdfrwt beam="2">  1       -2 0.55769517E-01 0.18721051E+04</pdfrwt>
<totfact> 0.11026046E+01</totfact>
</mgrwt>
</event>
<event>
 6    1  0.4630212E-004  0.3575406E+03  0.7818608E-02  0.1059562E+00
         -2   -1    0    0    0  501 -0.00000000000E+00  0.00000000000E+00  0.19251095349E+02  0.19251095349E+02  0.00000000000E+00 0. -1.
          2   -1    0    0  501    0  0.00000000000E+00 -0.00000000000E+00 -0.16601035520E+04  0.16601035520E+04  0.00000000000E+00 0.  1.
         23    2    1    2    0    0  0.14986905553E+03 -0.63520236932E+02 -0.69817808195E+03  0.72273009664E+03  0.91600241080E+02 0.  0.
         11    1    3    3    0    0  0.73035629017E+02  0.10788545175E+02 -0.19943163062E+03  0.21265834360E+03  0.00000000000E+00 0.  1.
        -11    1    3    3    0    0  0.76833426509E+02 -0.74308782107E+02 -0.49874645133E+03  0.51007175303E+03  0.00000000000E+00 0. -1.
         22    1    1    2    0    0 -0.14986905553E+03  0.63520236932E+02 -0.94267437468E+03  0.95662455069E+03  0.00000000000E+00 0.  1.
<mgrwt>
<rscale>  0 0.35754055E+03</rscale>
<asrwt>0</asrwt>
<pdfrwt beam="1">  1        2 0.25540052E+00 0.35754055E+03</pdfrwt>
<pdfrwt beam="2">  1       -2 0.29617073E-02 0.35754055E+03</pdfrwt>
<totfact> 0.48478317E+03</totfact>
</mgrwt>
</event>
<event>
 6    1  0.4630212E-004  0.8141212E+03  0.7818608E-02  0.9539799E-01
         -2   -1    0    0    0  501 -0.00000000000E+00  0.00000000000E+00  0.32061339533E+03  0.32061339533E+03  0.00000000000E+00 0. -1.
          2   -1    0    0  501    0  0.00000000000E+00 -0.00000000000E+00 -0.51681662163E+03  0.51681662163E+03  0.00000000000E+00 0.  1.
         23    2    1    2    0    0  0.11613494927E+03  0.37828941344E+03 -0.23809125951E+02  0.40579367396E+03  0.86668475117E+02 0.  0.
         13    1    3    3    0    0  0.26525438272E+02  0.21590115061E+03  0.77178779863E+01  0.21766136853E+03  0.00000000000E+00 0. -1.
        -13    1    3    3    0    0  0.89609511000E+02  0.16238826284E+03 -0.31527003937E+02  0.18813230543E+03  0.00000000000E+00 0.  1.
         22    1    1    2    0    0 -0.11613494927E+03 -0.37828941344E+03 -0.17239410035E+03  0.43163634301E+03  0.00000000000E+00 0.  1.
<mgrwt>
<rscale>  0 0.81412120E+03</rscale>
<asrwt>0</asrwt>
<pdfrwt beam="1">  1        2 0.79510248E-01 0.81412120E+03</pdfrwt>
<pdfrwt beam="2">  1       -2 0.49325138E-01 0.81412120E+03</pdfrwt>
<totfact> 0.23201596E+02</totfact>
</mgrwt>
</event>
<event>
 6    1  0.4630212E-004  0.2658243E+04  0.7818608E-02  0.8348682E-01
         -2   -1    0    0    0  501 -0.00000000000E+00  0.00000000000E+00  0.13595905945E+04  0.13595905945E+04  0.00000000000E+00 0.  1.
          2   -1    0    0  501    0  0.00000000000E+00 -0.00000000000E+00 -0.12993352562E+04  0.12993352562E+04  0.00000000000E+00 0. -1.
         23    2    1    2    0    0  0.10638816772E+04  0.57313002939E+03 -0.51940111952E+03  0.13186557800E+04  0.93559016485E+02 0.  0.
         11    1    3    3    0    0  0.13984374207E+03  0.58352513860E+02 -0.36382508816E+02  0.15583637257E+03  0.00000000000E+00 0. -1.
        -11    1    3    3    0    0  0.92403793509E+03  0.51477751553E+03 -0.48301861070E+03  0.11628194074E+04  0.00000000000E+00 0.  1.
         22    1    1    2    0    0 -0.10638816772E+04 -0.57313002939E+03  0.57965645781E+03  0.13402700708E+04  0.00000000000E+00 0.  1.
<mgrwt>
<rscale>  0 0.26582430E+04</rscale>
<asrwt>0</asrwt>
<pdfrwt beam="1">  1        2 0.19989773E+00 0.26582430E+04</pdfrwt>
<pdfrwt beam="2">  1       -2 0.20916778E+00 0.26582430E+04</pdfrwt>
<totfact> 0.16886962E+00</totfact>
</mgrwt>
</event>
<event>
 6    1  0.4630212E-004  0.1308934E+04  0.7818608E-02  0.9022510E-01
          2   -1    0    0  501    0  0.00000000000E+00  0.00000000000E+00  0.66143767754E+03  0.66143767754E+03  0.00000000000E+00 0.  1.
         -2   -1    0    0    0  501 -0.00000000000E+00 -0.00000000000E+00 -0.64757001349E+03  0.64757001349E+03  0.00000000000E+00 0. -1.
         23    2    1    2    0    0 -0.41339237022E+03 -0.49728159161E+03 -0.50298311548E+02  0.65916193583E+03  0.11739805959E+03 0.  0.
         13    1    3    3    0    0 -0.22823617361E+03 -0.18606045102E+03 -0.81037125632E+01  0.29457751532E+03  0.00000000000E+00 0.  1.
        -13    1    3    3    0    0 -0.18515619661E+03 -0.31122114059E+03 -0.42194598985E+02  0.36458442051E+03  0.00000000000E+00 0. -1.
         22    1    1    2    0    0  0.41339237022E+03  0.49728159161E+03  0.64165975595E+02  0.64984575519E+03  0.00000000000E+00 0. -1.
<mgrwt>
<rscale>  0 0.13089342E+04</rscale>
<asrwt>0</asrwt>
<pdfrwt beam="1">  1        2 0.10175964E+00 0.13089342E+04</pdfrwt>
<pdfrwt beam="2">  1       -2 0.99626156E-01 0.13089342E+04</pdfrwt>
<totfact> 0.35926877E+01</totfact>
</mgrwt>
</event>
<event>
 6    1  0.4630212E-004  0.5194961E+03  0.7818608E-02  0.1008812E+00
         -2   -1    0    0    0  501 -0.00000000000E+00  0.00000000000E+00  0.53243351847E+02  0.53243351847E+02  0.00000000000E+00 0.  1.
          2   -1    0    0  501    0  0.00000000000E+00 -0.00000000000E+00 -0.12671825499E+04  0.12671825499E+04  0.00000000000E+00 0. -1.
         23    2    1    2    0    0  0.18401522700E+03  0.14452493740E+03 -0.86192811699E+03  0.89774296799E+03  0.90957662780E+02 0.  0.
         13    1    3    3    0    0  0.82740151970E+02  0.10909272790E+03 -0.58368915083E+03  0.59953330251E+03  0.00000000000E+00 0.  1.
        -13    1    3    3    0    0  0.10127507503E+03  0.35432209494E+02 -0.27823896617E+03  0.29820966548E+03  0.00000000000E+00 0. -1.
         22    1    1    2    0    0 -0.18401522700E+03 -0.14452493740E+03 -0.35201108103E+03  0.42268293373E+03  0.00000000000E+00 0.  1.
<mgrwt>
<rscale>  0 0.51949609E+03</rscale>
<asrwt>0</asrwt>
<pdfrwt beam="1">  1        2 0.19495114E+00 0.51949609E+03</pdfrwt>
<pdfrwt beam="2">  1       -2 0.81912856E-02 0.51949609E+03</pdfrwt>
<totfact> 0.16587054E+03</totfact>
</mgrwt>
</event>
<event>
 6    1  0.5804283E-004  0.3543802E+04  0.7818608E-02  0.8103487E-01
          2   -1    0    0  501    0  0.00000000000E+00  0.00000000000E+00  0.29109299807E+04  0.29109299807E+04  0.00000000000E+00 0.  1.
         -2   -1    0    0    0  501 -0.00000000000E+00 -0.00000000000E+00 -0.10785672819E+04  0.10785672819E+04  0.00000000000E+00 0. -1.
         23    2    1    2    0    0  0.98783549963E+03  0.76594128251E+03 -0.49519242927E+03  0.13475286978E+04  0.90183296327E+02 0.  0.
         11    1    3    3    0    0  0.33488712932E+03  0.26283599821E+03 -0.21494232229E+03  0.47689868238E+03  0.00000000000E+00 0. -1.
        -11    1    3    3    0    0  0.65294837031E+03  0.50310528430E+03 -0.28025010698E+03  0.87063001547E+03  0.00000000000E+00 0.  1.
         22    1    1    2    0    0 -0.98783549963E+03 -0.76594128251E+03  0.23275551281E+04  0.26419685647E+04  0.00000000000E+00 0.  1.
<mgrwt>
<rscale>  0 0.35438024E+04</rscale>
<asrwt>0</asrwt>
<pdfrwt beam="1">  1        2 0.44783538E+00 0.35438024E+04</pdfrwt>
<pdfrwt beam="2">  1       -2 0.16593343E+00 0.35438024E+04</pdfrwt>
<totfact> 0.36897786E-01</totfact>
</mgrwt>
</event>
<event>
 6    1  0.4630212E-004  0.4180167E+04  0.7818608E-02  0.7969156E-01
          2   -1    0    0  501    0  0.00000000000E+00  0.00000000000E+00  0.30547891360E+04  0.30547891360E+04  0.00000000000E+00 0.  1.
         -2   -1    0    0    0  501 -0.00000000000E+00 -0.00000000000E+00 -0.14300329865E+04  0.14300329865E+04  0.00000000000E+00 0. -1.
         23    2    1    2    0    0 -0.15193517661E+04  0.12933898712E+04  0.14766638547E+04  0.24840176654E+04  0.92306414217E+02 0.  0.
         13    1    3    3    0    0 -0.13001360705E+04  0.11035461369E+04  0.13013238257E+04  0.21451367270E+04  0.00000000000E+00 0.  1.
        -13    1    3    3    0    0 -0.21921569554E+03  0.18984373432E+03  0.17534002900E+03  0.33888093838E+03  0.00000000000E+00 0. -1.
         22    1    1    2    0    0  0.15193517661E+04 -0.12933898712E+04  0.14809229470E+03  0.20008044571E+04  0.00000000000E+00 0. -1.
<mgrwt>
<rscale>  0 0.41801671E+04</rscale>
<asrwt>0</asrwt>
<pdfrwt beam="1">  1        2 0.46996756E+00 0.41801671E+04</pdfrwt>
<pdfrwt beam="2">  1       -2 0.22000507E+00 0.41801671E+04</pdfrwt>
<totfact> 0.12347400E-01</totfact>
</mgrwt>
</event>
<event>
 6    1  0.4630212E-004  0.4106046E+04  0.7818608E-02  0.7983489E-01
          2   -1    0    0  501    0  0.00000000000E+00  0.00000000000E+00  0.15884068647E+04  0.15884068647E+04  0.00000000000E+00 0.  1.
         -2   -1    0    0    0  501 -0.00000000000E+00 -0.00000000000E+00 -0.26535409431E+04  0.26535409431E+04  0.00000000000E+00 0. -1.
         23    2    1    2    0    0 -0.11302087287E+04  0.10727715482E+04  0.84664983800E+03  0.17755479400E+04  0.86856053616E+02 0.  0.
         11    1    3    3    0    0 -0.97338140339E+03  0.88427043430E+03  0.69857566973E+03  0.14890982250E+04  0.00000000000E+00 0. -1.
        -11    1    3    3    0    0 -0.15682732527E+03  0.18850111389E+03  0.14807416828E+03  0.28644971496E+03  0.00000000000E+00 0.  1.
         22    1    1    2    0    0  0.11302087287E+04 -0.10727715482E+04 -0.19117839164E+04  0.24663998678E+04  0.00000000000E+00 0. -1.
<mgrwt>
<rscale>  0 0.41060456E+04</rscale>
<asrwt>0</asrwt>
<pdfrwt beam="1">  1        2 0.24437029E+00 0.41060456E+04</pdfrwt>
<pdfrwt beam="2">  1       -2 0.40823706E+00 0.41060456E+04</pdfrwt>
<totfact> 0.58013894E-02</totfact>
</mgrwt>
</event>
<event>
 6    1  0.4630212E-004  0.1091547E+04  0.7818608E-02  0.9213470E-01
         -2   -1    0    0    0  501 -0.00000000000E+00  0.00000000000E+00  0.39779486282E+03  0.39779486282E+03  0.00000000000E+00 0. -1.
          2   -1    0    0  501    0  0.00000000000E+00 -0.00000000000E+00 -0.74880015265E+03  0.74880015265E+03  0.00000000000E+00 0.  1.
         23    2    1    2    0    0  0.83543444899E+02  0.52523500780E+03 -0.67409560825E+02  0.54386965669E+03  0.91645152497E+02 0.  0.
         13    1    3    3    0    0  0.10178373334E+03  0.48166261124E+03 -0.57987386596E+02  0.49570287113E+03  0.00000000000E+00 0.  1.
        -13    1    3    3    0    0 -0.18240288443E+02  0.43572396556E+02 -0.94221742289E+01  0.48166785562E+02  0.00000000000E+00 0. -1.
         22    1    1    2    0    0 -0.83543444899E+02 -0.52523500780E+03 -0.28359572900E+03  0.60272535878E+03  0.00000000000E+00 0. -1.
<mgrwt>
<rscale>  0 0.10915473E+04</rscale>
<asrwt>0</asrwt>
<pdfrwt beam="1">  1        2 0.11520002E+00 0.10915473E+04</pdfrwt>
<pdfrwt beam="2">  1       -2 0.61199210E-01 0.10915473E+04</pdfrwt>
<totfact> 0.92743842E+01</totfact>
</mgrwt>
</event>
<event>
 6    1  0.4630212E-004  0.3717842E+04  0.7818608E-02  0.8064019E-01
          2   -1    0    0  501    0  0.00000000000E+00  0.00000000000E+00  0.18791351349E+04  0.18791351349E+04  0.00000000000E+00 0.  1.
         -2   -1    0    0    0  501 -0.00000000000E+00 -0.00000000000E+00 -0.18389238616E+04  0.18389238616E+04  0.00000000000E+00 0. -1.
         23    2    1    2    0    0  0.89788082500E+03 -0.60158742792E+02 -0.16057134206E+04  0.18421919574E+04  0.74475286984E+02 0.  0.
         11    1    3    3    0    0  0.94591409732E+02  0.15689745483E+02 -0.15820748502E+03  0.18499543568E+03  0.00000000000E+00 0. -1.
        -11    1    3    3    0    0  0.80328941527E+03 -0.75848488275E+02 -0.14475059356E+04  0.16571965217E+04  0.00000000000E+00 0.  1.
         22    1    1    2    0    0 -0.89788082500E+03  0.60158742792E+02  0.16459246940E+04  0.18758670391E+04  0.00000000000E+00 0.  1.
<mgrwt>
<rscale>  0 0.37178415E+04</rscale>
<asrwt>0</asrwt>
<pdfrwt beam="1">  1        2 0.28909771E+00 0.37178415E+04</pdfrwt>
<pdfrwt beam="2">  1       -2 0.28291136E+00 0.37178415E+04</pdfrwt>
<totfact> 0.25449392E-01</totfact>
</mgrwt>
</event>
<event>
 6    1  0.4630212E-004  0.1896148E+04  0.7818608E-02  0.8656776E-01
          2   -1    0    0  501    0  0.00000000000E+00  0.00000000000E+00  0.26203342147E+04  0.26203342147E+04  0.00000000000E+00 0.  1.
         -2   -1    0    0    0  501 -0.00000000000E+00 -0.00000000000E+00 -0.34302668090E+03  0.34302668090E+03  0.00000000000E+00 0. -1.
         23    2    1    2    0    0  0.35548209791E+03  0.49614167003E+01  0.25111180110E+04  0.25378500533E+04  0.92612583743E+02 0.  0.
         13    1    3    3    0    0  0.34070098504E+03  0.16755299084E+02  0.24560709310E+04  0.24796456036E+04  0.00000000000E+00 0. -1.
        -13    1    3    3    0    0  0.14781112867E+02 -0.11793882384E+02  0.55047079953E+02  0.58204449750E+02  0.00000000000E+00 0.  1.
         22    1    1    2    0    0 -0.35548209791E+03 -0.49614167003E+01 -0.23381047721E+03  0.42551084222E+03  0.00000000000E+00 0. -1.
<mgrwt>
<rscale>  0 0.18961483E+04</rscale>
<asrwt>0</asrwt>
<pdfrwt beam="1">  1        2 0.40312833E+00 0.18961483E+04</pdfrwt>
<pdfrwt beam="2">  1       -2 0.52773337E-01 0.18961483E+04</pdfrwt>
<totfact> 0.94061453E+00</totfact>
</mgrwt>
</event>
<event>
 6    1  0.4630212E-004  0.5386918E+04  0.7818608E-02  0.7771444E-01
          2   -1    0    0  501    0  0.00000000000E+00  0.00000000000E+00  0.29544266603E+04  0.29544266603E+04  0.00000000000E+00 0.  1.
         -2   -1    0    0    0  501 -0.00000000000E+00 -0.00000000000E+00 -0.24555426703E+04  0.24555426703E+04  0.00000000000E+00 0. -1.
         23    2    1    2    0    0  0.72472210977E+03  0.17494050074E+04 -0.16730676779E+04  0.25284742214E+04  0.91577382237E+02 0.  0.
         11    1    3    3    0    0  0.51283772399E+03  0.12942648306E+04 -0.11833715232E+04  0.18271541109E+04  0.00000000000E+00 0.  1.
        -11    1    3    3    0    0  0.21188438578E+03  0.45514017682E+03 -0.48969615473E+03  0.70132011054E+03  0.00000000000E+00 0. -1.
         22    1    1    2    0    0 -0.72472210977E+03 -0.17494050074E+04  0.21719516679E+04  0.28814951092E+04  0.00000000000E+00 0.  1.
<mgrwt>
<rscale>  0 0.53869178E+04</rscale>
<asrwt>0</asrwt>
<pdfrwt beam="1">  1        2 0.45452718E+00 0.53869178E+04</pdfrwt>
<pdfrwt beam="2">  1       -2 0.37777580E+00 0.53869178E+04</pdfrwt>
<totfact> 0.13585098E-02</totfact>
</mgrwt>
</event>
<event>
 6    1  0.5601846E-004  0.2775854E+04  0.7818608E-02  0.8310804E-01
          2   -1    0    0  501    0  0.00000000000E+00  0.00000000000E+00  0.17141350101E+04  0.17141350101E+04  0.00000000000E+00 0.  1.
         -2   -1    0    0    0  501 -0.00000000000E+00 -0.00000000000E+00 -0.11237982086E+04  0.11237982086E+04  0.00000000000E+00 0. -1.
         23    2    1    2    0    0 -0.10972130768E+04  0.60669996081E+03 -0.31010767935E+03  0.12943135630E+04  0.84376823243E+02 0.  0.
         13    1    3    3    0    0 -0.23653049713E+03  0.14483010043E+03 -0.10272641116E+03  0.29576198135E+03  0.00000000000E+00 0. -1.
        -13    1    3    3    0    0 -0.86068257964E+03  0.46186986039E+03 -0.20738126819E+03  0.99855158165E+03  0.00000000000E+00 0.  1.
         22    1    1    2    0    0  0.10972130768E+04 -0.60669996081E+03  0.90044448085E+03  0.15436196557E+04  0.00000000000E+00 0. -1.
<mgrwt>
<rscale>  0 0.27758544E+04</rscale>
<asrwt>0</asrwt>
<pdfrwt beam="1">  1        2 0.26371308E+00 0.27758544E+04</pdfrwt>
<pdfrwt beam="2">  1       -2 0.17289203E+00 0.27758544E+04</pdfrwt>
<totfact> 0.17074567E+00</totfact>
</mgrwt>
</event>
<event>
 6    1  0.4630212E-004  0.5463793E+04  0.7818608E-02  0.7760691E-01
          2   -1    0    0  501    0  0.00000000000E+00  0.00000000000E+00  0.13960886580E+04  0.13960886580E+04  0.00000000000E+00 0.  1.
         -2   -1    0    0    0  501 -0.00000000000E+00 -0.00000000000E+00 -0.53458346729E+04  0.53458346729E+04  0.00000000000E+00 0. -1.
         23    2    1    2    0    0  0.15506684487E+04  0.30553606294E+03 -0.47238308215E+04  0.49820562304E+04  0.91551783751E+02 0.  0.
         13    1    3    3    0    0  0.74830019178E+03  0.10228480435E+03 -0.22182119578E+04  0.23432626076E+04  0.00000000000E+00 0. -1.
        -13    1    3    3    0    0  0.80236825692E+03  0.20325125859E+03 -0.25056188637E+04  0.26387936228E+04  0.00000000000E+00 0.  1.
         22    1    1    2    0    0 -0.15506684487E+04 -0.30553606294E+03  0.77408480667E+03  0.17598671005E+04  0.00000000000E+00 0.  1.
<mgrwt>
<rscale>  0 0.54637932E+04</rscale>
<asrwt>0</asrwt>
<pdfrwt beam="1">  1        2 0.21478287E+00 0.54637932E+04</pdfrwt>
<pdfrwt beam="2">  1       -2 0.82243609E+00 0.54637932E+04</pdfrwt>
<totfact> 0.56048173E-04</totfact>
</mgrwt>
</event>
<event>
 6    1  0.4630212E-004  0.3650544E+04  0.7818608E-02  0.8079011E-01
          1   -1    0    0  501    0  0.00000000000E+00  0.00000000000E+00  0.13604820378E+04  0.13604820378E+04  0.00000000000E+00 0.  1.
         -1   -1    0    0    0  501 -0.00000000000E+00 -0.00000000000E+00 -0.24488509688E+04  0.24488509688E+04  0.00000000000E+00 0. -1.
         23    2    1    2    0    0  0.18783925653E+02  0.15088749187E+04  0.52518798370E+03  0.16001199628E+04  0.86632100001E+02 0.  0.
         13    1    3    3    0    0 -0.11794701708E+02  0.45463195046E+03  0.12069449106E+03  0.47052787966E+03  0.00000000000E+00 0. -1.
        -13    1    3    3    0    0  0.30578627361E+02  0.10542429683E+04  0.40449349264E+03  0.11295920831E+04  0.00000000000E+00 0.  1.
         22    1    1    2    0    0 -0.18783925653E+02 -0.15088749187E+04 -0.16135569147E+04  0.22092130439E+04  0.00000000000E+00 0. -1.
<mgrwt>
<rscale>  0 0.36505439E+04</rscale>
<asrwt>0</asrwt>
<pdfrwt beam="1">  1        1 0.20930493E+00 0.36505439E+04</pdfrwt>
<pdfrwt beam="2">  1       -1 0.37674630E+00 0.36505439E+04</pdfrwt>
<totfact> 0.67880836E-02</totfact>
</mgrwt>
</event>
<event>
 6    1  0.4630212E-004  0.1246781E+04  0.7818608E-02  0.9072867E-01
          2   -1    0    0  501    0  0.00000000000E+00  0.00000000000E+00  0.88503515594E+03  0.88503515594E+03  0.00000000000E+00 0.  1.
         -2   -1    0    0    0  501 -0.00000000000E+00 -0.00000000000E+00 -0.43909644520E+03  0.43909644520E+03  0.00000000000E+00 0. -1.
         23    2    1    2    0    0 -0.56768349639E+03  0.23211692160E+03  0.32126810388E+03  0.69828371422E+03  0.90797211475E+02 0.  0.
         13    1    3    3    0    0 -0.24771966055E+03  0.94672668266E+02  0.18954562133E+03  0.32596853668E+03  0.00000000000E+00 0. -1.
        -13    1    3    3    0    0 -0.31996383584E+03  0.13744425333E+03  0.13172248255E+03  0.37231517754E+03  0.00000000000E+00 0.  1.
         22    1    1    2    0    0  0.56768349639E+03 -0.23211692160E+03  0.12467060686E+03  0.62584788693E+03  0.00000000000E+00 0.  1.
<mgrwt>
<rscale>  0 0.12467811E+04</rscale>
<asrwt>0</asrwt>
<pdfrwt beam="1">  1        2 0.13615925E+00 0.12467811E+04</pdfrwt>
<pdfrwt beam="2">  1       -2 0.67553299E-01 0.12467811E+04</pdfrwt>
<totfact> 0.59334345E+01</totfact>
</mgrwt>
</event>
<event>
 6    1  0.4630212E-004  0.4296130E+04  0.7818608E-02  0.7947334E-01
          2   -1    0    0  501    0  0.00000000000E+00  0.00000000000E+00  0.27761974794E+04  0.27761974794E+04  0.00000000000E+00 0.  1.
         -2   -1    0    0    0  501 -0.00000000000E+00 -0.00000000000E+00 -0.16620519069E+04  0.16620519069E+04  0.00000000000E+00 0. -1.
         23    2    1    2    0    0 -0.17465850745E+04 -0.67951516583E+03 -0.52518969291E+03  0.19483256133E+04  0.88590059390E+02 0.  0.
         13    1    3    3    0    0 -0.14367572100E+04 -0.52835641333E+03 -0.40877458615E+03  0.15844647179E+04  0.00000000000E+00 0.  1.
        -13    1    3    3    0    0 -0.30982786453E+03 -0.15115875249E+03 -0.11641510676E+03  0.36386089536E+03  0.00000000000E+00 0. -1.
         22    1    1    2    0    0  0.17465850745E+04  0.67951516583E+03  0.16393352654E+04  0.24899237730E+04  0.00000000000E+00 0.  1.
<mgrwt>
<rscale>  0 0.42961305E+04</rscale>
<asrwt>0</asrwt>
<pdfrwt beam="1">  1        2 0.42710730E+00 0.42961305E+04</pdfrwt>
<pdfrwt beam="2">  1       -2 0.25570029E+00 0.42961305E+04</pdfrwt>
<totfact> 0.10912664E-01</totfact>
</mgrwt>
</event>
<event>
 6    1  0.4630212E-004  0.3719104E+04  0.7818608E-02  0.8063741E-01
          2   -1    0    0  501    0  0.00000000000E+00  0.00000000000E+00  0.39904792723E+04  0.39904792723E+04  0.00000000000E+00 0.  1.
         -2   -1    0    0    0  501 -0.00000000000E+00 -0.00000000000E+00 -0.86654597531E+03  0.86654597531E+03  0.00000000000E+00 0. -1.
         23    2    1    2    0    0  0.15325787768E+04 -0.10055183013E+04  0.11631248176E+04  0.21728801967E+04  0.93189305496E+02 0.  0.
         13    1    3    3    0    0  0.52081088365E+03 -0.39078516403E+03  0.39215642269E+03  0.76009452097E+03  0.00000000000E+00 0. -1.
        -13    1    3    3    0    0  0.10117678931E+04 -0.61473313728E+03  0.77096839488E+03  0.14127856757E+04  0.00000000000E+00 0.  1.
         22    1    1    2    0    0 -0.15325787768E+04  0.10055183013E+04  0.19608084794E+04  0.26841450509E+04  0.00000000000E+00 0.  1.
<mgrwt>
<rscale>  0 0.37191041E+04</rscale>
<asrwt>0</asrwt>
<pdfrwt beam="1">  1        2 0.61391988E+00 0.37191041E+04</pdfrwt>
<pdfrwt beam="2">  1       -2 0.13331477E+00 0.37191041E+04</pdfrwt>
<totfact> 0.11414344E-01</totfact>
</mgrwt>
</event>
<event>
 6    1  0.4630212E-004  0.3189744E+04  0.7818608E-02  0.8191531E-01
         -2   -1    0    0    0  501 -0.00000000000E+00  0.00000000000E+00  0.24855430391E+04  0.24855430391E+04  0.00000000000E+00 0. -1.
          2   -1    0    0  501    0  0.00000000000E+00 -0.00000000000E+00 -0.10233645674E+04  0.10233645674E+04  0.00000000000E+00 0.  1.
         23    2    1    2    0    0 -0.92046153300E+03 -0.11823868027E+04  0.13287879158E+04  0.20045535840E+04  0.85262893191E+02 0.  0.
         11    1    3    3    0    0 -0.53624425946E+03 -0.75269509659E+03  0.80035377783E+03  0.12225686009E+04  0.00000000000E+00 0. -1.
        -11    1    3    3    0    0 -0.38421727353E+03 -0.42969170608E+03  0.52843413796E+03  0.78198498305E+03  0.00000000000E+00 0.  1.
         22    1    1    2    0    0  0.92046153300E+03  0.11823868027E+04  0.13339055595E+03  0.15043540226E+04  0.00000000000E+00 0. -1.
<mgrwt>
<rscale>  0 0.31897440E+04</rscale>
<asrwt>0</asrwt>
<pdfrwt beam="1">  1        2 0.15744070E+00 0.31897440E+04</pdfrwt>
<pdfrwt beam="2">  1       -2 0.38239124E+00 0.31897440E+04</pdfrwt>
<totfact> 0.19803166E-01</totfact>
</mgrwt>
</event>
<event>
 6    1  0.4630212E-004  0.1447514E+04  0.7818608E-02  0.8920126E-01
          2   -1    0    0  501    0  0.00000000000E+00  0.00000000000E+00  0.93198773359E+03  0.93198773359E+03  0.00000000000E+00 0.  1.
         -2   -1    0    0    0  501 -0.00000000000E+00 -0.00000000000E+00 -0.56205020642E+03  0.56205020642E+03  0.00000000000E+00 0. -1.
         23    2    1    2    0    0 -0.25553823684E+03 -0.31036532106E+03 -0.43200035484E+03  0.59697005540E+03  0.90125010134E+02 0.  0.
         11    1    3    3    0    0 -0.15229265273E+03 -0.23351414234E+03 -0.25279514416E+03  0.37633401608E+03  0.00000000000E+00 0. -1.
        -11    1    3    3    0    0 -0.10324558412E+03 -0.76851178717E+02 -0.17920521068E+03  0.22063603931E+03  0.00000000000E+00 0.  1.
         22    1    1    2    0    0  0.25553823684E+03  0.31036532106E+03  0.80193788201E+03  0.89706788462E+03  0.00000000000E+00 0.  1.
<mgrwt>
<rscale>  0 0.14475136E+04</rscale>
<asrwt>0</asrwt>
<pdfrwt beam="1">  1        2 0.14338273E+00 0.14475136E+04</pdfrwt>
<pdfrwt beam="2">  1       -2 0.86469262E-01 0.14475136E+04</pdfrwt>
<totfact> 0.31371316E+01</totfact>
</mgrwt>
</event>
<event>
 6    1  0.4630212E-004  0.1854657E+04  0.7818608E-02  0.8677761E-01
          2   -1    0    0  501    0  0.00000000000E+00  0.00000000000E+00  0.19348109362E+04  0.19348109362E+04  0.00000000000E+00 0.  1.
         -2   -1    0    0    0  501 -0.00000000000E+00 -0.00000000000E+00 -0.44445598729E+03  0.44445598729E+03  0.00000000000E+00 0. -1.
         23    2    1    2    0    0 -0.58083326678E+03  0.42319367833E+02  0.16691344629E+04  0.17700704631E+04  0.89338549981E+02 0.  0.
         11    1    3    3    0    0 -0.30318812341E+03 -0.17536395427E+02  0.79998375665E+03  0.85568953146E+03  0.00000000000E+00 0.  1.
        -11    1    3    3    0    0 -0.27764514337E+03  0.59855763260E+02  0.86915070626E+03  0.91438093168E+03  0.00000000000E+00 0. -1.
         22    1    1    2    0    0  0.58083326678E+03 -0.42319367833E+02 -0.17877951399E+03  0.60919646036E+03  0.00000000000E+00 0. -1.
<mgrwt>
<rscale>  0 0.18546572E+04</rscale>
<asrwt>0</asrwt>
<pdfrwt beam="1">  1        2 0.29766322E+00 0.18546572E+04</pdfrwt>
<pdfrwt beam="2">  1       -2 0.68377845E-01 0.18546572E+04</pdfrwt>
<totfact> 0.13355118E+01</totfact>
</mgrwt>
</event>
<event>
 6    1  0.4630212E-004  0.2004833E+04  0.7818608E-02  0.8604365E-01
         -2   -1    0    0    0  501 -0.00000000000E+00  0.00000000000E+00  0.38884541621E+03  0.38884541621E+03  0.00000000000E+00 0. -1.
          2   -1    0    0  501    0  0.00000000000E+00 -0.00000000000E+00 -0.25841592621E+04  0.25841592621E+04  0.00000000000E+00 0.  1.
         23    2    1    2    0    0 -0.46944974222E+03 -0.49826855719E+03 -0.18195336026E+02  0.69079092374E+03  0.90589262718E+02 0.  0.
         13    1    3    3    0    0 -0.13936520154E+03 -0.98793788051E+02  0.15243315850E+02  0.17150868968E+03  0.00000000000E+00 0.  1.
        -13    1    3    3    0    0 -0.33008454068E+03 -0.39947476914E+03 -0.33438651877E+02  0.51928223406E+03  0.00000000000E+00 0. -1.
         22    1    1    2    0    0  0.46944974222E+03  0.49826855719E+03 -0.21771185099E+04  0.22822137546E+04  0.00000000000E+00 0.  1.
<mgrwt>
<rscale>  0 0.20048326E+04</rscale>
<asrwt>0</asrwt>
<pdfrwt beam="1">  1        2 0.39756295E+00 0.20048326E+04</pdfrwt>
<pdfrwt beam="2">  1       -2 0.59822374E-01 0.20048326E+04</pdfrwt>
<totfact> 0.75310281E+00</totfact>
</mgrwt>
</event>
<event>
 6    1  0.4630212E-004  0.2341196E+04  0.7818608E-02  0.8461853E-01
          2   -1    0    0  501    0  0.00000000000E+00  0.00000000000E+00  0.18254180352E+04  0.18254180352E+04  0.00000000000E+00 0.  1.
         -2   -1    0    0    0  501 -0.00000000000E+00 -0.00000000000E+00 -0.75067744657E+03  0.75067744657E+03  0.00000000000E+00 0. -1.
         23    2    1    2    0    0  0.91391738808E+03 -0.68916356259E+03  0.79857786324E+03  0.13986162849E+04  0.90606293319E+02 0.  0.
         13    1    3    3    0    0  0.70304488741E+03 -0.57142313002E+03  0.60998499282E+03  0.10921896350E+04  0.00000000000E+00 0. -1.
        -13    1    3    3    0    0  0.21087250067E+03 -0.11774043256E+03  0.18859287041E+03  0.30642664990E+03  0.00000000000E+00 0.  1.
         22    1    1    2    0    0 -0.91391738808E+03  0.68916356259E+03  0.27616272538E+03  0.11774791969E+04  0.00000000000E+00 0.  1.
<mgrwt>
<rscale>  0 0.23411964E+04</rscale>
<asrwt>0</asrwt>
<pdfrwt beam="1">  1        2 0.28083354E+00 0.23411964E+04</pdfrwt>
<pdfrwt beam="2">  1       -2 0.11548884E+00 0.23411964E+04</pdfrwt>
<totfact> 0.44046774E+00</totfact>
</mgrwt>
</event>
<event>
 6    1  0.4630212E-004  0.2945818E+04  0.7818608E-02  0.8259374E-01
          2   -1    0    0  501    0  0.00000000000E+00  0.00000000000E+00  0.17705503084E+04  0.17705503084E+04  0.00000000000E+00 0.  1.
         -2   -1    0    0    0  501 -0.00000000000E+00 -0.00000000000E+00 -0.12253030223E+04  0.12253030223E+04  0.00000000000E+00 0. -1.
         23    2    1    2    0    0  0.26667599166E+03 -0.95876555247E+03  0.13752288360E+04  0.17000073358E+04  0.91777564890E+02 0.  0.
         11    1    3    3    0    0  0.19695258193E+03 -0.82890411880E+03  0.11748743146E+04  0.14512759947E+04  0.00000000000E+00 0. -1.
        -11    1    3    3    0    0  0.69723409732E+02 -0.12986143367E+03  0.20035452137E+03  0.24873134111E+03  0.00000000000E+00 0.  1.
         22    1    1    2    0    0 -0.26667599166E+03  0.95876555247E+03 -0.82998154990E+03  0.12958459948E+04  0.00000000000E+00 0. -1.
<mgrwt>
<rscale>  0 0.29458178E+04</rscale>
<asrwt>0</asrwt>
<pdfrwt beam="1">  1        2 0.27239236E+00 0.29458178E+04</pdfrwt>
<pdfrwt beam="2">  1       -2 0.18850816E+00 0.29458178E+04</pdfrwt>
<totfact> 0.12222111E+00</totfact>
</mgrwt>
</event>
<event>
 6    1  0.4630212E-004  0.1309171E+04  0.7818608E-02  0.9022324E-01
         -2   -1    0    0    0  501 -0.00000000000E+00  0.00000000000E+00  0.28997818766E+03  0.28997818766E+03  0.00000000000E+00 0. -1.
          2   -1    0    0  501    0  0.00000000000E+00 -0.00000000000E+00 -0.14776367909E+04  0.14776367909E+04  0.00000000000E+00 0.  1.
         23    2    1    2    0    0 -0.23837227045E+03  0.35766103643E+03 -0.12574469963E+04  0.13321690277E+04  0.93587464786E+02 0.  0.
         13    1    3    3    0    0 -0.20116216321E+03  0.33280124846E+03 -0.10438013169E+04  0.11138869225E+04  0.00000000000E+00 0. -1.
        -13    1    3    3    0    0 -0.37210107245E+02  0.24859787968E+02 -0.21364567942E+03  0.21828210525E+03  0.00000000000E+00 0.  1.
         22    1    1    2    0    0  0.23837227045E+03 -0.35766103643E+03  0.69788393079E+02  0.43544595085E+03  0.00000000000E+00 0.  1.
<mgrwt>
<rscale>  0 0.13091714E+04</rscale>
<asrwt>0</asrwt>
<pdfrwt beam="1">  1        2 0.22732873E+00 0.13091714E+04</pdfrwt>
<pdfrwt beam="2">  1       -2 0.44612030E-01 0.13091714E+04</pdfrwt>
<totfact> 0.60980511E+01</totfact>
</mgrwt>
</event>
<event>
 6    1  0.4630212E-004  0.2315217E+04  0.7818608E-02  0.8471946E-01
         -2   -1    0    0    0  501 -0.00000000000E+00  0.00000000000E+00  0.18491964148E+04  0.18491964148E+04  0.00000000000E+00 0. -1.
          2   -1    0    0  501    0  0.00000000000E+00 -0.00000000000E+00 -0.72466986044E+03  0.72466986044E+03  0.00000000000E+00 0.  1.
         23    2    1    2    0    0 -0.74315056983E+03  0.83190680576E+03  0.89963581105E+03  0.14359218349E+04  0.90472207953E+02 0.  0.
         11    1    3    3    0    0 -0.19966618265E+03  0.18603842627E+03  0.18243323922E+03  0.32826630548E+03  0.00000000000E+00 0.  1.
        -11    1    3    3    0    0 -0.54348438718E+03  0.64586837949E+03  0.71720257182E+03  0.11076555294E+04  0.00000000000E+00 0. -1.
         22    1    1    2    0    0  0.74315056983E+03 -0.83190680576E+03  0.22489074328E+03  0.11379444404E+04  0.00000000000E+00 0.  1.
<mgrwt>
<rscale>  0 0.23152165E+04</rscale>
<asrwt>0</asrwt>
<pdfrwt beam="1">  1        2 0.11148767E+00 0.23152165E+04</pdfrwt>
<pdfrwt beam="2">  1       -2 0.28449175E+00 0.23152165E+04</pdfrwt>
<totfact> 0.14036705E+00</totfact>
</mgrwt>
</event>
<event>
 6    1  0.4630212E-004  0.2741990E+04  0.7818608E-02  0.8321508E-01
         -2   -1    0    0    0  501 -0.00000000000E+00  0.00000000000E+00  0.98858129015E+03  0.98858129015E+03  0.00000000000E+00 0. -1.
          2   -1    0    0  501    0  0.00000000000E+00 -0.00000000000E+00 -0.19013382264E+04  0.19013382264E+04  0.00000000000E+00 0.  1.
         23    2    1    2    0    0  0.78248218932E+03 -0.55720799616E+03  0.57177854460E+03  0.11216987381E+04  0.92294243097E+02 0.  0.
         11    1    3    3    0    0  0.21474237470E+03 -0.10425506259E+03  0.13784555262E+03  0.27565340910E+03  0.00000000000E+00 0.  1.
        -11    1    3    3    0    0  0.56773981462E+03 -0.45295293358E+03  0.43393299197E+03  0.84604532896E+03  0.00000000000E+00 0. -1.
         22    1    1    2    0    0 -0.78248218932E+03  0.55720799616E+03 -0.14845354808E+04  0.17682207785E+04  0.00000000000E+00 0.  1.
<mgrwt>
<rscale>  0 0.27419901E+04</rscale>
<asrwt>0</asrwt>
<pdfrwt beam="1">  1        2 0.29251357E+00 0.27419901E+04</pdfrwt>
<pdfrwt beam="2">  1       -2 0.15208943E+00 0.27419901E+04</pdfrwt>
<totfact> 0.19142195E+00</totfact>
</mgrwt>
</event>
<event>
 6    1  0.4630212E-004  0.2701887E+04  0.7818608E-02  0.8334393E-01
          2   -1    0    0  501    0  0.00000000000E+00  0.00000000000E+00  0.23061522486E+04  0.23061522486E+04  0.00000000000E+00 0.  1.
         -2   -1    0    0    0  501 -0.00000000000E+00 -0.00000000000E+00 -0.79138263244E+03  0.79138263244E+03  0.00000000000E+00 0. -1.
         23    2    1    2    0    0  0.83272028964E+03  0.26858809957E+03  0.19360032159E+04  0.21264528075E+04  0.90168966941E+02 0.  0.
         13    1    3    3    0    0  0.81734722313E+03  0.24929818900E+03  0.18700608306E+04  0.20560480491E+04  0.00000000000E+00 0.  1.
        -13    1    3    3    0    0  0.15373066512E+02  0.19289910574E+02  0.65942385275E+02  0.70404758360E+02  0.00000000000E+00 0. -1.
         22    1    1    2    0    0 -0.83272028964E+03 -0.26858809957E+03 -0.42123359972E+03  0.97108207354E+03  0.00000000000E+00 0. -1.
<mgrwt>
<rscale>  0 0.27018874E+04</rscale>
<asrwt>0</asrwt>
<pdfrwt beam="1">  1        2 0.35479265E+00 0.27018874E+04</pdfrwt>
<pdfrwt beam="2">  1       -2 0.12175117E+00 0.27018874E+04</pdfrwt>
<totfact> 0.20201534E+00</totfact>
</mgrwt>
</event>
<event>
 6    1  0.4630212E-004  0.2841181E+04  0.7818608E-02  0.8290596E-01
          2   -1    0    0  501    0  0.00000000000E+00  0.00000000000E+00  0.17700793958E+04  0.17700793958E+04  0.00000000000E+00 0.  1.
         -2   -1    0    0    0  501 -0.00000000000E+00 -0.00000000000E+00 -0.11401059326E+04  0.11401059326E+04  0.00000000000E+00 0. -1.
         23    2    1    2    0    0  0.94297262259E+03 -0.10588153965E+04  0.37771001569E+03  0.14700727433E+04  0.90341595386E+02 0.  0.
         11    1    3    3    0    0  0.54993132212E+03 -0.55551129198E+03  0.18934386643E+03  0.80428126568E+03  0.00000000000E+00 0.  1.
        -11    1    3    3    0    0  0.39304130048E+03 -0.50330410455E+03  0.18836614927E+03  0.66579147767E+03  0.00000000000E+00 0. -1.
         22    1    1    2    0    0 -0.94297262259E+03  0.10588153965E+04  0.25226344751E+03  0.14401125851E+04  0.00000000000E+00 0. -1.
<mgrwt>
<rscale>  0 0.28411815E+04</rscale>
<asrwt>0</asrwt>
<pdfrwt beam="1">  1        2 0.27231991E+00 0.28411815E+04</pdfrwt>
<pdfrwt beam="2">  1       -2 0.17540091E+00 0.28411815E+04</pdfrwt>
<totfact> 0.15179709E+00</totfact>
</mgrwt>
</event>
<event>
 6    1  0.4630212E-004  0.1313763E+04  0.7818608E-02  0.9018722E-01
          2   -1    0    0  501    0  0.00000000000E+00  0.00000000000E+00  0.24679875540E+04  0.24679875540E+04  0.00000000000E+00 0.  1.
         -2   -1    0    0    0  501 -0.00000000000E+00 -0.00000000000E+00 -0.17483605202E+03  0.17483605202E+03  0.00000000000E+00 0. -1.
         23    2    1    2    0    0 -0.24861758262E+03 -0.38093038812E+03  0.20784348423E+03  0.50847869671E+03  0.91831411241E+02 0.  0.
         13    1    3    3    0    0 -0.15089495610E+03 -0.21672158416E+03  0.71033077097E+02  0.27346522788E+03  0.00000000000E+00 0. -1.
        -13    1    3    3    0    0 -0.97722626517E+02 -0.16420880396E+03  0.13681040713E+03  0.23501346883E+03  0.00000000000E+00 0.  1.
         22    1    1    2    0    0  0.24861758262E+03  0.38093038812E+03  0.20853080177E+04  0.21343449093E+04  0.00000000000E+00 0.  1.
<mgrwt>
<rscale>  0 0.13137628E+04</rscale>
<asrwt>0</asrwt>
<pdfrwt beam="1">  1        2 0.37969037E+00 0.13137628E+04</pdfrwt>
<pdfrwt beam="2">  1       -2 0.26897856E-01 0.13137628E+04</pdfrwt>
<totfact> 0.44846233E+01</totfact>
</mgrwt>
</event>
<event>
 6    1  0.4630212E-004  0.1878762E+04  0.7818608E-02  0.8665501E-01
          2   -1    0    0  501    0  0.00000000000E+00  0.00000000000E+00  0.11767628853E+04  0.11767628853E+04  0.00000000000E+00 0.  1.
         -2   -1    0    0    0  501 -0.00000000000E+00 -0.00000000000E+00 -0.74988509437E+03  0.74988509437E+03  0.00000000000E+00 0. -1.
         23    2    1    2    0    0  0.43972877604E+03 -0.93309961278E+02 -0.62915050260E+03  0.77892680183E+03  0.93959897431E+02 0.  0.
         11    1    3    3    0    0  0.37180890604E+02  0.89495637945E+01 -0.94238658539E+02  0.10170269456E+03  0.00000000000E+00 0. -1.
        -11    1    3    3    0    0  0.40254788544E+03 -0.10225952507E+03 -0.53491184407E+03  0.67722410726E+03  0.00000000000E+00 0.  1.
         22    1    1    2    0    0 -0.43972877604E+03  0.93309961278E+02  0.10560282935E+04  0.11477211779E+04  0.00000000000E+00 0.  1.
<mgrwt>
<rscale>  0 0.18787623E+04</rscale>
<asrwt>0</asrwt>
<pdfrwt beam="1">  1        2 0.18104044E+00 0.18787623E+04</pdfrwt>
<pdfrwt beam="2">  1       -2 0.11536694E+00 0.18787623E+04</pdfrwt>
<totfact> 0.10737697E+01</totfact>
</mgrwt>
</event>
<event>
 6    1  0.5747119E-004  0.3809795E+04  0.7818608E-02  0.8044056E-01
         -1   -1    0    0    0  501 -0.00000000000E+00  0.00000000000E+00  0.11391313591E+04  0.11391313591E+04  0.00000000000E+00 0. -1.
          1   -1    0    0  501    0  0.00000000000E+00 -0.00000000000E+00 -0.31854399323E+04  0.31854399323E+04  0.00000000000E+00 0.  1.
         23    2    1    2    0    0 -0.14382836906E+04  0.93542874672E+03 -0.19603247671E+04  0.26067004786E+04  0.91253920474E+02 0.  0.
         11    1    3    3    0    0 -0.47882399276E+03  0.26369470378E+03 -0.60214540064E+03  0.81325666081E+03  0.00000000000E+00 0. -1.
        -11    1    3    3    0    0 -0.95945969779E+03  0.67173404294E+03 -0.13581793664E+04  0.17934438178E+04  0.00000000000E+00 0.  1.
         22    1    1    2    0    0  0.14382836906E+04 -0.93542874672E+03 -0.85983806160E+02  0.17178708128E+04  0.00000000000E+00 0.  1.
<mgrwt>
<rscale>  0 0.38097950E+04</rscale>
<asrwt>0</asrwt>
<pdfrwt beam="1">  1        1 0.49006767E+00 0.38097950E+04</pdfrwt>
<pdfrwt beam="2">  1       -1 0.17525098E+00 0.38097950E+04</pdfrwt>
<totfact> 0.77983164E-02</totfact>
</mgrwt>
</event>
<event>
 6    1  0.8030312E-004  0.4538891E+04  0.7818608E-02  0.7903863E-01
          2   -1    0    0  501    0  0.00000000000E+00  0.00000000000E+00  0.26226971012E+04  0.26226971012E+04  0.00000000000E+00 0.  1.
         -2   -1    0    0    0  501 -0.00000000000E+00 -0.00000000000E+00 -0.19637731402E+04  0.19637731402E+04  0.00000000000E+00 0. -1.
         23    2    1    2    0    0 -0.11685124146E+04  0.12773565490E+04 -0.11516411850E+04  0.20814338816E+04  0.95018777705E+02 0.  0.
         13    1    3    3    0    0 -0.96409125978E+03  0.10989717876E+04 -0.99063115404E+03  0.17659447982E+04  0.00000000000E+00 0. -1.
        -13    1    3    3    0    0 -0.20442115484E+03  0.17838476143E+03 -0.16101003094E+03  0.31548908336E+03  0.00000000000E+00 0.  1.
         22    1    1    2    0    0  0.11685124146E+04 -0.12773565490E+04  0.18105651459E+04  0.25050363598E+04  0.00000000000E+00 0.  1.
<mgrwt>
<rscale>  0 0.45388907E+04</rscale>
<asrwt>0</asrwt>
<pdfrwt beam="1">  1        2 0.40349186E+00 0.45388907E+04</pdfrwt>
<pdfrwt beam="2">  1       -2 0.30211894E+00 0.45388907E+04</pdfrwt>
<totfact> 0.68757293E-02</totfact>
</mgrwt>
</event>
<event>
 6    1  0.4630212E-004  0.8540439E+03  0.7818608E-02  0.9484925E-01
          2   -1    0    0  501    0  0.00000000000E+00  0.00000000000E+00  0.16767793219E+04  0.16767793219E+04  0.00000000000E+00 0.  1.
         -2   -1    0    0    0  501 -0.00000000000E+00 -0.00000000000E+00 -0.10874879401E+03  0.10874879401E+03  0.00000000000E+00 0. -1.
         23    2    1    2    0    0  0.36801338472E+03 -0.18546347320E+03  0.59930386091E+03  0.73278792643E+03  0.89344704375E+02 0.  0.
         11    1    3    3    0    0  0.21930124883E+03 -0.12964539219E+03  0.43601313618E+03  0.50498358426E+03  0.00000000000E+00 0. -1.
        -11    1    3    3    0    0  0.14871213589E+03 -0.55818081012E+02  0.16329072473E+03  0.22780434217E+03  0.00000000000E+00 0.  1.
         22    1    1    2    0    0 -0.36801338472E+03  0.18546347320E+03  0.96872666694E+03  0.10527401894E+04  0.00000000000E+00 0. -1.
<mgrwt>
<rscale>  0 0.85404386E+03</rscale>
<asrwt>0</asrwt>
<pdfrwt beam="1">  1        2 0.25796603E+00 0.85404386E+03</pdfrwt>
<pdfrwt beam="2">  1       -2 0.16730585E-01 0.85404386E+03</pdfrwt>
<totfact> 0.29661286E+02</totfact>
</mgrwt>
</event>
<event>
 6    1  0.4630212E-004  0.4600764E+04  0.7818608E-02  0.7893230E-01
          2   -1    0    0  501    0  0.00000000000E+00  0.00000000000E+00  0.20588783434E+04  0.20588783434E+04  0.00000000000E+00 0.  1.
         -2   -1    0    0    0  501 -0.00000000000E+00 -0.00000000000E+00 -0.25702132761E+04  0.25702132761E+04  0.00000000000E+00 0. -1.
         23    2    1    2    0    0 -0.17929011685E+04  0.83383469767E+03 -0.14367681876E+04  0.24459284070E+04  0.92130581364E+02 0.  0.
         13    1    3    3    0    0 -0.88022972765E+03  0.41065978198E+03 -0.64891296218E+03  0.11681326391E+04  0.00000000000E+00 0.  1.
        -13    1    3    3    0    0 -0.91267144083E+03  0.42317491569E+03 -0.78785522544E+03  0.12777957679E+04  0.00000000000E+00 0. -1.
         22    1    1    2    0    0  0.17929011685E+04 -0.83383469767E+03  0.92543325495E+03  0.21831632125E+04  0.00000000000E+00 0.  1.
<mgrwt>
<rscale>  0 0.46007636E+04</rscale>
<asrwt>0</asrwt>
<pdfrwt beam="1">  1        2 0.31675051E+00 0.46007636E+04</pdfrwt>
<pdfrwt beam="2">  1       -2 0.39541743E+00 0.46007636E+04</pdfrwt>
<totfact> 0.37032751E-02</totfact>
</mgrwt>
</event>
<event>
 6    1  0.4630212E-004  0.2388170E+04  0.7818608E-02  0.8443946E-01
         -2   -1    0    0    0  501 -0.00000000000E+00  0.00000000000E+00  0.64500431857E+03  0.64500431857E+03  0.00000000000E+00 0. -1.
          2   -1    0    0  501    0  0.00000000000E+00 -0.00000000000E+00 -0.22105877435E+04  0.22105877435E+04  0.00000000000E+00 0.  1.
         23    2    1    2    0    0  0.69141795034E+03 -0.97022617497E+03 -0.72979789599E+03  0.14002793593E+04  0.93700065763E+02 0.  0.
         13    1    3    3    0    0  0.38848792469E+03 -0.62350040234E+03 -0.45245332512E+03  0.86278017522E+03  0.00000000000E+00 0.  1.
        -13    1    3    3    0    0  0.30293002565E+03 -0.34672577263E+03 -0.27734457087E+03  0.53749918403E+03  0.00000000000E+00 0. -1.
         22    1    1    2    0    0 -0.69141795034E+03  0.97022617497E+03 -0.83578552898E+03  0.14553127029E+04  0.00000000000E+00 0.  1.
<mgrwt>
<rscale>  0 0.23881697E+04</rscale>
<asrwt>0</asrwt>
<pdfrwt beam="1">  1        2 0.34009042E+00 0.23881697E+04</pdfrwt>
<pdfrwt beam="2">  1       -2 0.99231433E-01 0.23881697E+04</pdfrwt>
<totfact> 0.38562167E+00</totfact>
</mgrwt>
</event>
<event>
 6    1  0.4630212E-004  0.3215868E+04  0.7818608E-02  0.8184639E-01
         -2   -1    0    0    0  501 -0.00000000000E+00  0.00000000000E+00  0.67040096685E+03  0.67040096685E+03  0.00000000000E+00 0. -1.
          2   -1    0    0  501    0  0.00000000000E+00 -0.00000000000E+00 -0.38565758292E+04  0.38565758292E+04  0.00000000000E+00 0.  1.
         23    2    1    2    0    0  0.41063290442E+03 -0.26320803255E+03 -0.37492862039E+04  0.37819987873E+04  0.92032264474E+02 0.  0.
         11    1    3    3    0    0  0.10540572992E+03 -0.92633813420E+02 -0.13680624619E+04  0.13752404485E+04  0.00000000000E+00 0.  1.
        -11    1    3    3    0    0  0.30522717450E+03 -0.17057421913E+03 -0.23812237419E+04  0.24067583388E+04  0.00000000000E+00 0. -1.
         22    1    1    2    0    0 -0.41063290442E+03  0.26320803255E+03  0.56311134154E+03  0.74497800878E+03  0.00000000000E+00 0. -1.
<mgrwt>
<rscale>  0 0.32158683E+04</rscale>
<asrwt>0</asrwt>
<pdfrwt beam="1">  1        2 0.59331937E+00 0.32158683E+04</pdfrwt>
<pdfrwt beam="2">  1       -2 0.10313861E+00 0.32158683E+04</pdfrwt>
<totfact> 0.28628351E-01</totfact>
</mgrwt>
</event>
<event>
 6    1  0.4630212E-004  0.9868971E+03  0.7818608E-02  0.9323034E-01
         -2   -1    0    0    0  501 -0.00000000000E+00  0.00000000000E+00  0.47403757905E+03  0.47403757905E+03  0.00000000000E+00 0. -1.
          2   -1    0    0  501    0  0.00000000000E+00 -0.00000000000E+00 -0.51365438549E+03  0.51365438549E+03  0.00000000000E+00 0.  1.
         23    2    1    2    0    0 -0.21945215880E+03  0.41394357177E+03 -0.16076293140E+03  0.50376540584E+03  0.91795061914E+02 0.  0.
         11    1    3    3    0    0 -0.14261550189E+03  0.25611376314E+03 -0.53317764900E+02  0.29795339418E+03  0.00000000000E+00 0. -1.
        -11    1    3    3    0    0 -0.76836656914E+02  0.15782980863E+03 -0.10744516650E+03  0.20581201166E+03  0.00000000000E+00 0.  1.
         22    1    1    2    0    0  0.21945215880E+03 -0.41394357177E+03  0.12114612496E+03  0.48392655869E+03  0.00000000000E+00 0. -1.
<mgrwt>
<rscale>  0 0.98689712E+03</rscale>
<asrwt>0</asrwt>
<pdfrwt beam="1">  1        2 0.79023752E-01 0.98689712E+03</pdfrwt>
<pdfrwt beam="2">  1       -2 0.72928858E-01 0.98689712E+03</pdfrwt>
<totfact> 0.10136268E+02</totfact>
</mgrwt>
</event>
<event>
 6    1  0.4630212E-004  0.4748198E+04  0.7818608E-02  0.7868569E-01
          2   -1    0    0  501    0  0.00000000000E+00  0.00000000000E+00  0.28472334400E+04  0.28472334400E+04  0.00000000000E+00 0.  1.
         -2   -1    0    0    0  501 -0.00000000000E+00 -0.00000000000E+00 -0.19795870907E+04  0.19795870907E+04  0.00000000000E+00 0. -1.
         23    2    1    2    0    0  0.20437328232E+04  0.42554037989E+03  0.15815061195E+04  0.26205738901E+04  0.91199999353E+02 0.  0.
         13    1    3    3    0    0  0.92108088358E+03  0.19577405522E+03  0.77022866458E+03  0.12165400407E+04  0.00000000000E+00 0.  1.
        -13    1    3    3    0    0  0.11226519397E+04  0.22976632467E+03  0.81127745491E+03  0.14040338494E+04  0.00000000000E+00 0. -1.
         22    1    1    2    0    0 -0.20437328232E+04 -0.42554037989E+03 -0.71385977017E+03  0.22062466406E+04  0.00000000000E+00 0. -1.
<mgrwt>
<rscale>  0 0.47481982E+04</rscale>
<asrwt>0</asrwt>
<pdfrwt beam="1">  1        2 0.43803591E+00 0.47481982E+04</pdfrwt>
<pdfrwt beam="2">  1       -2 0.30455186E+00 0.47481982E+04</pdfrwt>
<totfact> 0.47902527E-02</totfact>
</mgrwt>
</event>
<event>
 6    1  0.4630212E-004  0.1097044E+04  0.7818608E-02  0.9208078E-01
          1   -1    0    0  501    0  0.00000000000E+00  0.00000000000E+00  0.23929837484E+03  0.23929837484E+03  0.00000000000E+00 0.  1.
         -1   -1    0    0    0  501 -0.00000000000E+00 -0.00000000000E+00 -0.12573261761E+04  0.12573261761E+04  0.00000000000E+00 0. -1.
         23    2    1    2    0    0  0.12304058943E+03 -0.14104401603E+03 -0.12107712477E+04  0.12279566570E+04  0.82934528680E+02 0.  0.
         11    1    3    3    0    0  0.89103438844E+02 -0.57338007534E+02 -0.82366518674E+03  0.83045253313E+03  0.00000000000E+00 0. -1.
        -11    1    3    3    0    0  0.33937150583E+02 -0.83706008492E+02 -0.38710606095E+03  0.39750412385E+03  0.00000000000E+00 0.  1.
         22    1    1    2    0    0 -0.12304058943E+03  0.14104401603E+03  0.19274344644E+03  0.26866789397E+03  0.00000000000E+00 0.  1.
<mgrwt>
<rscale>  0 0.10970435E+04</rscale>
<asrwt>0</asrwt>
<pdfrwt beam="1">  1        1 0.36815135E-01 0.10970435E+04</pdfrwt>
<pdfrwt beam="2">  1       -1 0.19343480E+00 0.10970435E+04</pdfrwt>
<totfact> 0.19629271E+01</totfact>
</mgrwt>
</event>
<event>
 6    1  0.4630212E-004  0.9470665E+03  0.7818608E-02  0.9368586E-01
          2   -1    0    0  501    0  0.00000000000E+00  0.00000000000E+00  0.74193149827E+03  0.74193149827E+03  0.00000000000E+00 0.  1.
         -2   -1    0    0    0  501 -0.00000000000E+00 -0.00000000000E+00 -0.30222969906E+03  0.30222969906E+03  0.00000000000E+00 0. -1.
         23    2    1    2    0    0  0.13109019142E+03 -0.66092536777E+02  0.71299399478E+03  0.73393307826E+03  0.93511844560E+02 0.  0.
         11    1    3    3    0    0  0.81496600829E+02 -0.10694383249E+02  0.53119673816E+03  0.53751840937E+03  0.00000000000E+00 0.  1.
        -11    1    3    3    0    0  0.49593590594E+02 -0.55398153528E+02  0.18179725662E+03  0.19641466890E+03  0.00000000000E+00 0. -1.
         22    1    1    2    0    0 -0.13109019142E+03  0.66092536777E+02 -0.27329219557E+03  0.31022811907E+03  0.00000000000E+00 0. -1.
<mgrwt>
<rscale>  0 0.94706649E+03</rscale>
<asrwt>0</asrwt>
<pdfrwt beam="1">  1        2 0.11414331E+00 0.94706649E+03</pdfrwt>
<pdfrwt beam="2">  1       -2 0.46496877E-01 0.94706649E+03</pdfrwt>
<totfact> 0.16690599E+02</totfact>
</mgrwt>
</event>
<event>
 6    1  0.4630212E-004  0.3050817E+04  0.7818608E-02  0.8229367E-01
         -2   -1    0    0    0  501 -0.00000000000E+00  0.00000000000E+00  0.19353504685E+04  0.19353504685E+04  0.00000000000E+00 0. -1.
          2   -1    0    0  501    0  0.00000000000E+00 -0.00000000000E+00 -0.12022997897E+04  0.12022997897E+04  0.00000000000E+00 0.  1.
         23    2    1    2    0    0  0.12356519576E+04 -0.88592637865E+03  0.25904615320E+03  0.15450481110E+04  0.91473751070E+02 0.  0.
         11    1    3    3    0    0  0.50358376472E+03 -0.40642962585E+03  0.83598676077E+02  0.65251083324E+03  0.00000000000E+00 0. -1.
        -11    1    3    3    0    0  0.73206819288E+03 -0.47949675280E+03  0.17544747712E+03  0.89253727776E+03  0.00000000000E+00 0.  1.
         22    1    1    2    0    0 -0.12356519576E+04  0.88592637865E+03  0.47400452560E+03  0.15926021471E+04  0.00000000000E+00 0. -1.
<mgrwt>
<rscale>  0 0.30508172E+04</rscale>
<asrwt>0</asrwt>
<pdfrwt beam="1">  1        2 0.18496920E+00 0.30508172E+04</pdfrwt>
<pdfrwt beam="2">  1       -2 0.29774623E+00 0.30508172E+04</pdfrwt>
<totfact> 0.52803060E-01</totfact>
</mgrwt>
</event>
<event>
 6    1  0.4630212E-004  0.2074205E+04  0.7818608E-02  0.8572692E-01
         -2   -1    0    0    0  501 -0.00000000000E+00  0.00000000000E+00  0.11514436075E+04  0.11514436075E+04  0.00000000000E+00 0. -1.
          2   -1    0    0  501    0  0.00000000000E+00 -0.00000000000E+00 -0.93411541298E+03  0.93411541298E+03  0.00000000000E+00 0.  1.
         23    2    1    2    0    0 -0.49036977892E+03 -0.16227621011E+03  0.10111180536E+04  0.11385118047E+04  0.83984061427E+02 0.  0.
         11    1    3    3    0    0 -0.11045976325E+03 -0.34669283460E+02  0.31030976202E+03  0.33120305994E+03  0.00000000000E+00 0.  1.
        -11    1    3    3    0    0 -0.37991001566E+03 -0.12760692665E+03  0.70080829160E+03  0.80730874472E+03  0.00000000000E+00 0. -1.
         22    1    1    2    0    0  0.49036977892E+03  0.16227621011E+03 -0.79378985914E+03  0.94704721578E+03  0.00000000000E+00 0.  1.
<mgrwt>
<rscale>  0 0.20742046E+04</rscale>
<asrwt>0</asrwt>
<pdfrwt beam="1">  1        2 0.14371006E+00 0.20742046E+04</pdfrwt>
<pdfrwt beam="2">  1       -2 0.17714517E+00 0.20742046E+04</pdfrwt>
<totfact> 0.48739880E+00</totfact>
</mgrwt>
</event>
<event>
 6    1  0.4630212E-004  0.4094117E+04  0.7818608E-02  0.7985825E-01
          2   -1    0    0  501    0  0.00000000000E+00  0.00000000000E+00  0.15764103935E+04  0.15764103935E+04  0.00000000000E+00 0.  1.
         -2   -1    0    0    0  501 -0.00000000000E+00 -0.00000000000E+00 -0.26582216864E+04  0.26582216864E+04  0.00000000000E+00 0. -1.
         23    2    1    2    0    0  0.10949402783E+04  0.61725631455E+03  0.11286503237E+04  0.16917911235E+04  0.91684684979E+02 0.  0.
         13    1    3    3    0    0  0.25177385048E+03  0.10406165507E+03  0.26908359113E+03  0.38291628178E+03  0.00000000000E+00 0.  1.
        -13    1    3    3    0    0  0.84316642782E+03  0.51319465948E+03  0.85956673256E+03  0.13088748417E+04  0.00000000000E+00 0. -1.
         22    1    1    2    0    0 -0.10949402783E+04 -0.61725631455E+03 -0.22104616166E+04  0.25428409564E+04  0.00000000000E+00 0. -1.
<mgrwt>
<rscale>  0 0.40941169E+04</rscale>
<asrwt>0</asrwt>
<pdfrwt beam="1">  1        2 0.24252468E+00 0.40941169E+04</pdfrwt>
<pdfrwt beam="2">  1       -2 0.40895718E+00 0.40941169E+04</pdfrwt>
<totfact> 0.58336327E-02</totfact>
</mgrwt>
</event>
<event>
 6    1  0.4630212E-004  0.3391134E+04  0.7818608E-02  0.8140086E-01
         -2   -1    0    0    0  501 -0.00000000000E+00  0.00000000000E+00  0.13395403331E+04  0.13395403331E+04  0.00000000000E+00 0. -1.
          2   -1    0    0  501    0  0.00000000000E+00 -0.00000000000E+00 -0.21462197425E+04  0.21462197425E+04  0.00000000000E+00 0.  1.
         23    2    1    2    0    0  0.11457073046E+04 -0.54513116750E+03  0.74914941857E+03  0.14781703368E+04  0.11810789798E+03 0.  0.
         11    1    3    3    0    0  0.29614241874E+03 -0.10698831181E+03  0.13934340585E+03  0.34433038756E+03  0.00000000000E+00 0.  1.
        -11    1    3    3    0    0  0.84956488586E+03 -0.43814285569E+03  0.60980601272E+03  0.11338399492E+04  0.00000000000E+00 0. -1.
         22    1    1    2    0    0 -0.11457073046E+04  0.54513116750E+03 -0.15558288279E+04  0.20075897388E+04  0.00000000000E+00 0.  1.
<mgrwt>
<rscale>  0 0.33911343E+04</rscale>
<asrwt>0</asrwt>
<pdfrwt beam="1">  1        2 0.33018765E+00 0.33911343E+04</pdfrwt>
<pdfrwt beam="2">  1       -2 0.20608313E+00 0.33911343E+04</pdfrwt>
<totfact> 0.55708435E-01</totfact>
</mgrwt>
</event>
<event>
 6    1  0.4630212E-004  0.3209364E+04  0.7818608E-02  0.8186349E-01
          2   -1    0    0  501    0  0.00000000000E+00  0.00000000000E+00  0.13428881908E+04  0.13428881908E+04  0.00000000000E+00 0.  1.
         -2   -1    0    0    0  501 -0.00000000000E+00 -0.00000000000E+00 -0.19175122200E+04  0.19175122200E+04  0.00000000000E+00 0. -1.
         23    2    1    2    0    0  0.15165253689E+04 -0.32875547175E+03 -0.69639487271E+03  0.17038794526E+04  0.10153824644E+03 0.  0.
         11    1    3    3    0    0  0.12241533871E+03 -0.45619153300E+02 -0.82440245592E+02  0.15447658849E+03  0.00000000000E+00 0. -1.
        -11    1    3    3    0    0  0.13941100302E+04 -0.28313631845E+03 -0.61395462712E+03  0.15494028641E+04  0.00000000000E+00 0.  1.
         22    1    1    2    0    0 -0.15165253689E+04  0.32875547175E+03  0.12177084351E+03  0.15565209582E+04  0.00000000000E+00 0. -1.
<mgrwt>
<rscale>  0 0.32093641E+04</rscale>
<asrwt>0</asrwt>
<pdfrwt beam="1">  1        2 0.20659818E+00 0.32093641E+04</pdfrwt>
<pdfrwt beam="2">  1       -2 0.29500188E+00 0.32093641E+04</pdfrwt>
<totfact> 0.44784900E-01</totfact>
</mgrwt>
</event>
<event>
 6    1  0.4630212E-004  0.1343644E+04  0.7818608E-02  0.8995653E-01
          2   -1    0    0  501    0  0.00000000000E+00  0.00000000000E+00  0.10091151263E+04  0.10091151263E+04  0.00000000000E+00 0.  1.
         -2   -1    0    0    0  501 -0.00000000000E+00 -0.00000000000E+00 -0.44726814278E+03  0.44726814278E+03  0.00000000000E+00 0. -1.
         23    2    1    2    0    0  0.53667072671E+03  0.26098820009E+03 -0.44105146407E+02  0.60590793537E+03  0.95125457749E+02 0.  0.
         11    1    3    3    0    0  0.36242264430E+03  0.15936689154E+03  0.13447353501E+02  0.39614241194E+03  0.00000000000E+00 0.  1.
        -11    1    3    3    0    0  0.17424808240E+03  0.10162130854E+03 -0.57552499909E+02  0.20976552342E+03  0.00000000000E+00 0. -1.
         22    1    1    2    0    0 -0.53667072671E+03 -0.26098820009E+03  0.60595212990E+03  0.85047533369E+03  0.00000000000E+00 0.  1.
<mgrwt>
<rscale>  0 0.13436444E+04</rscale>
<asrwt>0</asrwt>
<pdfrwt beam="1">  1        2 0.15524848E+00 0.13436444E+04</pdfrwt>
<pdfrwt beam="2">  1       -2 0.68810484E-01 0.13436444E+04</pdfrwt>
<totfact> 0.46874747E+01</totfact>
</mgrwt>
</event>
<event>
 6    1  0.4630212E-004  0.1291774E+04  0.7818608E-02  0.9036114E-01
         -2   -1    0    0    0  501 -0.00000000000E+00  0.00000000000E+00  0.34897420794E+03  0.34897420794E+03  0.00000000000E+00 0. -1.
          2   -1    0    0  501    0  0.00000000000E+00 -0.00000000000E+00 -0.11954173285E+04  0.11954173285E+04  0.00000000000E+00 0.  1.
         23    2    1    2    0    0 -0.43259942873E+03 -0.16646139081E+03  0.10682850375E+03  0.48440170154E+03  0.91547904816E+02 0.  0.
         13    1    3    3    0    0 -0.39350216168E+03 -0.12671145113E+03  0.11229080506E+03  0.42837946729E+03  0.00000000000E+00 0. -1.
        -13    1    3    3    0    0 -0.39097267045E+02 -0.39749939674E+02 -0.54623013084E+01  0.56022234247E+02  0.00000000000E+00 0.  1.
         22    1    1    2    0    0  0.43259942873E+03  0.16646139081E+03 -0.95327162427E+03  0.10599898349E+04  0.00000000000E+00 0.  1.
<mgrwt>
<rscale>  0 0.12917737E+04</rscale>
<asrwt>0</asrwt>
<pdfrwt beam="1">  1        2 0.18391036E+00 0.12917737E+04</pdfrwt>
<pdfrwt beam="2">  1       -2 0.53688340E-01 0.12917737E+04</pdfrwt>
<totfact> 0.61096428E+01</totfact>
</mgrwt>
</event>
<event>
 6    1  0.6255760E-004  0.2389994E+04  0.7818608E-02  0.8443259E-01
          2   -1    0    0  501    0  0.00000000000E+00  0.00000000000E+00  0.24775455175E+04  0.24775455175E+04  0.00000000000E+00 0.  1.
         -2   -1    0    0    0  501 -0.00000000000E+00 -0.00000000000E+00 -0.57638392786E+03  0.57638392786E+03  0.00000000000E+00 0. -1.
         23    2    1    2    0    0 -0.47764863022E+03  0.33500695127E+03  0.22820711234E+04  0.23571727129E+04  0.89647726062E+02 0.  0.
         11    1    3    3    0    0 -0.23950537476E+03  0.20149367672E+03  0.10767251588E+04  0.11212937144E+04  0.00000000000E+00 0. -1.
        -11    1    3    3    0    0 -0.23814325546E+03  0.13351327456E+03  0.12053459646E+04  0.12358789985E+04  0.00000000000E+00 0.  1.
         22    1    1    2    0    0  0.47764863022E+03 -0.33500695127E+03 -0.38090953375E+03  0.69675673248E+03  0.00000000000E+00 0. -1.
<mgrwt>
<rscale>  0 0.23899937E+04</rscale>
<asrwt>0</asrwt>
<pdfrwt beam="1">  1        2 0.38116084E+00 0.23899937E+04</pdfrwt>
<pdfrwt beam="2">  1       -2 0.88674452E-01 0.23899937E+04</pdfrwt>
<totfact> 0.35298803E+00</totfact>
</mgrwt>
</event>
<event>
 6    1  0.4630212E-004  0.1818319E+04  0.7818608E-02  0.8696618E-01
          2   -1    0    0  501    0  0.00000000000E+00  0.00000000000E+00  0.13981295236E+04  0.13981295236E+04  0.00000000000E+00 0.  1.
         -2   -1    0    0    0  501 -0.00000000000E+00 -0.00000000000E+00 -0.59119744093E+03  0.59119744093E+03  0.00000000000E+00 0. -1.
         23    2    1    2    0    0  0.26281724807E+03  0.18911223423E+03  0.13311043665E+04  0.13732158331E+04  0.95113336699E+02 0.  0.
         13    1    3    3    0    0  0.10257674409E+03  0.99570029345E+02  0.76028184965E+03  0.77360498323E+03  0.00000000000E+00 0.  1.
        -13    1    3    3    0    0  0.16024050398E+03  0.89542204885E+02  0.57082251686E+03  0.59961084990E+03  0.00000000000E+00 0. -1.
         22    1    1    2    0    0 -0.26281724807E+03 -0.18911223423E+03 -0.52417228387E+03  0.61611113136E+03  0.00000000000E+00 0. -1.
<mgrwt>
<rscale>  0 0.18183186E+04</rscale>
<asrwt>0</asrwt>
<pdfrwt beam="1">  1        2 0.21509685E+00 0.18183186E+04</pdfrwt>
<pdfrwt beam="2">  1       -2 0.90953453E-01 0.18183186E+04</pdfrwt>
<totfact> 0.14105283E+01</totfact>
</mgrwt>
</event>
<event>
 6    1  0.4630212E-004  0.5602391E+03  0.7818608E-02  0.9991514E-01
         -2   -1    0    0    0  501 -0.00000000000E+00  0.00000000000E+00  0.22462568982E+03  0.22462568982E+03  0.00000000000E+00 0. -1.
          2   -1    0    0  501    0  0.00000000000E+00 -0.00000000000E+00 -0.34932313438E+03  0.34932313438E+03  0.00000000000E+00 0.  1.
         23    2    1    2    0    0 -0.21389232348E+03 -0.11542604510E+03 -0.19078906159E+03  0.32207345865E+03  0.90872156414E+02 0.  0.
         11    1    3    3    0    0 -0.16419292337E+03 -0.11738850443E+03 -0.11765300980E+03  0.23362706986E+03  0.00000000000E+00 0.  1.
        -11    1    3    3    0    0 -0.49699400117E+02  0.19624593310E+01 -0.73136051789E+02  0.88446388789E+02  0.00000000000E+00 0. -1.
         22    1    1    2    0    0  0.21389232348E+03  0.11542604510E+03  0.66091617028E+02  0.25187536556E+03  0.00000000000E+00 0. -1.
<mgrwt>
<rscale>  0 0.56023906E+03</rscale>
<asrwt>0</asrwt>
<pdfrwt beam="1">  1        2 0.53742021E-01 0.56023906E+03</pdfrwt>
<pdfrwt beam="2">  1       -2 0.34557798E-01 0.56023906E+03</pdfrwt>
<totfact> 0.73076451E+02</totfact>
</mgrwt>
</event>
<event>
 6    1  0.4630212E-004  0.2229737E+04  0.7818608E-02  0.8506152E-01
         -2   -1    0    0    0  501 -0.00000000000E+00  0.00000000000E+00  0.45492964043E+03  0.45492964043E+03  0.00000000000E+00 0. -1.
          2   -1    0    0  501    0  0.00000000000E+00 -0.00000000000E+00 -0.27321401090E+04  0.27321401090E+04  0.00000000000E+00 0.  1.
         23    2    1    2    0    0  0.66221364197E+03 -0.86326246065E+03 -0.80535003365E+03  0.13567358664E+04  0.91621781412E+02 0.  0.
         13    1    3    3    0    0  0.44693817934E+03 -0.52762100098E+03 -0.47475465188E+03  0.83876673534E+03  0.00000000000E+00 0.  1.
        -13    1    3    3    0    0  0.21527546263E+03 -0.33564145967E+03 -0.33059538177E+03  0.51796913104E+03  0.00000000000E+00 0. -1.
         22    1    1    2    0    0 -0.66221364197E+03  0.86326246065E+03 -0.14718604349E+04  0.18303338831E+04  0.00000000000E+00 0.  1.
<mgrwt>
<rscale>  0 0.22297368E+04</rscale>
<asrwt>0</asrwt>
<pdfrwt beam="1">  1        2 0.42032925E+00 0.22297368E+04</pdfrwt>
<pdfrwt beam="2">  1       -2 0.69989175E-01 0.22297368E+04</pdfrwt>
<totfact> 0.43095444E+00</totfact>
</mgrwt>
</event>
<event>
 6    1  0.4630212E-004  0.1249149E+04  0.7818608E-02  0.9070892E-01
          2   -1    0    0  501    0  0.00000000000E+00  0.00000000000E+00  0.24543180647E+04  0.24543180647E+04  0.00000000000E+00 0.  1.
         -2   -1    0    0    0  501 -0.00000000000E+00 -0.00000000000E+00 -0.15894166305E+03  0.15894166305E+03  0.00000000000E+00 0. -1.
         23    2    1    2    0    0  0.60132065542E+03  0.10699218567E+03  0.13934595299E+04  0.15239994733E+04  0.88380284127E+02 0.  0.
         11    1    3    3    0    0  0.13953603708E+03  0.11427403237E+02  0.23973621409E+03  0.27762266394E+03  0.00000000000E+00 0. -1.
        -11    1    3    3    0    0  0.46178461834E+03  0.95564782429E+02  0.11537233158E+04  0.12463768093E+04  0.00000000000E+00 0.  1.
         22    1    1    2    0    0 -0.60132065542E+03 -0.10699218567E+03  0.90191687173E+03  0.10892602545E+04  0.00000000000E+00 0.  1.
<mgrwt>
<rscale>  0 0.12491491E+04</rscale>
<asrwt>0</asrwt>
<pdfrwt beam="1">  1        2 0.37758737E+00 0.12491491E+04</pdfrwt>
<pdfrwt beam="2">  1       -2 0.24452565E-01 0.12491491E+04</pdfrwt>
<totfact> 0.54610538E+01</totfact>
</mgrwt>
</event>
<event>
 6    1  0.4630212E-004  0.5825480E+03  0.7818608E-02  0.9942290E-01
          2   -1    0    0  501    0  0.00000000000E+00  0.00000000000E+00  0.12926634176E+04  0.12926634176E+04  0.00000000000E+00 0.  1.
         -2   -1    0    0    0  501 -0.00000000000E+00 -0.00000000000E+00 -0.65632346739E+02  0.65632346739E+02  0.00000000000E+00 0. -1.
         23    2    1    2    0    0  0.47524122038E+02  0.19697722362E+02  0.12801403783E+04  0.12843556468E+04  0.90352070544E+02 0.  0.
         11    1    3    3    0    0  0.26059294007E+02  0.42707847404E+02  0.33729351611E+03  0.34098381639E+03  0.00000000000E+00 0. -1.
        -11    1    3    3    0    0  0.21464828030E+02 -0.23010125042E+02  0.94284686224E+03  0.94337183036E+03  0.00000000000E+00 0.  1.
         22    1    1    2    0    0 -0.47524122038E+02 -0.19697722362E+02 -0.53109307502E+02  0.73940117562E+02  0.00000000000E+00 0. -1.
<mgrwt>
<rscale>  0 0.58254797E+03</rscale>
<asrwt>0</asrwt>
<pdfrwt beam="1">  1        2 0.19887128E+00 0.58254797E+03</pdfrwt>
<pdfrwt beam="2">  1       -2 0.10097285E-01 0.58254797E+03</pdfrwt>
<totfact> 0.11438029E+03</totfact>
</mgrwt>
</event>
<event>
 6    1  0.4630212E-004  0.1792035E+04  0.7818608E-02  0.8710547E-01
          2   -1    0    0  501    0  0.00000000000E+00  0.00000000000E+00  0.12918960834E+04  0.12918960834E+04  0.00000000000E+00 0.  1.
         -2   -1    0    0    0  501 -0.00000000000E+00 -0.00000000000E+00 -0.62144902686E+03  0.62144902686E+03  0.00000000000E+00 0. -1.
         23    2    1    2    0    0  0.72888839189E+03  0.44153112131E+03  0.49202682038E+02  0.85874917258E+03  0.93814809977E+02 0.  0.
         11    1    3    3    0    0  0.50376366709E+03  0.34446315478E+03  0.91643777825E+01  0.61034144796E+03  0.00000000000E+00 0.  1.
        -11    1    3    3    0    0  0.22512472479E+03  0.97067966531E+02  0.40038304255E+02  0.24840772461E+03  0.00000000000E+00 0. -1.
         22    1    1    2    0    0 -0.72888839189E+03 -0.44153112131E+03  0.62124437447E+03  0.10545959377E+04  0.00000000000E+00 0. -1.
<mgrwt>
<rscale>  0 0.17920352E+04</rscale>
<asrwt>0</asrwt>
<pdfrwt beam="1">  1        2 0.19875324E+00 0.17920352E+04</pdfrwt>
<pdfrwt beam="2">  1       -2 0.95607543E-01 0.17920352E+04</pdfrwt>
<totfact> 0.14498645E+01</totfact>
</mgrwt>
</event>
<event>
 6    1  0.4630212E-004  0.2380284E+04  0.7818608E-02  0.8446922E-01
         -2   -1    0    0    0  501 -0.00000000000E+00  0.00000000000E+00  0.14255622670E+04  0.14255622670E+04  0.00000000000E+00 0. -1.
          2   -1    0    0  501    0  0.00000000000E+00 -0.00000000000E+00 -0.99359987037E+03  0.99359987037E+03  0.00000000000E+00 0.  1.
         23    2    1    2    0    0 -0.25962469230E+03  0.33209508326E+03  0.13454423760E+04  0.14131115432E+04  0.94746615768E+02 0.  0.
         13    1    3    3    0    0 -0.75637404806E+02  0.17052047008E+03  0.62034096184E+03  0.64778171992E+03  0.00000000000E+00 0.  1.
        -13    1    3    3    0    0 -0.18398728749E+03  0.16157461318E+03  0.72510141419E+03  0.76532982331E+03  0.00000000000E+00 0. -1.
         22    1    1    2    0    0  0.25962469230E+03 -0.33209508326E+03 -0.91347997941E+03  0.10060505941E+04  0.00000000000E+00 0.  1.
<mgrwt>
<rscale>  0 0.23802844E+04</rscale>
<asrwt>0</asrwt>
<pdfrwt beam="1">  1        2 0.15286152E+00 0.23802844E+04</pdfrwt>
<pdfrwt beam="2">  1       -2 0.21931727E+00 0.23802844E+04</pdfrwt>
<totfact> 0.22858680E+00</totfact>
</mgrwt>
</event>
<event>
 6    1  0.4630212E-004  0.3773051E+04  0.7818608E-02  0.8051963E-01
         -2   -1    0    0    0  501 -0.00000000000E+00  0.00000000000E+00  0.13162098493E+04  0.13162098493E+04  0.00000000000E+00 0. -1.
          2   -1    0    0  501    0  0.00000000000E+00 -0.00000000000E+00 -0.27039597336E+04  0.27039597336E+04  0.00000000000E+00 0.  1.
         23    2    1    2    0    0 -0.31013052498E+03 -0.11067217393E+04  0.89815169268E+03  0.14615840419E+04  0.92398580862E+02 0.  0.
         11    1    3    3    0    0 -0.11409152907E+03 -0.39736184261E+03  0.37998661722E+03  0.56151860186E+03  0.00000000000E+00 0. -1.
        -11    1    3    3    0    0 -0.19603899592E+03 -0.70935989670E+03  0.51816507545E+03  0.90006544006E+03  0.00000000000E+00 0.  1.
         22    1    1    2    0    0  0.31013052498E+03  0.11067217393E+04 -0.22859015770E+04  0.25585855410E+04  0.00000000000E+00 0.  1.
<mgrwt>
<rscale>  0 0.37730510E+04</rscale>
<asrwt>0</asrwt>
<pdfrwt beam="1">  1        2 0.41599380E+00 0.37730510E+04</pdfrwt>
<pdfrwt beam="2">  1       -2 0.20249382E+00 0.37730510E+04</pdfrwt>
<totfact> 0.27178634E-01</totfact>
</mgrwt>
</event>
<event>
 6    1  0.4630212E-004  0.7430615E+04  0.7818608E-02  0.7534586E-01
         -2   -1    0    0    0  501 -0.00000000000E+00  0.00000000000E+00  0.58586071762E+04  0.58586071762E+04  0.00000000000E+00 0. -1.
          2   -1    0    0  501    0  0.00000000000E+00 -0.00000000000E+00 -0.23561075929E+04  0.23561075929E+04  0.00000000000E+00 0.  1.
         23    2    1    2    0    0  0.29350913054E+04 -0.10895140103E+02 -0.76564745686E+03  0.30347573531E+04  0.93040252826E+02 0.  0.
         13    1    3    3    0    0  0.67008069930E+03 -0.38818401216E+02 -0.16020779094E+03  0.69005909031E+03  0.00000000000E+00 0. -1.
        -13    1    3    3    0    0  0.22650106061E+04  0.27923261112E+02 -0.60543966592E+03  0.23446982628E+04  0.00000000000E+00 0.  1.
         22    1    1    2    0    0 -0.29350913054E+04  0.10895140103E+02  0.42681470401E+04  0.51799574160E+04  0.00000000000E+00 0. -1.
<mgrwt>
<rscale>  0 0.74306147E+04</rscale>
<asrwt>0</asrwt>
<pdfrwt beam="1">  1        2 0.36247809E+00 0.74306147E+04</pdfrwt>
<pdfrwt beam="2">  1       -2 0.90132418E+00 0.74306147E+04</pdfrwt>
<totfact> 0.20759622E-05</totfact>
</mgrwt>
</event>
<event>
 6    1  0.5583748E-004  0.3568156E+04  0.7818608E-02  0.8097825E-01
         -2   -1    0    0    0  501 -0.00000000000E+00  0.00000000000E+00  0.22834513716E+04  0.22834513716E+04  0.00000000000E+00 0. -1.
          2   -1    0    0  501    0  0.00000000000E+00 -0.00000000000E+00 -0.13939137972E+04  0.13939137972E+04  0.00000000000E+00 0.  1.
         23    2    1    2    0    0  0.46977220519E+03  0.15854364973E+04  0.11324019898E+04  0.20060549236E+04  0.87334290299E+02 0.  0.
         13    1    3    3    0    0  0.19806781368E+03  0.67242533986E+03  0.53256227360E+03  0.88034610907E+03  0.00000000000E+00 0.  1.
        -13    1    3    3    0    0  0.27170439151E+03  0.91301115741E+03  0.59983971624E+03  0.11257088145E+04  0.00000000000E+00 0. -1.
         22    1    1    2    0    0 -0.46977220519E+03 -0.15854364973E+04 -0.24286441548E+03  0.16713102453E+04  0.00000000000E+00 0.  1.
<mgrwt>
<rscale>  0 0.35681560E+04</rscale>
<asrwt>0</asrwt>
<pdfrwt beam="1">  1        2 0.21444828E+00 0.35681560E+04</pdfrwt>
<pdfrwt beam="2">  1       -2 0.35130021E+00 0.35681560E+04</pdfrwt>
<totfact> 0.18190664E-01</totfact>
</mgrwt>
</event>
<event>
 6    1  0.4630212E-004  0.2942703E+04  0.7818608E-02  0.8260284E-01
          2   -1    0    0  501    0  0.00000000000E+00  0.00000000000E+00  0.37070497181E+04  0.37070497181E+04  0.00000000000E+00 0.  1.
         -2   -1    0    0    0  501 -0.00000000000E+00 -0.00000000000E+00 -0.58398865241E+03  0.58398865241E+03  0.00000000000E+00 0. -1.
         23    2    1    2    0    0 -0.30508985891E+03  0.13549042798E+04  0.86133310010E+03  0.16369361081E+04  0.93913168308E+02 0.  0.
         11    1    3    3    0    0 -0.25434918162E+03  0.94411254235E+03  0.58921528072E+03  0.11415851461E+04  0.00000000000E+00 0.  1.
        -11    1    3    3    0    0 -0.50740677286E+02  0.41079173741E+03  0.27211781938E+03  0.49535096193E+03  0.00000000000E+00 0. -1.
         22    1    1    2    0    0  0.30508985891E+03 -0.13549042798E+04  0.22617279656E+04  0.26541022625E+04  0.00000000000E+00 0.  1.
<mgrwt>
<rscale>  0 0.29427028E+04</rscale>
<asrwt>0</asrwt>
<pdfrwt beam="1">  1        2 0.57031533E+00 0.29427028E+04</pdfrwt>
<pdfrwt beam="2">  1       -2 0.89844410E-01 0.29427028E+04</pdfrwt>
<totfact> 0.52601561E-01</totfact>
</mgrwt>
</event>
<event>
 6    1  0.4630212E-004  0.3094299E+04  0.7818608E-02  0.8217304E-01
         -2   -1    0    0    0  501 -0.00000000000E+00  0.00000000000E+00  0.10597488888E+04  0.10597488888E+04  0.00000000000E+00 0. -1.
          2   -1    0    0  501    0  0.00000000000E+00 -0.00000000000E+00 -0.22587153329E+04  0.22587153329E+04  0.00000000000E+00 0.  1.
         23    2    1    2    0    0  0.41396491846E+03 -0.44484778652E+03  0.92429359182E+03  0.11099602740E+04  0.91851288325E+02 0.  0.
         13    1    3    3    0    0  0.17517916633E+03 -0.22805037011E+03  0.50283131762E+03  0.57925300656E+03  0.00000000000E+00 0.  1.
        -13    1    3    3    0    0  0.23878575212E+03 -0.21679741641E+03  0.42146227420E+03  0.53070726748E+03  0.00000000000E+00 0. -1.
         22    1    1    2    0    0 -0.41396491846E+03  0.44484778652E+03 -0.21232600359E+04  0.22085039477E+04  0.00000000000E+00 0.  1.
<mgrwt>
<rscale>  0 0.30942987E+04</rscale>
<asrwt>0</asrwt>
<pdfrwt beam="1">  1        2 0.34749467E+00 0.30942987E+04</pdfrwt>
<pdfrwt beam="2">  1       -2 0.16303829E+00 0.30942987E+04</pdfrwt>
<totfact> 0.97232472E-01</totfact>
</mgrwt>
</event>
<event>
 6    1  0.4630212E-004  0.3158426E+04  0.7818608E-02  0.8199884E-01
          3   -1    0    0  501    0  0.00000000000E+00  0.00000000000E+00  0.11549702098E+04  0.11549702098E+04  0.00000000000E+00 0. -1.
         -3   -1    0    0    0  501 -0.00000000000E+00 -0.00000000000E+00 -0.21592881880E+04  0.21592881880E+04  0.00000000000E+00 0.  1.
         23    2    1    2    0    0 -0.14187213090E+04  0.56748706465E+03 -0.91562834436E+03  0.17836776020E+04  0.91207464944E+02 0.  0.
         13    1    3    3    0    0 -0.70275865957E+03  0.27564435305E+03 -0.50516465673E+03  0.90831760601E+03  0.00000000000E+00 0.  1.
        -13    1    3    3    0    0 -0.71596264947E+03  0.29184271160E+03 -0.41046368763E+03  0.87535999601E+03  0.00000000000E+00 0. -1.
         22    1    1    2    0    0  0.14187213090E+04 -0.56748706465E+03 -0.88689633913E+02  0.15305807958E+04  0.00000000000E+00 0. -1.
<mgrwt>
<rscale>  0 0.31584259E+04</rscale>
<asrwt>0</asrwt>
<pdfrwt beam="1">  1        3 0.17768773E+00 0.31584259E+04</pdfrwt>
<pdfrwt beam="2">  1       -3 0.33219818E+00 0.31584259E+04</pdfrwt>
<totfact> 0.11319586E-02</totfact>
</mgrwt>
</event>
<event>
 6    1  0.6719895E-004  0.2754214E+04  0.7818608E-02  0.8317626E-01
          2   -1    0    0  501    0  0.00000000000E+00  0.00000000000E+00  0.20974081770E+04  0.20974081770E+04  0.00000000000E+00 0.  1.
         -2   -1    0    0    0  501 -0.00000000000E+00 -0.00000000000E+00 -0.90417456831E+03  0.90417456831E+03  0.00000000000E+00 0. -1.
         23    2    1    2    0    0  0.61725303166E+03  0.35202449494E+03  0.18809400128E+04  0.20127133664E+04  0.90317291665E+02 0.  0.
         11    1    3    3    0    0  0.28299606749E+03  0.21295320811E+03  0.91395292403E+03  0.98017640780E+03  0.00000000000E+00 0.  1.
        -11    1    3    3    0    0  0.33425696417E+03  0.13907128684E+03  0.96698708881E+03  0.10325369586E+04  0.00000000000E+00 0. -1.
         22    1    1    2    0    0 -0.61725303166E+03 -0.35202449494E+03 -0.68770640419E+03  0.98886937889E+03  0.00000000000E+00 0. -1.
<mgrwt>
<rscale>  0 0.27542136E+04</rscale>
<asrwt>0</asrwt>
<pdfrwt beam="1">  1        2 0.32267818E+00 0.27542136E+04</pdfrwt>
<pdfrwt beam="2">  1       -2 0.13910378E+00 0.27542136E+04</pdfrwt>
<totfact> 0.18805494E+00</totfact>
</mgrwt>
</event>
<event>
 6    1  0.4630212E-004  0.3839898E+04  0.7818608E-02  0.8037647E-01
         -2   -1    0    0    0  501 -0.00000000000E+00  0.00000000000E+00  0.12673253501E+04  0.12673253501E+04  0.00000000000E+00 0. -1.
          2   -1    0    0  501    0  0.00000000000E+00 -0.00000000000E+00 -0.29086483050E+04  0.29086483050E+04  0.00000000000E+00 0.  1.
         23    2    1    2    0    0 -0.60589883756E+03 -0.16961360414E+04 -0.15408059959E+04  0.23720627563E+04  0.92777856985E+02 0.  0.
         13    1    3    3    0    0 -0.34343980021E+03 -0.10690016709E+04 -0.99463723776E+03  0.15000062345E+04  0.00000000000E+00 0.  1.
        -13    1    3    3    0    0 -0.26245903736E+03 -0.62713437042E+03 -0.54616875810E+03  0.87205652178E+03  0.00000000000E+00 0. -1.
         22    1    1    2    0    0  0.60589883756E+03  0.16961360414E+04 -0.10051695904E+03  0.18039108989E+04  0.00000000000E+00 0. -1.
<mgrwt>
<rscale>  0 0.38398978E+04</rscale>
<asrwt>0</asrwt>
<pdfrwt beam="1">  1        2 0.44748435E+00 0.38398978E+04</pdfrwt>
<pdfrwt beam="2">  1       -2 0.19497313E+00 0.38398978E+04</pdfrwt>
<totfact> 0.22761135E-01</totfact>
</mgrwt>
</event>
<event>
 6    1  0.4630212E-004  0.2862814E+04  0.7818608E-02  0.8284028E-01
         -2   -1    0    0    0  501 -0.00000000000E+00  0.00000000000E+00  0.11072578997E+04  0.11072578997E+04  0.00000000000E+00 0. -1.
          2   -1    0    0  501    0  0.00000000000E+00 -0.00000000000E+00 -0.18504510227E+04  0.18504510227E+04  0.00000000000E+00 0.  1.
         23    2    1    2    0    0  0.50776859835E+03  0.61414383184E+03  0.85464057958E+03  0.11721910320E+04  0.92842337207E+02 0.  0.
         13    1    3    3    0    0  0.17446594341E+03  0.14896854744E+03  0.26516263116E+03  0.35062973990E+03  0.00000000000E+00 0. -1.
        -13    1    3    3    0    0  0.33330265494E+03  0.46517528441E+03  0.58947794841E+03  0.82156129210E+03  0.00000000000E+00 0.  1.
         22    1    1    2    0    0 -0.50776859835E+03 -0.61414383184E+03 -0.15978337026E+04  0.17855178904E+04  0.00000000000E+00 0.  1.
<mgrwt>
<rscale>  0 0.28628144E+04</rscale>
<asrwt>0</asrwt>
<pdfrwt beam="1">  1        2 0.28468477E+00 0.28628144E+04</pdfrwt>
<pdfrwt beam="2">  1       -2 0.17034737E+00 0.28628144E+04</pdfrwt>
<totfact> 0.14843795E+00</totfact>
</mgrwt>
</event>
<event>
 6    1  0.4630212E-004  0.3989746E+04  0.7818608E-02  0.8006618E-01
         -2   -1    0    0    0  501 -0.00000000000E+00  0.00000000000E+00  0.12458450210E+04  0.12458450210E+04  0.00000000000E+00 0. -1.
          2   -1    0    0  501    0  0.00000000000E+00 -0.00000000000E+00 -0.31942325263E+04  0.31942325263E+04  0.00000000000E+00 0.  1.
         23    2    1    2    0    0 -0.16138436939E+04 -0.49696262312E+03  0.20509755322E+03  0.17034808992E+04  0.91207733607E+02 0.  0.
         11    1    3    3    0    0 -0.11488381696E+04 -0.31105388492E+03  0.15256518320E+03  0.11999415796E+04  0.00000000000E+00 0. -1.
        -11    1    3    3    0    0 -0.46500552426E+03 -0.18590873820E+03  0.52532370023E+02  0.50353931965E+03  0.00000000000E+00 0.  1.
         22    1    1    2    0    0  0.16138436939E+04  0.49696262312E+03 -0.21534850586E+04  0.27365966481E+04  0.00000000000E+00 0.  1.
<mgrwt>
<rscale>  0 0.39897462E+04</rscale>
<asrwt>0</asrwt>
<pdfrwt beam="1">  1        2 0.49142039E+00 0.39897462E+04</pdfrwt>
<pdfrwt beam="2">  1       -2 0.19166847E+00 0.39897462E+04</pdfrwt>
<totfact> 0.15585287E-01</totfact>
</mgrwt>
</event>
<event>
 6    1  0.4630212E-004  0.1522773E+04  0.7818608E-02  0.8869449E-01
          2   -1    0    0  501    0  0.00000000000E+00  0.00000000000E+00  0.55974733391E+03  0.55974733391E+03  0.00000000000E+00 0.  1.
         -2   -1    0    0    0  501 -0.00000000000E+00 -0.00000000000E+00 -0.10356628290E+04  0.10356628290E+04  0.00000000000E+00 0. -1.
         23    2    1    2    0    0  0.52277531897E+03  0.22182550556E+03  0.28849985682E+03  0.64313319726E+03  0.88811896686E+02 0.  0.
         13    1    3    3    0    0  0.14696240762E+03  0.10467751117E+03  0.10569496416E+03  0.20910943558E+03  0.00000000000E+00 0.  1.
        -13    1    3    3    0    0  0.37581291135E+03  0.11714799439E+03  0.18280489266E+03  0.43402376169E+03  0.00000000000E+00 0. -1.
         22    1    1    2    0    0 -0.52277531897E+03 -0.22182550556E+03 -0.76441535188E+03  0.95227696561E+03  0.00000000000E+00 0. -1.
<mgrwt>
<rscale>  0 0.15227731E+04</rscale>
<asrwt>0</asrwt>
<pdfrwt beam="1">  1        2 0.86114974E-01 0.15227731E+04</pdfrwt>
<pdfrwt beam="2">  1       -2 0.15933274E+00 0.15227731E+04</pdfrwt>
<totfact> 0.13236882E+01</totfact>
</mgrwt>
</event>
<event>
 6    1  0.4630212E-004  0.3855379E+04  0.7818608E-02  0.8034374E-01
         -2   -1    0    0    0  501 -0.00000000000E+00  0.00000000000E+00  0.34812489957E+04  0.34812489957E+04  0.00000000000E+00 0. -1.
          2   -1    0    0  501    0  0.00000000000E+00 -0.00000000000E+00 -0.10674290468E+04  0.10674290468E+04  0.00000000000E+00 0.  1.
         23    2    1    2    0    0  0.11380205699E+04 -0.57657261371E+03 -0.49545785918E+03  0.13719778425E+04  0.96529340991E+02 0.  0.
         11    1    3    3    0    0  0.59367844224E+03 -0.27291778100E+03 -0.29789219834E+03  0.71810721331E+03  0.00000000000E+00 0.  1.
        -11    1    3    3    0    0  0.54434212762E+03 -0.30365483271E+03 -0.19756566084E+03  0.65387062915E+03  0.00000000000E+00 0. -1.
         22    1    1    2    0    0 -0.11380205699E+04  0.57657261371E+03  0.29092778081E+04  0.31767002001E+04  0.00000000000E+00 0. -1.
<mgrwt>
<rscale>  0 0.38553787E+04</rscale>
<asrwt>0</asrwt>
<pdfrwt beam="1">  1        2 0.16421985E+00 0.38553787E+04</pdfrwt>
<pdfrwt beam="2">  1       -2 0.53557677E+00 0.38553787E+04</pdfrwt>
<totfact> 0.18566283E-02</totfact>
</mgrwt>
</event>
<event>
 6    1  0.5384630E-004  0.3750978E+04  0.7818608E-02  0.8056757E-01
          2   -1    0    0  501    0  0.00000000000E+00  0.00000000000E+00  0.22180587505E+04  0.22180587505E+04  0.00000000000E+00 0.  1.
         -2   -1    0    0    0  501 -0.00000000000E+00 -0.00000000000E+00 -0.15858277487E+04  0.15858277487E+04  0.00000000000E+00 0. -1.
         23    2    1    2    0    0 -0.10085376767E+04 -0.42016848730E+03  0.18609687846E+04  0.21596583089E+04  0.85025824324E+02 0.  0.
         11    1    3    3    0    0 -0.16187611655E+03 -0.73379431877E+02  0.24533037441E+03  0.30294456711E+03  0.00000000000E+00 0.  1.
        -11    1    3    3    0    0 -0.84666156020E+03 -0.34678905543E+03  0.16156384102E+04  0.18567137418E+04  0.00000000000E+00 0. -1.
         22    1    1    2    0    0  0.10085376767E+04  0.42016848730E+03 -0.12287377827E+04  0.16442281903E+04  0.00000000000E+00 0. -1.
<mgrwt>
<rscale>  0 0.37509781E+04</rscale>
<asrwt>0</asrwt>
<pdfrwt beam="1">  1        2 0.34123981E+00 0.37509781E+04</pdfrwt>
<pdfrwt beam="2">  1       -2 0.24397350E+00 0.37509781E+04</pdfrwt>
<totfact> 0.28427546E-01</totfact>
</mgrwt>
</event>
<event>
 6    1  0.4630212E-004  0.8466079E+03  0.7818608E-02  0.9494901E-01
         -2   -1    0    0    0  501 -0.00000000000E+00  0.00000000000E+00  0.11500735650E+03  0.11500735650E+03  0.00000000000E+00 0. -1.
          2   -1    0    0  501    0  0.00000000000E+00 -0.00000000000E+00 -0.15580416185E+04  0.15580416185E+04  0.00000000000E+00 0.  1.
         23    2    1    2    0    0  0.29365255178E+03 -0.22776955705E+03 -0.34977500595E+03  0.51835135518E+03  0.90745690510E+02 0.  0.
         13    1    3    3    0    0  0.15095016529E+03 -0.11867313817E+03 -0.11896484340E+03  0.22588027822E+03  0.00000000000E+00 0. -1.
        -13    1    3    3    0    0  0.14270238649E+03 -0.10909641889E+03 -0.23081016255E+03  0.29247107697E+03  0.00000000000E+00 0.  1.
         22    1    1    2    0    0 -0.29365255178E+03  0.22776955705E+03 -0.10932592561E+04  0.11546976199E+04  0.00000000000E+00 0.  1.
<mgrwt>
<rscale>  0 0.84660793E+03</rscale>
<asrwt>0</asrwt>
<pdfrwt beam="1">  1        2 0.23969870E+00 0.84660793E+03</pdfrwt>
<pdfrwt beam="2">  1       -2 0.17693440E-01 0.84660793E+03</pdfrwt>
<totfact> 0.31346940E+02</totfact>
</mgrwt>
</event>
<event>
 6    1  0.4630212E-004  0.2147843E+04  0.7818608E-02  0.8540456E-01
          2   -1    0    0  501    0  0.00000000000E+00  0.00000000000E+00  0.21979097545E+04  0.21979097545E+04  0.00000000000E+00 0.  1.
         -2   -1    0    0    0  501 -0.00000000000E+00 -0.00000000000E+00 -0.52472931541E+03  0.52472931541E+03  0.00000000000E+00 0. -1.
         23    2    1    2    0    0  0.10117229747E+04 -0.18676304693E+03  0.45658470611E+03  0.11293503356E+04  0.92188792208E+02 0.  0.
         13    1    3    3    0    0  0.77778118181E+03 -0.16908900020E+03  0.38423868170E+03  0.88384049538E+03  0.00000000000E+00 0. -1.
        -13    1    3    3    0    0  0.23394179293E+03 -0.17674046728E+02  0.72346024405E+02  0.24550984024E+03  0.00000000000E+00 0.  1.
         22    1    1    2    0    0 -0.10117229747E+04  0.18676304693E+03  0.12165957330E+04  0.15932887343E+04  0.00000000000E+00 0.  1.
<mgrwt>
<rscale>  0 0.21478433E+04</rscale>
<asrwt>0</asrwt>
<pdfrwt beam="1">  1        2 0.33813996E+00 0.21478433E+04</pdfrwt>
<pdfrwt beam="2">  1       -2 0.80727588E-01 0.21478433E+04</pdfrwt>
<totfact> 0.64368312E+00</totfact>
</mgrwt>
</event>
<event>
 6    1  0.4630212E-004  0.2046087E+04  0.7818608E-02  0.8585371E-01
          2   -1    0    0  501    0  0.00000000000E+00  0.00000000000E+00  0.54804730651E+03  0.54804730651E+03  0.00000000000E+00 0.  1.
         -2   -1    0    0    0  501 -0.00000000000E+00 -0.00000000000E+00 -0.19097224825E+04  0.19097224825E+04  0.00000000000E+00 0. -1.
         23    2    1    2    0    0  0.12316202880E+03 -0.69907541211E+03  0.19932252999E+03  0.74295517651E+03  0.91529264090E+02 0.  0.
         13    1    3    3    0    0  0.58558832513E+02 -0.18916311151E+03  0.89787289079E+02  0.21742487646E+03  0.00000000000E+00 0.  1.
        -13    1    3    3    0    0  0.64603196291E+02 -0.50991230060E+03  0.10953524091E+03  0.52553030005E+03  0.00000000000E+00 0. -1.
         22    1    1    2    0    0 -0.12316202880E+03  0.69907541211E+03 -0.15609977060E+04  0.17148146125E+04  0.00000000000E+00 0. -1.
<mgrwt>
<rscale>  0 0.20460873E+04</rscale>
<asrwt>0</asrwt>
<pdfrwt beam="1">  1        2 0.84314970E-01 0.20460873E+04</pdfrwt>
<pdfrwt beam="2">  1       -2 0.29380346E+00 0.20460873E+04</pdfrwt>
<totfact> 0.17760972E+00</totfact>
</mgrwt>
</event>
<event>
 6    1  0.4630212E-004  0.3384675E+04  0.7818608E-02  0.8141678E-01
         -2   -1    0    0    0  501 -0.00000000000E+00  0.00000000000E+00  0.12050249851E+04  0.12050249851E+04  0.00000000000E+00 0. -1.
          2   -1    0    0  501    0  0.00000000000E+00 -0.00000000000E+00 -0.23767189646E+04  0.23767189646E+04  0.00000000000E+00 0.  1.
         23    2    1    2    0    0  0.48834871232E+03  0.40033686042E+03 -0.22464082871E+04  0.23352428829E+04  0.90857378727E+02 0.  0.
         13    1    3    3    0    0  0.12838694886E+03  0.66380297647E+02 -0.43015798490E+03  0.45379008862E+03  0.00000000000E+00 0. -1.
        -13    1    3    3    0    0  0.35996176346E+03  0.33395656277E+03 -0.18162503022E+04  0.18814527943E+04  0.00000000000E+00 0.  1.
         22    1    1    2    0    0 -0.48834871232E+03 -0.40033686042E+03  0.10747143076E+04  0.12465010668E+04  0.00000000000E+00 0. -1.
<mgrwt>
<rscale>  0 0.33846747E+04</rscale>
<asrwt>0</asrwt>
<pdfrwt beam="1">  1        2 0.36564907E+00 0.33846747E+04</pdfrwt>
<pdfrwt beam="2">  1       -2 0.18538846E+00 0.33846747E+04</pdfrwt>
<totfact> 0.56624597E-01</totfact>
</mgrwt>
</event>
<event>
 6    1  0.4630212E-004  0.2424403E+04  0.7818608E-02  0.8430424E-01
         -1   -1    0    0    0  501 -0.00000000000E+00  0.00000000000E+00  0.55564459627E+03  0.55564459627E+03  0.00000000000E+00 0.  1.
          1   -1    0    0  501    0  0.00000000000E+00 -0.00000000000E+00 -0.26445540837E+04  0.26445540837E+04  0.00000000000E+00 0. -1.
         23    2    1    2    0    0 -0.10844727291E+04  0.51522458210E+03 -0.12481240720E+04  0.17344369036E+04  0.94446828128E+02 0.  0.
         11    1    3    3    0    0 -0.56852863500E+03  0.23575572496E+03 -0.58766072200E+03  0.85097044299E+03  0.00000000000E+00 0. -1.
        -11    1    3    3    0    0 -0.51594409411E+03  0.27946885713E+03 -0.66046334997E+03  0.88346646060E+03  0.00000000000E+00 0.  1.
         22    1    1    2    0    0  0.10844727291E+04 -0.51522458210E+03 -0.84078541541E+03  0.14657617763E+04  0.00000000000E+00 0.  1.
<mgrwt>
<rscale>  0 0.24244028E+04</rscale>
<asrwt>0</asrwt>
<pdfrwt beam="1">  1        1 0.40685447E+00 0.24244028E+04</pdfrwt>
<pdfrwt beam="2">  1       -1 0.85483785E-01 0.24244028E+04</pdfrwt>
<totfact> 0.12982119E+00</totfact>
</mgrwt>
</event>
<event>
 6    1  0.4630212E-004  0.2521870E+04  0.7818608E-02  0.8395236E-01
         -2   -1    0    0    0  501 -0.00000000000E+00  0.00000000000E+00  0.81576606377E+03  0.81576606377E+03  0.00000000000E+00 0. -1.
          2   -1    0    0  501    0  0.00000000000E+00 -0.00000000000E+00 -0.19490349838E+04  0.19490349838E+04  0.00000000000E+00 0.  1.
         23    2    1    2    0    0  0.11780237289E+04  0.20623018824E+03 -0.99970701546E+03  0.15614268004E+04  0.91480817366E+02 0.  0.
         11    1    3    3    0    0  0.58173738056E+03  0.12327089688E+03 -0.44396292322E+03  0.74210320789E+03  0.00000000000E+00 0. -1.
        -11    1    3    3    0    0  0.59628634832E+03  0.82959291352E+02 -0.55574409224E+03  0.81932359253E+03  0.00000000000E+00 0.  1.
         22    1    1    2    0    0 -0.11780237289E+04 -0.20623018824E+03 -0.13356190457E+03  0.12033742471E+04  0.00000000000E+00 0. -1.
<mgrwt>
<rscale>  0 0.25218696E+04</rscale>
<asrwt>0</asrwt>
<pdfrwt beam="1">  1        2 0.29985153E+00 0.25218696E+04</pdfrwt>
<pdfrwt beam="2">  1       -2 0.12550247E+00 0.25218696E+04</pdfrwt>
<totfact> 0.30139428E+00</totfact>
</mgrwt>
</event>
<event>
 6    1  0.4630212E-004  0.7714995E+03  0.7818608E-02  0.9602212E-01
         -2   -1    0    0    0  501 -0.00000000000E+00  0.00000000000E+00  0.78404491365E+03  0.78404491365E+03  0.00000000000E+00 0. -1.
          2   -1    0    0  501    0  0.00000000000E+00 -0.00000000000E+00 -0.18978868157E+03  0.18978868157E+03  0.00000000000E+00 0.  1.
         23    2    1    2    0    0 -0.82309442283E+02 -0.19732540611E+03  0.69825856364E+03  0.73607606084E+03  0.92362251234E+02 0.  0.
         13    1    3    3    0    0 -0.46398907591E+02 -0.39201314185E+02  0.10756366817E+03  0.12352952833E+03  0.00000000000E+00 0. -1.
        -13    1    3    3    0    0 -0.35910534692E+02 -0.15812409192E+03  0.59069489547E+03  0.61254653251E+03  0.00000000000E+00 0.  1.
         22    1    1    2    0    0  0.82309442283E+02  0.19732540611E+03 -0.10400233156E+03  0.23775753438E+03  0.00000000000E+00 0.  1.
<mgrwt>
<rscale>  0 0.77149945E+03</rscale>
<asrwt>0</asrwt>
<pdfrwt beam="1">  1        2 0.29198259E-01 0.77149945E+03</pdfrwt>
<pdfrwt beam="2">  1       -2 0.12062229E+00 0.77149945E+03</pdfrwt>
<totfact> 0.97014172E+01</totfact>
</mgrwt>
</event>
<event>
 6    1  0.4630212E-004  0.9070691E+03  0.7818608E-02  0.9416788E-01
          2   -1    0    0  501    0  0.00000000000E+00  0.00000000000E+00  0.41679688968E+03  0.41679688968E+03  0.00000000000E+00 0.  1.
         -2   -1    0    0    0  501 -0.00000000000E+00 -0.00000000000E+00 -0.49351041165E+03  0.49351041165E+03  0.00000000000E+00 0. -1.
         23    2    1    2    0    0  0.33843393477E+03 -0.22580389556E+03  0.15197684008E+03  0.44359088943E+03  0.90282832296E+02 0.  0.
         13    1    3    3    0    0  0.19735131690E+03 -0.94312774681E+02  0.45929284580E+02  0.22349930857E+03  0.00000000000E+00 0.  1.
        -13    1    3    3    0    0  0.14108261787E+03 -0.13149112088E+03  0.10604755550E+03  0.22009158085E+03  0.00000000000E+00 0. -1.
         22    1    1    2    0    0 -0.33843393477E+03  0.22580389556E+03 -0.22869036205E+03  0.46671641191E+03  0.00000000000E+00 0. -1.
<mgrwt>
<rscale>  0 0.90706914E+03</rscale>
<asrwt>0</asrwt>
<pdfrwt beam="1">  1        2 0.64122598E-01 0.90706914E+03</pdfrwt>
<pdfrwt beam="2">  1       -2 0.75924679E-01 0.90706914E+03</pdfrwt>
<totfact> 0.11837699E+02</totfact>
</mgrwt>
</event>
<event>
 6    1  0.4630212E-004  0.2923420E+04  0.7818608E-02  0.8265943E-01
         -2   -1    0    0    0  501 -0.00000000000E+00  0.00000000000E+00  0.73046510544E+03  0.73046510544E+03  0.00000000000E+00 0. -1.
          2   -1    0    0  501    0  0.00000000000E+00 -0.00000000000E+00 -0.29249796922E+04  0.29249796922E+04  0.00000000000E+00 0.  1.
         23    2    1    2    0    0  0.13115732875E+04 -0.42898557727E+03 -0.16956168573E+04  0.21880825184E+04  0.91298775985E+02 0.  0.
         13    1    3    3    0    0  0.85426607072E+03 -0.28891185006E+03 -0.11741534031E+04  0.14804988317E+04  0.00000000000E+00 0. -1.
        -13    1    3    3    0    0  0.45730721682E+03 -0.14007372721E+03 -0.52146345423E+03  0.70758368671E+03  0.00000000000E+00 0.  1.
         22    1    1    2    0    0 -0.13115732875E+04  0.42898557727E+03 -0.49889772948E+03  0.14673622793E+04  0.00000000000E+00 0. -1.
<mgrwt>
<rscale>  0 0.29234196E+04</rscale>
<asrwt>0</asrwt>
<pdfrwt beam="1">  1        2 0.44999688E+00 0.29234196E+04</pdfrwt>
<pdfrwt beam="2">  1       -2 0.11237925E+00 0.29234196E+04</pdfrwt>
<totfact> 0.10412858E+00</totfact>
</mgrwt>
</event>
<event>
 6    1  0.4630212E-004  0.3685867E+04  0.7818608E-02  0.8071101E-01
         -2   -1    0    0    0  501 -0.00000000000E+00  0.00000000000E+00  0.27325835083E+04  0.27325835083E+04  0.00000000000E+00 0. -1.
          2   -1    0    0  501    0  0.00000000000E+00 -0.00000000000E+00 -0.12429278371E+04  0.12429278371E+04  0.00000000000E+00 0.  1.
         23    2    1    2    0    0  0.14083039788E+04  0.11849822337E+04  0.67102440379E+03  0.19611478870E+04  0.91237565610E+02 0.  0.
         11    1    3    3    0    0  0.26176430139E+03  0.24906716424E+03  0.10137596905E+03  0.37527601693E+03  0.00000000000E+00 0.  1.
        -11    1    3    3    0    0  0.11465396774E+04  0.93591506947E+03  0.56964843474E+03  0.15858718701E+04  0.00000000000E+00 0. -1.
         22    1    1    2    0    0 -0.14083039788E+04 -0.11849822337E+04  0.81863126738E+03  0.20143634585E+04  0.00000000000E+00 0. -1.
<mgrwt>
<rscale>  0 0.36858671E+04</rscale>
<asrwt>0</asrwt>
<pdfrwt beam="1">  1        2 0.19121967E+00 0.36858671E+04</pdfrwt>
<pdfrwt beam="2">  1       -2 0.42039746E+00 0.36858671E+04</pdfrwt>
<totfact> 0.78707532E-02</totfact>
</mgrwt>
</event>
<event>
 6    1  0.4630212E-004  0.1188550E+04  0.7818608E-02  0.9122938E-01
          2   -1    0    0  501    0  0.00000000000E+00  0.00000000000E+00  0.11976914934E+04  0.11976914934E+04  0.00000000000E+00 0.  1.
         -2   -1    0    0    0  501 -0.00000000000E+00 -0.00000000000E+00 -0.29486980898E+03  0.29486980898E+03  0.00000000000E+00 0. -1.
         23    2    1    2    0    0 -0.27853337469E+03  0.12086788188E+02  0.11084088098E+04  0.11461612483E+04  0.85956885863E+02 0.  0.
         11    1    3    3    0    0 -0.17895635817E+03  0.36230860584E+02  0.58553334950E+03  0.61334114224E+03  0.00000000000E+00 0. -1.
        -11    1    3    3    0    0 -0.99577016520E+02 -0.24144072396E+02  0.52287546033E+03  0.53282010611E+03  0.00000000000E+00 0.  1.
         22    1    1    2    0    0  0.27853337469E+03 -0.12086788188E+02 -0.20558712545E+03  0.34640005400E+03  0.00000000000E+00 0. -1.
<mgrwt>
<rscale>  0 0.11885505E+04</rscale>
<asrwt>0</asrwt>
<pdfrwt beam="1">  1        2 0.18426023E+00 0.11885505E+04</pdfrwt>
<pdfrwt beam="2">  1       -2 0.45364587E-01 0.11885505E+04</pdfrwt>
<totfact> 0.86421725E+01</totfact>
</mgrwt>
</event>
<event>
 6    1  0.4630212E-004  0.1511823E+04  0.7818608E-02  0.8876629E-01
          2   -1    0    0  501    0  0.00000000000E+00  0.00000000000E+00  0.80385667546E+03  0.80385667546E+03  0.00000000000E+00 0.  1.
         -2   -1    0    0    0  501 -0.00000000000E+00 -0.00000000000E+00 -0.71082554667E+03  0.71082554667E+03  0.00000000000E+00 0. -1.
         23    2    1    2    0    0  0.50883380465E+03  0.21520313312E+03 -0.46619070573E+03  0.72858217159E+03  0.90961406077E+02 0.  0.
         13    1    3    3    0    0  0.36088827136E+03  0.16486361324E+03 -0.38336583629E+03  0.55171525247E+03  0.00000000000E+00 0.  1.
        -13    1    3    3    0    0  0.14794553329E+03  0.50339519878E+02 -0.82824869445E+02  0.17686691912E+03  0.00000000000E+00 0. -1.
         22    1    1    2    0    0 -0.50883380465E+03 -0.21520313312E+03  0.55922183452E+03  0.78610005054E+03  0.00000000000E+00 0.  1.
<mgrwt>
<rscale>  0 0.15118226E+04</rscale>
<asrwt>0</asrwt>
<pdfrwt beam="1">  1        2 0.12367026E+00 0.15118226E+04</pdfrwt>
<pdfrwt beam="2">  1       -2 0.10935778E+00 0.15118226E+04</pdfrwt>
<totfact> 0.22019933E+01</totfact>
</mgrwt>
</event>
<event>
 6    1  0.4630212E-004  0.2025535E+04  0.7818608E-02  0.8594775E-01
          2   -1    0    0  501    0  0.00000000000E+00  0.00000000000E+00  0.89700404554E+03  0.89700404554E+03  0.00000000000E+00 0.  1.
         -2   -1    0    0    0  501 -0.00000000000E+00 -0.00000000000E+00 -0.11434706592E+04  0.11434706592E+04  0.00000000000E+00 0. -1.
         23    2    1    2    0    0  0.67233124116E+03  0.23155357386E+03 -0.84698635188E+03  0.11097382698E+04  0.92123785228E+02 0.  0.
         13    1    3    3    0    0  0.30773351889E+03  0.72697217587E+02 -0.42698122742E+03  0.53131701710E+03  0.00000000000E+00 0.  1.
        -13    1    3    3    0    0  0.36459772226E+03  0.15885635627E+03 -0.42000512446E+03  0.57842125271E+03  0.00000000000E+00 0. -1.
         22    1    1    2    0    0 -0.67233124116E+03 -0.23155357386E+03  0.60051973819E+03  0.93073643496E+03  0.00000000000E+00 0.  1.
<mgrwt>
<rscale>  0 0.20255348E+04</rscale>
<asrwt>0</asrwt>
<pdfrwt beam="1">  1        2 0.13800062E+00 0.20255348E+04</pdfrwt>
<pdfrwt beam="2">  1       -2 0.17591856E+00 0.20255348E+04</pdfrwt>
<totfact> 0.52854866E+00</totfact>
</mgrwt>
</event>
<event>
 6    1  0.4630212E-004  0.2185632E+04  0.7818608E-02  0.8524432E-01
          2   -1    0    0  501    0  0.00000000000E+00  0.00000000000E+00  0.28403099938E+04  0.28403099938E+04  0.00000000000E+00 0. -1.
         -2   -1    0    0    0  501 -0.00000000000E+00 -0.00000000000E+00 -0.42046365293E+03  0.42046365293E+03  0.00000000000E+00 0.  1.
         23    2    1    2    0    0 -0.14501830258E+03 -0.82116412691E+03  0.22613152776E+04  0.24119668787E+04  0.93255604849E+02 0.  0.
         11    1    3    3    0    0 -0.43609295188E+02 -0.19723306942E+03  0.66684278559E+03  0.69676535146E+03  0.00000000000E+00 0. -1.
        -11    1    3    3    0    0 -0.10140900739E+03 -0.62393105749E+03  0.15944724921E+04  0.17152015273E+04  0.00000000000E+00 0.  1.
         22    1    1    2    0    0  0.14501830258E+03  0.82116412691E+03  0.15853106324E+03  0.84880676801E+03  0.00000000000E+00 0.  1.
<mgrwt>
<rscale>  0 0.21856323E+04</rscale>
<asrwt>0</asrwt>
<pdfrwt beam="1">  1        2 0.43697076E+00 0.21856323E+04</pdfrwt>
<pdfrwt beam="2">  1       -2 0.64686717E-01 0.21856323E+04</pdfrwt>
<totfact> 0.44157206E+00</totfact>
</mgrwt>
</event>
<event>
 6    1  0.4630212E-004  0.3275355E+04  0.7818608E-02  0.8169195E-01
         -2   -1    0    0    0  501 -0.00000000000E+00  0.00000000000E+00  0.70934899010E+03  0.70934899010E+03  0.00000000000E+00 0. -1.
          2   -1    0    0  501    0  0.00000000000E+00 -0.00000000000E+00 -0.37809131578E+04  0.37809131578E+04  0.00000000000E+00 0.  1.
         23    2    1    2    0    0 -0.12671165331E+04 -0.99013195910E+03 -0.19517042038E+04  0.25306622031E+04  0.95688462517E+02 0.  0.
         13    1    3    3    0    0 -0.51092754799E+03 -0.35558116565E+03 -0.70574436281E+03  0.94104199178E+03  0.00000000000E+00 0. -1.
        -13    1    3    3    0    0 -0.75618898516E+03 -0.63455079344E+03 -0.12459598410E+04  0.15896202113E+04  0.00000000000E+00 0.  1.
         22    1    1    2    0    0  0.12671165331E+04  0.99013195910E+03 -0.11198599639E+04  0.19595999448E+04  0.00000000000E+00 0. -1.
<mgrwt>
<rscale>  0 0.32753546E+04</rscale>
<asrwt>0</asrwt>
<pdfrwt beam="1">  1        2 0.58167894E+00 0.32753546E+04</pdfrwt>
<pdfrwt beam="2">  1       -2 0.10913062E+00 0.32753546E+04</pdfrwt>
<totfact> 0.28412339E-01</totfact>
</mgrwt>
</event>
<event>
 6    1  0.4630212E-004  0.4558224E+04  0.7818608E-02  0.7900522E-01
         -2   -1    0    0    0  501 -0.00000000000E+00  0.00000000000E+00  0.23406611332E+04  0.23406611332E+04  0.00000000000E+00 0. -1.
          2   -1    0    0  501    0  0.00000000000E+00 -0.00000000000E+00 -0.22191810040E+04  0.22191810040E+04  0.00000000000E+00 0.  1.
         23    2    1    2    0    0  0.19747588403E+04  0.10402194296E+03  0.11924251974E+04  0.23109721140E+04  0.90670932687E+02 0.  0.
         13    1    3    3    0    0  0.16643750878E+04  0.82316956785E+02  0.10420452849E+04  0.19653953521E+04  0.00000000000E+00 0.  1.
        -13    1    3    3    0    0  0.31038375252E+03  0.21704986171E+02  0.15037991254E+03  0.34557676188E+03  0.00000000000E+00 0. -1.
         22    1    1    2    0    0 -0.19747588403E+04 -0.10402194296E+03 -0.10709450683E+04  0.22488700232E+04  0.00000000000E+00 0.  1.
<mgrwt>
<rscale>  0 0.45582237E+04</rscale>
<asrwt>0</asrwt>
<pdfrwt beam="1">  1        2 0.34141246E+00 0.45582237E+04</pdfrwt>
<pdfrwt beam="2">  1       -2 0.36010171E+00 0.45582237E+04</pdfrwt>
<totfact> 0.51006434E-02</totfact>
</mgrwt>
</event>
<event>
 6    1  0.4630212E-004  0.5232343E+04  0.7818608E-02  0.7793632E-01
          2   -1    0    0  501    0  0.00000000000E+00  0.00000000000E+00  0.38861228579E+04  0.38861228579E+04  0.00000000000E+00 0.  1.
         -2   -1    0    0    0  501 -0.00000000000E+00 -0.00000000000E+00 -0.17612294065E+04  0.17612294065E+04  0.00000000000E+00 0. -1.
         23    2    1    2    0    0  0.25857726624E+04 -0.31902675997E+03  0.13093416825E+04  0.29173114180E+04  0.91279419680E+02 0.  0.
         13    1    3    3    0    0  0.11908764864E+04 -0.12732199249E+03  0.55586087236E+03  0.13203707831E+04  0.00000000000E+00 0. -1.
        -13    1    3    3    0    0  0.13948961761E+04 -0.19170476748E+03  0.75348081016E+03  0.15969406348E+04  0.00000000000E+00 0.  1.
         22    1    1    2    0    0 -0.25857726624E+04  0.31902675997E+03  0.81555176889E+03  0.27300408464E+04  0.00000000000E+00 0.  1.
<mgrwt>
<rscale>  0 0.52323432E+04</rscale>
<asrwt>0</asrwt>
<pdfrwt beam="1">  1        2 0.59786505E+00 0.52323432E+04</pdfrwt>
<pdfrwt beam="2">  1       -2 0.27095837E+00 0.52323432E+04</pdfrwt>
<totfact> 0.14347199E-02</totfact>
</mgrwt>
</event>
<event>
 6    1  0.4630212E-004  0.1538456E+04  0.7818608E-02  0.8859275E-01
          2   -1    0    0  501    0  0.00000000000E+00  0.00000000000E+00  0.11617769256E+04  0.11617769256E+04  0.00000000000E+00 0.  1.
         -2   -1    0    0    0  501 -0.00000000000E+00 -0.00000000000E+00 -0.50931595934E+03  0.50931595934E+03  0.00000000000E+00 0. -1.
         23    2    1    2    0    0 -0.17863651679E+02  0.30295011889E+03 -0.43720572586E+03  0.53995567642E+03  0.91133973847E+02 0.  0.
         13    1    3    3    0    0 -0.51790292839E+02  0.13423525204E+03 -0.21936814534E+03  0.26234275388E+03  0.00000000000E+00 0.  1.
        -13    1    3    3    0    0  0.33926641160E+02  0.16871486685E+03 -0.21783758052E+03  0.27761292255E+03  0.00000000000E+00 0. -1.
         22    1    1    2    0    0  0.17863651679E+02 -0.30295011889E+03  0.10896666921E+04  0.11311372085E+04  0.00000000000E+00 0.  1.
<mgrwt>
<rscale>  0 0.15384558E+04</rscale>
<asrwt>0</asrwt>
<pdfrwt beam="1">  1        2 0.17873491E+00 0.15384558E+04</pdfrwt>
<pdfrwt beam="2">  1       -2 0.78356302E-01 0.15384558E+04</pdfrwt>
<totfact> 0.27869744E+01</totfact>
</mgrwt>
</event>
<event>
 6    1  0.4630212E-004  0.7854716E+04  0.7818608E-02  0.7495185E-01
         -2   -1    0    0    0  501 -0.00000000000E+00  0.00000000000E+00  0.48804761271E+04  0.48804761271E+04  0.00000000000E+00 0. -1.
          2   -1    0    0  501    0  0.00000000000E+00 -0.00000000000E+00 -0.31603758579E+04  0.31603758579E+04  0.00000000000E+00 0.  1.
         23    2    1    2    0    0 -0.25835111781E+04 -0.29382414086E+04  0.12022291864E+04  0.40942099894E+04  0.96994009575E+02 0.  0.
         13    1    3    3    0    0 -0.71674283081E+03 -0.79273360566E+03  0.37100572771E+03  0.11312789687E+04  0.00000000000E+00 0. -1.
        -13    1    3    3    0    0 -0.18667683473E+04 -0.21455078030E+04  0.83122345864E+03  0.29629310207E+04  0.00000000000E+00 0.  1.
         22    1    1    2    0    0  0.25835111781E+04  0.29382414086E+04  0.51787108287E+03  0.39466419956E+04  0.00000000000E+00 0.  1.
<mgrwt>
<rscale>  0 0.78547155E+04</rscale>
<asrwt>0</asrwt>
<pdfrwt beam="1">  1        2 0.48621167E+00 0.78547155E+04</pdfrwt>
<pdfrwt beam="2">  1       -2 0.75084248E+00 0.78547155E+04</pdfrwt>
<totfact> 0.11694003E-04</totfact>
</mgrwt>
</event>
<event>
 6    1  0.4630212E-004  0.2507067E+04  0.7818608E-02  0.8400472E-01
         -1   -1    0    0    0  501 -0.00000000000E+00  0.00000000000E+00  0.62820781740E+03  0.62820781740E+03  0.00000000000E+00 0. -1.
          1   -1    0    0  501    0  0.00000000000E+00 -0.00000000000E+00 -0.25013168274E+04  0.25013168274E+04  0.00000000000E+00 0.  1.
         23    2    1    2    0    0  0.79950866349E+03  0.89998194088E+03 -0.13664318374E+04  0.18234222927E+04  0.92473208963E+02 0.  0.
         13    1    3    3    0    0  0.58198073318E+03  0.71306944643E+03 -0.10296027363E+04  0.13810327309E+04  0.00000000000E+00 0. -1.
        -13    1    3    3    0    0  0.21752793031E+03  0.18691249445E+03 -0.33682910114E+03  0.44238956183E+03  0.00000000000E+00 0.  1.
         22    1    1    2    0    0 -0.79950866349E+03 -0.89998194088E+03 -0.50667717262E+03  0.13061023521E+04  0.00000000000E+00 0. -1.
<mgrwt>
<rscale>  0 0.25070674E+04</rscale>
<asrwt>0</asrwt>
<pdfrwt beam="1">  1        1 0.38481798E+00 0.25070674E+04</pdfrwt>
<pdfrwt beam="2">  1       -1 0.96647355E-01 0.25070674E+04</pdfrwt>
<totfact> 0.12359375E+00</totfact>
</mgrwt>
</event>
<event>
 6    1  0.6514993E-004  0.4854097E+04  0.7818608E-02  0.7851417E-01
          2   -1    0    0  501    0  0.00000000000E+00  0.00000000000E+00  0.32178656910E+04  0.32178656910E+04  0.00000000000E+00 0.  1.
         -2   -1    0    0    0  501 -0.00000000000E+00 -0.00000000000E+00 -0.18305809486E+04  0.18305809486E+04  0.00000000000E+00 0. -1.
         23    2    1    2    0    0 -0.87775272435E+03  0.18034210899E+04 -0.72661543624E+03  0.21344542859E+04  0.71747012824E+02 0.  0.
         13    1    3    3    0    0 -0.62700880054E+03  0.13518007506E+04 -0.52410587874E+03  0.15796177630E+04  0.00000000000E+00 0. -1.
        -13    1    3    3    0    0 -0.25074392381E+03  0.45162033932E+03 -0.20250955750E+03  0.55483652285E+03  0.00000000000E+00 0.  1.
         22    1    1    2    0    0  0.87775272435E+03 -0.18034210899E+04  0.21139001787E+04  0.29139923538E+04  0.00000000000E+00 0.  1.
<mgrwt>
<rscale>  0 0.48540967E+04</rscale>
<asrwt>0</asrwt>
<pdfrwt beam="1">  1        2 0.49505626E+00 0.48540967E+04</pdfrwt>
<pdfrwt beam="2">  1       -2 0.28162784E+00 0.48540967E+04</pdfrwt>
<totfact> 0.38227903E-02</totfact>
</mgrwt>
</event>
<event>
 6    1  0.4630212E-004  0.6226310E+04  0.7818608E-02  0.7662958E-01
         -1   -1    0    0    0  501 -0.00000000000E+00  0.00000000000E+00  0.29595946267E+04  0.29595946267E+04  0.00000000000E+00 0. -1.
          1   -1    0    0  501    0  0.00000000000E+00 -0.00000000000E+00 -0.32746826168E+04  0.32746826168E+04  0.00000000000E+00 0.  1.
         23    2    1    2    0    0  0.29914750516E+04 -0.23991394977E+03 -0.98377025809E+03  0.31596036571E+04  0.93859799082E+02 0.  0.
         11    1    3    3    0    0  0.83492310255E+03 -0.67359075700E+02 -0.31910138070E+03  0.89635903711E+03  0.00000000000E+00 0. -1.
        -11    1    3    3    0    0  0.21565519490E+04 -0.17255487407E+03 -0.66466887739E+03  0.22632446200E+04  0.00000000000E+00 0.  1.
         22    1    1    2    0    0 -0.29914750516E+04  0.23991394977E+03  0.66868226803E+03  0.30746735864E+04  0.00000000000E+00 0. -1.
<mgrwt>
<rscale>  0 0.62263097E+04</rscale>
<asrwt>0</asrwt>
<pdfrwt beam="1">  1        1 0.50379733E+00 0.62263097E+04</pdfrwt>
<pdfrwt beam="2">  1       -1 0.45532225E+00 0.62263097E+04</pdfrwt>
<totfact> 0.73229500E-04</totfact>
</mgrwt>
</event>
<event>
 6    1  0.4630212E-004  0.1400649E+04  0.7818608E-02  0.8953349E-01
          2   -1    0    0  501    0  0.00000000000E+00  0.00000000000E+00  0.59298503879E+03  0.59298503879E+03  0.00000000000E+00 0.  1.
         -2   -1    0    0    0  501 -0.00000000000E+00 -0.00000000000E+00 -0.82709429626E+03  0.82709429626E+03  0.00000000000E+00 0. -1.
         23    2    1    2    0    0  0.38871735608E+03  0.51888691056E+03 -0.37851875938E+03  0.75585127699E+03  0.87692034202E+02 0.  0.
         11    1    3    3    0    0  0.36953458828E+03  0.46868830021E+03 -0.32323505636E+03  0.67875285366E+03  0.00000000000E+00 0.  1.
        -11    1    3    3    0    0  0.19182767805E+02  0.50198610349E+02 -0.55283703018E+02  0.77098423337E+02  0.00000000000E+00 0. -1.
         22    1    1    2    0    0 -0.38871735608E+03 -0.51888691056E+03  0.14440950190E+03  0.66422805806E+03  0.00000000000E+00 0. -1.
<mgrwt>
<rscale>  0 0.14006492E+04</rscale>
<asrwt>0</asrwt>
<pdfrwt beam="1">  1        2 0.91228468E-01 0.14006492E+04</pdfrwt>
<pdfrwt beam="2">  1       -2 0.12724528E+00 0.14006492E+04</pdfrwt>
<totfact> 0.22439500E+01</totfact>
</mgrwt>
</event>
<event>
 6    1  0.4641520E-004  0.2900518E+04  0.7818608E-02  0.8272723E-01
          2   -1    0    0  501    0  0.00000000000E+00  0.00000000000E+00  0.10618159502E+04  0.10618159502E+04  0.00000000000E+00 0.  1.
         -2   -1    0    0    0  501 -0.00000000000E+00 -0.00000000000E+00 -0.19808056746E+04  0.19808056746E+04  0.00000000000E+00 0. -1.
         23    2    1    2    0    0 -0.37810529812E+03 -0.28010505084E+03 -0.18973860994E+04  0.19569504395E+04  0.90324726411E+02 0.  0.
         11    1    3    3    0    0 -0.27163375012E+03 -0.16588701920E+03 -0.11376742189E+04  0.11813577044E+04  0.00000000000E+00 0. -1.
        -11    1    3    3    0    0 -0.10647154799E+03 -0.11421803164E+03 -0.75971188054E+03  0.77559273509E+03  0.00000000000E+00 0.  1.
         22    1    1    2    0    0  0.37810529812E+03  0.28010505084E+03  0.97839637500E+03  0.10856711853E+04  0.00000000000E+00 0.  1.
<mgrwt>
<rscale>  0 0.29005179E+04</rscale>
<asrwt>0</asrwt>
<pdfrwt beam="1">  1        2 0.16335630E+00 0.29005179E+04</pdfrwt>
<pdfrwt beam="2">  1       -2 0.30473933E+00 0.29005179E+04</pdfrwt>
<totfact> 0.59033673E-01</totfact>
</mgrwt>
</event>
<event>
 6    1  0.4630212E-004  0.2664301E+04  0.7818608E-02  0.8346682E-01
         -2   -1    0    0    0  501 -0.00000000000E+00  0.00000000000E+00  0.16908575588E+04  0.16908575588E+04  0.00000000000E+00 0. -1.
          2   -1    0    0  501    0  0.00000000000E+00 -0.00000000000E+00 -0.10495415498E+04  0.10495415498E+04  0.00000000000E+00 0.  1.
         23    2    1    2    0    0 -0.20657220167E+03  0.13103356844E+04  0.42855087211E+03  0.13969257431E+04  0.89966667269E+02 0.  0.
         13    1    3    3    0    0 -0.86670391869E+02  0.69660154572E+03  0.26721509269E+03  0.75111209289E+03  0.00000000000E+00 0. -1.
        -13    1    3    3    0    0 -0.11990180980E+03  0.61373413871E+03  0.16133577942E+03  0.64581365016E+03  0.00000000000E+00 0.  1.
         22    1    1    2    0    0  0.20657220167E+03 -0.13103356844E+04  0.21276513687E+03  0.13434733655E+04  0.00000000000E+00 0.  1.
<mgrwt>
<rscale>  0 0.26643012E+04</rscale>
<asrwt>0</asrwt>
<pdfrwt beam="1">  1        2 0.16146793E+00 0.26643012E+04</pdfrwt>
<pdfrwt beam="2">  1       -2 0.26013193E+00 0.26643012E+04</pdfrwt>
<totfact> 0.11476972E+00</totfact>
</mgrwt>
</event>
<event>
 6    1  0.4630212E-004  0.1781646E+04  0.7818608E-02  0.8716121E-01
          2   -1    0    0  501    0  0.00000000000E+00  0.00000000000E+00  0.18646338540E+04  0.18646338540E+04  0.00000000000E+00 0.  1.
         -2   -1    0    0    0  501 -0.00000000000E+00 -0.00000000000E+00 -0.42558810343E+03  0.42558810343E+03  0.00000000000E+00 0. -1.
         23    2    1    2    0    0 -0.35023400231E+03 -0.81498802088E+03  0.67378552681E+03  0.11186876896E+04  0.10298485434E+03 0.  0.
         13    1    3    3    0    0 -0.20512499901E+03 -0.54831507890E+03  0.39262267694E+03  0.70489591956E+03  0.00000000000E+00 0.  1.
        -13    1    3    3    0    0 -0.14510900330E+03 -0.26667294199E+03  0.28116284987E+03  0.41379177006E+03  0.00000000000E+00 0. -1.
         22    1    1    2    0    0  0.35023400231E+03  0.81498802088E+03  0.76526022374E+03  0.11715342678E+04  0.00000000000E+00 0.  1.
<mgrwt>
<rscale>  0 0.17816464E+04</rscale>
<asrwt>0</asrwt>
<pdfrwt beam="1">  1        2 0.28686674E+00 0.17816464E+04</pdfrwt>
<pdfrwt beam="2">  1       -2 0.65475094E-01 0.17816464E+04</pdfrwt>
<totfact> 0.16141479E+01</totfact>
</mgrwt>
</event>
<event>
 6    1  0.4630212E-004  0.1157912E+04  0.7818608E-02  0.9150516E-01
         -2   -1    0    0    0  501 -0.00000000000E+00  0.00000000000E+00  0.23636287255E+03  0.23636287255E+03  0.00000000000E+00 0. -1.
          2   -1    0    0  501    0  0.00000000000E+00 -0.00000000000E+00 -0.14181153444E+04  0.14181153444E+04  0.00000000000E+00 0.  1.
         23    2    1    2    0    0  0.13444297269E+03  0.22220766781E+03 -0.13281051406E+04  0.13563670562E+04  0.91745113915E+02 0.  0.
         11    1    3    3    0    0  0.43897760061E+02  0.13626429891E+03 -0.86327211106E+03  0.87506211793E+03  0.00000000000E+00 0. -1.
        -11    1    3    3    0    0  0.90545212633E+02  0.85943368893E+02 -0.46483302956E+03  0.48130493822E+03  0.00000000000E+00 0.  1.
         22    1    1    2    0    0 -0.13444297269E+03 -0.22220766781E+03  0.14635266877E+03  0.29811116080E+03  0.00000000000E+00 0. -1.
<mgrwt>
<rscale>  0 0.11579116E+04</rscale>
<asrwt>0</asrwt>
<pdfrwt beam="1">  1        2 0.21817159E+00 0.11579116E+04</pdfrwt>
<pdfrwt beam="2">  1       -2 0.36363518E-01 0.11579116E+04</pdfrwt>
<totfact> 0.99436096E+01</totfact>
</mgrwt>
</event>
<event>
 6    1  0.4630212E-004  0.7950851E+03  0.7818608E-02  0.9567159E-01
         -2   -1    0    0    0  501 -0.00000000000E+00  0.00000000000E+00  0.30502758434E+03  0.30502758434E+03  0.00000000000E+00 0. -1.
          2   -1    0    0  501    0  0.00000000000E+00 -0.00000000000E+00 -0.51811727717E+03  0.51811727717E+03  0.00000000000E+00 0.  1.
         23    2    1    2    0    0 -0.11827552286E+03 -0.36886410513E+02  0.27594713927E+03  0.31865826135E+03  0.10023251601E+03 0.  0.
         13    1    3    3    0    0 -0.90809450098E+02 -0.68244155964E+02  0.23061293759E+03  0.25707187328E+03  0.00000000000E+00 0.  1.
        -13    1    3    3    0    0 -0.27466072758E+02  0.31357745451E+02  0.45334201684E+02  0.61586388065E+02  0.00000000000E+00 0. -1.
         22    1    1    2    0    0  0.11827552286E+03  0.36886410513E+02 -0.48903683211E+03  0.50448660016E+03  0.00000000000E+00 0.  1.
<mgrwt>
<rscale>  0 0.79508506E+03</rscale>
<asrwt>0</asrwt>
<pdfrwt beam="1">  1        2 0.79710350E-01 0.79508506E+03</pdfrwt>
<pdfrwt beam="2">  1       -2 0.46927321E-01 0.79508506E+03</pdfrwt>
<totfact> 0.25602953E+02</totfact>
</mgrwt>
</event>
<event>
 6    1  0.4630212E-004  0.1939402E+04  0.7818608E-02  0.8635488E-01
          2   -1    0    0  501    0  0.00000000000E+00  0.00000000000E+00  0.96728330635E+03  0.96728330635E+03  0.00000000000E+00 0.  1.
         -2   -1    0    0    0  501 -0.00000000000E+00 -0.00000000000E+00 -0.97212493624E+03  0.97212493624E+03  0.00000000000E+00 0. -1.
         23    2    1    2    0    0  0.55803123451E+03 -0.45404942954E+03  0.64457910007E+03  0.97022971019E+03  0.91124810738E+02 0.  0.
         11    1    3    3    0    0  0.17742411260E+03 -0.17238798257E+03  0.27246653511E+03  0.36801487065E+03  0.00000000000E+00 0. -1.
        -11    1    3    3    0    0  0.38060712191E+03 -0.28166144697E+03  0.37211256496E+03  0.60221483953E+03  0.00000000000E+00 0.  1.
         22    1    1    2    0    0 -0.55803123451E+03  0.45404942954E+03 -0.64942072996E+03  0.96917853239E+03  0.00000000000E+00 0. -1.
<mgrwt>
<rscale>  0 0.19394022E+04</rscale>
<asrwt>0</asrwt>
<pdfrwt beam="1">  1        2 0.14881282E+00 0.19394022E+04</pdfrwt>
<pdfrwt beam="2">  1       -2 0.14955768E+00 0.19394022E+04</pdfrwt>
<totfact> 0.74557948E+00</totfact>
</mgrwt>
</event>
<event>
 6    1  0.4630212E-004  0.5654201E+04  0.7818608E-02  0.7734820E-01
          1   -1    0    0  501    0  0.00000000000E+00  0.00000000000E+00  0.24506170171E+04  0.24506170171E+04  0.00000000000E+00 0.  1.
         -1   -1    0    0    0  501 -0.00000000000E+00 -0.00000000000E+00 -0.32614220691E+04  0.32614220691E+04  0.00000000000E+00 0. -1.
         23    2    1    2    0    0 -0.14481532253E+04  0.11862993526E+04  0.17337973257E+04  0.25530115177E+04  0.85794669790E+02 0.  0.
         13    1    3    3    0    0 -0.11210603762E+04  0.89779489052E+03  0.12847333745E+04  0.19270059357E+04  0.00000000000E+00 0. -1.
        -13    1    3    3    0    0 -0.32709284912E+03  0.28850446211E+03  0.44906395114E+03  0.62600558209E+03  0.00000000000E+00 0.  1.
         22    1    1    2    0    0  0.14481532253E+04 -0.11862993526E+04 -0.25446023777E+04  0.31590275685E+04  0.00000000000E+00 0. -1.
<mgrwt>
<rscale>  0 0.56542007E+04</rscale>
<asrwt>0</asrwt>
<pdfrwt beam="1">  1        1 0.37701800E+00 0.56542007E+04</pdfrwt>
<pdfrwt beam="2">  1       -1 0.50175724E+00 0.56542007E+04</pdfrwt>
<totfact> 0.14729268E-03</totfact>
</mgrwt>
</event>
<event>
 6    1  0.4630212E-004  0.2012522E+04  0.7818608E-02  0.8600788E-01
          2   -1    0    0  501    0  0.00000000000E+00  0.00000000000E+00  0.27610871183E+04  0.27610871183E+04  0.00000000000E+00 0.  1.
         -2   -1    0    0    0  501 -0.00000000000E+00 -0.00000000000E+00 -0.36672561341E+03  0.36672561341E+03  0.00000000000E+00 0. -1.
         23    2    1    2    0    0  0.82927862173E+03 -0.25043836880E+03  0.41034796906E+03  0.96292656395E+03  0.91758938688E+02 0.  0.
         11    1    3    3    0    0  0.26731339042E+03 -0.57011873310E+02  0.16976872918E+03  0.32175802057E+03  0.00000000000E+00 0.  1.
        -11    1    3    3    0    0  0.56196523131E+03 -0.19342649549E+03  0.24057923989E+03  0.64116854338E+03  0.00000000000E+00 0. -1.
         22    1    1    2    0    0 -0.82927862173E+03  0.25043836880E+03  0.19840135358E+04  0.21648861677E+04  0.00000000000E+00 0.  1.
<mgrwt>
<rscale>  0 0.20125222E+04</rscale>
<asrwt>0</asrwt>
<pdfrwt beam="1">  1        2 0.42478262E+00 0.20125222E+04</pdfrwt>
<pdfrwt beam="2">  1       -2 0.56419327E-01 0.20125222E+04</pdfrwt>
<totfact> 0.66873240E+00</totfact>
</mgrwt>
</event>
<event>
 6    1  0.4630212E-004  0.2622401E+04  0.7818608E-02  0.8360632E-01
         -2   -1    0    0    0  501 -0.00000000000E+00  0.00000000000E+00  0.12365702543E+04  0.12365702543E+04  0.00000000000E+00 0. -1.
          2   -1    0    0  501    0  0.00000000000E+00 -0.00000000000E+00 -0.13903350105E+04  0.13903350105E+04  0.00000000000E+00 0.  1.
         23    2    1    2    0    0  0.76198226354E+03  0.10498147324E+04  0.10270085642E+03  0.13045957122E+04  0.93244646989E+02 0.  0.
         13    1    3    3    0    0  0.16790002379E+03  0.21344334797E+03 -0.14970068154E+02  0.27197901339E+03  0.00000000000E+00 0. -1.
        -13    1    3    3    0    0  0.59408223975E+03  0.83637138443E+03  0.11767092458E+03  0.10326166989E+04  0.00000000000E+00 0.  1.
         22    1    1    2    0    0 -0.76198226354E+03 -0.10498147324E+04 -0.25646561255E+03  0.13223095525E+04  0.00000000000E+00 0.  1.
<mgrwt>
<rscale>  0 0.26224011E+04</rscale>
<asrwt>0</asrwt>
<pdfrwt beam="1">  1        2 0.21389769E+00 0.26224011E+04</pdfrwt>
<pdfrwt beam="2">  1       -2 0.19024158E+00 0.26224011E+04</pdfrwt>
<totfact> 0.19985179E+00</totfact>
</mgrwt>
</event>
<event>
 6    1  0.4630212E-004  0.2711128E+04  0.7818608E-02  0.8331403E-01
          2   -1    0    0  501    0  0.00000000000E+00  0.00000000000E+00  0.21909558614E+04  0.21909558614E+04  0.00000000000E+00 0.  1.
         -2   -1    0    0    0  501 -0.00000000000E+00 -0.00000000000E+00 -0.83869966223E+03  0.83869966223E+03  0.00000000000E+00 0. -1.
         23    2    1    2    0    0  0.10866328017E+04  0.39279108658E+03 -0.11196142235E+03  0.11644507288E+04  0.91402714342E+02 0.  0.
         13    1    3    3    0    0  0.48555845212E+03  0.13472667135E+03 -0.72963415835E+02  0.50915807609E+03  0.00000000000E+00 0. -1.
        -13    1    3    3    0    0  0.60107434962E+03  0.25806441523E+03 -0.38998006511E+02  0.65529265271E+03  0.00000000000E+00 0.  1.
         22    1    1    2    0    0 -0.10866328017E+04 -0.39279108658E+03  0.14642176215E+04  0.18652047948E+04  0.00000000000E+00 0. -1.
<mgrwt>
<rscale>  0 0.27111281E+04</rscale>
<asrwt>0</asrwt>
<pdfrwt beam="1">  1        2 0.33707013E+00 0.27111281E+04</pdfrwt>
<pdfrwt beam="2">  1       -2 0.12903072E+00 0.27111281E+04</pdfrwt>
<totfact> 0.20267769E+00</totfact>
</mgrwt>
</event>
<event>
 6    1  0.4630212E-004  0.1319924E+04  0.7818608E-02  0.9013912E-01
          2   -1    0    0  501    0  0.00000000000E+00  0.00000000000E+00  0.16678934543E+04  0.16678934543E+04  0.00000000000E+00 0.  1.
         -2   -1    0    0    0  501 -0.00000000000E+00 -0.00000000000E+00 -0.26113784953E+03  0.26113784953E+03  0.00000000000E+00 0. -1.
         23    2    1    2    0    0 -0.28198251486E+03  0.17252616784E+03  0.15360557144E+04  0.15740694247E+04  0.94593755960E+02 0.  0.
         13    1    3    3    0    0 -0.16918314667E+03  0.11843727839E+03  0.74134668454E+03  0.76957470898E+03  0.00000000000E+00 0. -1.
        -13    1    3    3    0    0 -0.11279936819E+03  0.54088889448E+02  0.79470902989E+03  0.80449471571E+03  0.00000000000E+00 0.  1.
         22    1    1    2    0    0  0.28198251486E+03 -0.17252616784E+03 -0.12930010966E+03  0.35496187912E+03  0.00000000000E+00 0. -1.
<mgrwt>
<rscale>  0 0.13199244E+04</rscale>
<asrwt>0</asrwt>
<pdfrwt beam="1">  1        2 0.25659899E+00 0.13199244E+04</pdfrwt>
<pdfrwt beam="2">  1       -2 0.40175055E-01 0.13199244E+04</pdfrwt>
<totfact> 0.58643399E+01</totfact>
</mgrwt>
</event>
<event>
 6    1  0.4630212E-004  0.3098326E+04  0.7818608E-02  0.8216197E-01
         -2   -1    0    0    0  501 -0.00000000000E+00  0.00000000000E+00  0.97317194174E+03  0.97317194174E+03  0.00000000000E+00 0. -1.
          2   -1    0    0  501    0  0.00000000000E+00 -0.00000000000E+00 -0.24660657521E+04  0.24660657521E+04  0.00000000000E+00 0.  1.
         23    2    1    2    0    0 -0.19626638096E+03 -0.55209494104E+03  0.84324885197E+03  0.10307336239E+04  0.89520170013E+02 0.  0.
         11    1    3    3    0    0 -0.17440603923E+03 -0.36798883054E+03  0.56991034285E+03  0.70045060126E+03  0.00000000000E+00 0.  1.
        -11    1    3    3    0    0 -0.21860341731E+02 -0.18410611050E+03  0.27333850912E+03  0.33028302262E+03  0.00000000000E+00 0. -1.
         22    1    1    2    0    0  0.19626638096E+03  0.55209494104E+03 -0.23361426623E+04  0.24085040700E+04  0.00000000000E+00 0.  1.
<mgrwt>
<rscale>  0 0.30983260E+04</rscale>
<asrwt>0</asrwt>
<pdfrwt beam="1">  1        2 0.37939473E+00 0.30983260E+04</pdfrwt>
<pdfrwt beam="2">  1       -2 0.14971876E+00 0.30983260E+04</pdfrwt>
<totfact> 0.93109313E-01</totfact>
</mgrwt>
</event>
<event>
 6    1  0.4630212E-004  0.2465754E+04  0.7818608E-02  0.8415288E-01
         -2   -1    0    0    0  501 -0.00000000000E+00  0.00000000000E+00  0.48028948432E+03  0.48028948432E+03  0.00000000000E+00 0. -1.
          2   -1    0    0  501    0  0.00000000000E+00 -0.00000000000E+00 -0.31647276526E+04  0.31647276526E+04  0.00000000000E+00 0.  1.
         23    2    1    2    0    0  0.89418102289E+03  0.76518992326E+03 -0.81057561343E+03  0.14322279028E+04  0.95752911231E+02 0.  0.
         11    1    3    3    0    0  0.68593638282E+03  0.62517472040E+03 -0.60541985289E+03  0.11080998829E+04  0.00000000000E+00 0.  1.
        -11    1    3    3    0    0  0.20824464007E+03  0.14001520286E+03 -0.20515576054E+03  0.32412801982E+03  0.00000000000E+00 0. -1.
         22    1    1    2    0    0 -0.89418102289E+03 -0.76518992326E+03 -0.18738625549E+04  0.22127892342E+04  0.00000000000E+00 0.  1.
<mgrwt>
<rscale>  0 0.24657538E+04</rscale>
<asrwt>0</asrwt>
<pdfrwt beam="1">  1        2 0.48688118E+00 0.24657538E+04</pdfrwt>
<pdfrwt beam="2">  1       -2 0.73890689E-01 0.24657538E+04</pdfrwt>
<totfact> 0.20192161E+00</totfact>
</mgrwt>
</event>
<event>
 6    1  0.4630212E-004  0.1763696E+04  0.7818608E-02  0.8725848E-01
         -2   -1    0    0    0  501 -0.00000000000E+00  0.00000000000E+00  0.27646080440E+03  0.27646080440E+03  0.00000000000E+00 0. -1.
          2   -1    0    0  501    0  0.00000000000E+00 -0.00000000000E+00 -0.28128963492E+04  0.28128963492E+04  0.00000000000E+00 0.  1.
         23    2    1    2    0    0 -0.39499701866E+03  0.74613329181E+03 -0.83961308794E+03  0.11941146931E+04  0.90676507314E+02 0.  0.
         11    1    3    3    0    0 -0.21373226616E+03  0.30908922137E+03 -0.36013197879E+03  0.52049271898E+03  0.00000000000E+00 0. -1.
        -11    1    3    3    0    0 -0.18126475250E+03  0.43704407044E+03 -0.47948110915E+03  0.67362197414E+03  0.00000000000E+00 0.  1.
         22    1    1    2    0    0  0.39499701866E+03 -0.74613329181E+03 -0.16968224569E+04  0.18952424605E+04  0.00000000000E+00 0. -1.
<mgrwt>
<rscale>  0 0.17636957E+04</rscale>
<asrwt>0</asrwt>
<pdfrwt beam="1">  1        2 0.43275331E+00 0.17636957E+04</pdfrwt>
<pdfrwt beam="2">  1       -2 0.42532429E-01 0.17636957E+04</pdfrwt>
<totfact> 0.11301152E+01</totfact>
</mgrwt>
</event>
<event>
 6    1  0.4630212E-004  0.2780088E+04  0.7818608E-02  0.8309477E-01
          2   -1    0    0  501    0  0.00000000000E+00  0.00000000000E+00  0.95477507848E+03  0.95477507848E+03  0.00000000000E+00 0.  1.
         -2   -1    0    0    0  501 -0.00000000000E+00 -0.00000000000E+00 -0.20237455305E+04  0.20237455305E+04  0.00000000000E+00 0. -1.
         23    2    1    2    0    0 -0.51806628344E+03 -0.10710641987E+04 -0.13020828545E+04  0.17661210940E+04  0.90513903610E+02 0.  0.
         11    1    3    3    0    0 -0.27165268712E+03 -0.64934421451E+03 -0.73468114487E+03  0.10174475298E+04  0.00000000000E+00 0. -1.
        -11    1    3    3    0    0 -0.24641359632E+03 -0.42171998416E+03 -0.56740170966E+03  0.74867356412E+03  0.00000000000E+00 0.  1.
         22    1    1    2    0    0  0.51806628344E+03  0.10710641987E+04  0.23311240254E+03  0.12123995150E+04  0.00000000000E+00 0.  1.
<mgrwt>
<rscale>  0 0.27800876E+04</rscale>
<asrwt>0</asrwt>
<pdfrwt beam="1">  1        2 0.14688848E+00 0.27800876E+04</pdfrwt>
<pdfrwt beam="2">  1       -2 0.31134546E+00 0.27800876E+04</pdfrwt>
<totfact> 0.63604452E-01</totfact>
</mgrwt>
</event>
<event>
 6    1  0.4630212E-004  0.4125178E+04  0.7818608E-02  0.7979759E-01
          2   -1    0    0  501    0  0.00000000000E+00  0.00000000000E+00  0.28927093238E+04  0.28927093238E+04  0.00000000000E+00 0.  1.
         -2   -1    0    0    0  501 -0.00000000000E+00 -0.00000000000E+00 -0.14706883171E+04  0.14706883171E+04  0.00000000000E+00 0. -1.
         23    2    1    2    0    0 -0.66831135450E+03  0.12206705177E+04  0.23200743160E+04  0.27071439387E+04  0.95952560030E+02 0.  0.
         13    1    3    3    0    0 -0.22737439700E+03  0.44852903632E+03  0.92338919057E+03  0.10514394943E+04  0.00000000000E+00 0. -1.
        -13    1    3    3    0    0 -0.44093695750E+03  0.77214148135E+03  0.13966851255E+04  0.16557044445E+04  0.00000000000E+00 0.  1.
         22    1    1    2    0    0  0.66831135450E+03 -0.12206705177E+04 -0.89805330937E+03  0.16562537021E+04  0.00000000000E+00 0. -1.
<mgrwt>
<rscale>  0 0.41251782E+04</rscale>
<asrwt>0</asrwt>
<pdfrwt beam="1">  1        2 0.44503220E+00 0.41251782E+04</pdfrwt>
<pdfrwt beam="2">  1       -2 0.22625974E+00 0.41251782E+04</pdfrwt>
<totfact> 0.14300621E-01</totfact>
</mgrwt>
</event>
<event>
 6    1  0.4630212E-004  0.2332444E+04  0.7818608E-02  0.8465238E-01
          2   -1    0    0  501    0  0.00000000000E+00  0.00000000000E+00  0.39659188213E+04  0.39659188213E+04  0.00000000000E+00 0.  1.
         -2   -1    0    0    0  501 -0.00000000000E+00 -0.00000000000E+00 -0.34294028709E+03  0.34294028709E+03  0.00000000000E+00 0. -1.
         23    2    1    2    0    0  0.44131200465E+03 -0.32192223541E+03  0.37140380649E+04  0.37550702955E+04  0.89910878695E+02 0.  0.
         13    1    3    3    0    0  0.18530861016E+03 -0.12772580392E+03  0.18358150202E+04  0.18495593935E+04  0.00000000000E+00 0.  1.
        -13    1    3    3    0    0  0.25600339448E+03 -0.19419643150E+03  0.18782230447E+04  0.19055109020E+04  0.00000000000E+00 0. -1.
         22    1    1    2    0    0 -0.44131200465E+03  0.32192223541E+03 -0.91059530672E+02  0.55378881284E+03  0.00000000000E+00 0. -1.
<mgrwt>
<rscale>  0 0.23324436E+04</rscale>
<asrwt>0</asrwt>
<pdfrwt beam="1">  1        2 0.61014132E+00 0.23324436E+04</pdfrwt>
<pdfrwt beam="2">  1       -2 0.52760047E-01 0.23324436E+04</pdfrwt>
<totfact> 0.11225733E+00</totfact>
</mgrwt>
</event>
<event>
 6    1  0.4630212E-004  0.8712162E+03  0.7818608E-02  0.9462295E-01
          2   -1    0    0  501    0  0.00000000000E+00  0.00000000000E+00  0.20725077852E+04  0.20725077852E+04  0.00000000000E+00 0.  1.
         -2   -1    0    0    0  501 -0.00000000000E+00 -0.00000000000E+00 -0.91557884521E+02  0.91557884521E+02  0.00000000000E+00 0. -1.
         23    2    1    2    0    0 -0.34962282337E+03 -0.55395912716E+02  0.39279582440E+03  0.53693992296E+03  0.93333249381E+02 0.  0.
         13    1    3    3    0    0 -0.20263517924E+03 -0.71542145192E+02  0.26747426630E+03  0.34310607330E+03  0.00000000000E+00 0. -1.
        -13    1    3    3    0    0 -0.14698764413E+03  0.16146232476E+02  0.12532155810E+03  0.19383384966E+03  0.00000000000E+00 0.  1.
         22    1    1    2    0    0  0.34962282337E+03  0.55395912716E+02  0.15881540763E+04  0.16271257468E+04  0.00000000000E+00 0.  1.
<mgrwt>
<rscale>  0 0.87121623E+03</rscale>
<asrwt>0</asrwt>
<pdfrwt beam="1">  1        2 0.31884732E+00 0.87121623E+03</pdfrwt>
<pdfrwt beam="2">  1       -2 0.14085830E-01 0.87121623E+03</pdfrwt>
<totfact> 0.24084077E+02</totfact>
</mgrwt>
</event>
<event>
 6    1  0.4630212E-004  0.2909232E+04  0.7818608E-02  0.8270136E-01
          2   -1    0    0  501    0  0.00000000000E+00  0.00000000000E+00  0.11661821525E+04  0.11661821525E+04  0.00000000000E+00 0.  1.
         -2   -1    0    0    0  501 -0.00000000000E+00 -0.00000000000E+00 -0.18143889833E+04  0.18143889833E+04  0.00000000000E+00 0. -1.
         23    2    1    2    0    0 -0.66575841886E+03 -0.12745531565E+04 -0.10961130650E+03  0.14450565121E+04  0.91943806484E+02 0.  0.
         11    1    3    3    0    0 -0.28884902265E+03 -0.65109472345E+03 -0.61262913176E+02  0.71492044405E+03  0.00000000000E+00 0.  1.
        -11    1    3    3    0    0 -0.37690939621E+03 -0.62345843303E+03 -0.48348393322E+02  0.73013606800E+03  0.00000000000E+00 0. -1.
         22    1    1    2    0    0  0.66575841886E+03  0.12745531565E+04 -0.53859552429E+03  0.15355146238E+04  0.00000000000E+00 0.  1.
<mgrwt>
<rscale>  0 0.29092322E+04</rscale>
<asrwt>0</asrwt>
<pdfrwt beam="1">  1        2 0.17941264E+00 0.29092322E+04</pdfrwt>
<pdfrwt beam="2">  1       -2 0.27913677E+00 0.29092322E+04</pdfrwt>
<totfact> 0.72965531E-01</totfact>
</mgrwt>
</event>
<event>
 6    1  0.4630212E-004  0.2779446E+03  0.7818608E-02  0.1096817E+00
          2   -1    0    0  501    0  0.00000000000E+00  0.00000000000E+00  0.11701433985E+04  0.11701433985E+04  0.00000000000E+00 0. -1.
         -2   -1    0    0    0  501 -0.00000000000E+00 -0.00000000000E+00 -0.16505066281E+02  0.16505066281E+02  0.00000000000E+00 0.  1.
         23    2    1    2    0    0 -0.46016801125E+02 -0.88351680747E+01  0.11290737509E+04  0.11337426538E+04  0.91483680802E+02 0.  0.
         11    1    3    3    0    0 -0.62528520122E+02  0.22741410570E+02  0.67410418884E+03  0.67737983805E+03  0.00000000000E+00 0.  1.
        -11    1    3    3    0    0  0.16511718997E+02 -0.31576578644E+02  0.45496956208E+03  0.45636281575E+03  0.00000000000E+00 0. -1.
         22    1    1    2    0    0  0.46016801125E+02  0.88351680747E+01  0.24564581296E+02  0.52905810975E+02  0.00000000000E+00 0.  1.
<mgrwt>
<rscale>  0 0.27794456E+03</rscale>
<asrwt>0</asrwt>
<pdfrwt beam="1">  1        2 0.18002200E+00 0.27794456E+03</pdfrwt>
<pdfrwt beam="2">  1       -2 0.25392419E-02 0.27794456E+03</pdfrwt>
<totfact> 0.11275425E+04</totfact>
</mgrwt>
</event>
<event>
 6    1  0.4630212E-004  0.1242355E+04  0.7818608E-02  0.9076570E-01
         -2   -1    0    0    0  501 -0.00000000000E+00  0.00000000000E+00  0.11684157550E+03  0.11684157550E+03  0.00000000000E+00 0. -1.
          2   -1    0    0  501    0  0.00000000000E+00 -0.00000000000E+00 -0.33024355455E+04  0.33024355455E+04  0.00000000000E+00 0.  1.
         23    2    1    2    0    0 -0.49468649424E+03  0.95550315964E+02 -0.25852995340E+04  0.26355692670E+04  0.92774405887E+02 0.  0.
         11    1    3    3    0    0 -0.17001719861E+03 -0.56397374685E+00 -0.10193323219E+04  0.10334140256E+04  0.00000000000E+00 0. -1.
        -11    1    3    3    0    0 -0.32466929563E+03  0.96114289711E+02 -0.15659672121E+04  0.16021552414E+04  0.00000000000E+00 0.  1.
         22    1    1    2    0    0  0.49468649424E+03 -0.95550315964E+02 -0.60029443600E+03  0.78370785396E+03  0.00000000000E+00 0. -1.
<mgrwt>
<rscale>  0 0.12423555E+04</rscale>
<asrwt>0</asrwt>
<pdfrwt beam="1">  1        2 0.50806696E+00 0.12423555E+04</pdfrwt>
<pdfrwt beam="2">  1       -2 0.17975629E-01 0.12423555E+04</pdfrwt>
<totfact> 0.28661001E+01</totfact>
</mgrwt>
</event>
<event>
 6    1  0.4630212E-004  0.2550367E+04  0.7818608E-02  0.8385259E-01
         -2   -1    0    0    0  501 -0.00000000000E+00  0.00000000000E+00  0.50393496291E+03  0.50393496291E+03  0.00000000000E+00 0. -1.
          2   -1    0    0  501    0  0.00000000000E+00 -0.00000000000E+00 -0.32267906639E+04  0.32267906639E+04  0.00000000000E+00 0.  1.
         23    2    1    2    0    0 -0.89504685095E+03  0.66250896202E+03 -0.22671645876E+04  0.25275293083E+04  0.91335352406E+02 0.  0.
         11    1    3    3    0    0 -0.54070899386E+03  0.43756833539E+03 -0.14865276288E+04  0.16412180401E+04  0.00000000000E+00 0. -1.
        -11    1    3    3    0    0 -0.35433785709E+03  0.22494062663E+03 -0.78063695883E+03  0.88631126811E+03  0.00000000000E+00 0.  1.
         22    1    1    2    0    0  0.89504685095E+03 -0.66250896202E+03 -0.45569111335E+03  0.12031963185E+04  0.00000000000E+00 0. -1.
<mgrwt>
<rscale>  0 0.25503667E+04</rscale>
<asrwt>0</asrwt>
<pdfrwt beam="1">  1        2 0.49642934E+00 0.25503667E+04</pdfrwt>
<pdfrwt beam="2">  1       -2 0.77528455E-01 0.25503667E+04</pdfrwt>
<totfact> 0.16411720E+00</totfact>
</mgrwt>
</event>
<event>
 6    1  0.4630212E-004  0.2064208E+04  0.7818608E-02  0.8577176E-01
          2   -1    0    0  501    0  0.00000000000E+00  0.00000000000E+00  0.16460910880E+04  0.16460910880E+04  0.00000000000E+00 0.  1.
         -2   -1    0    0    0  501 -0.00000000000E+00 -0.00000000000E+00 -0.64713230520E+03  0.64713230520E+03  0.00000000000E+00 0. -1.
         23    2    1    2    0    0  0.75953216260E+03  0.19772081010E+03  0.12408696857E+04  0.14719417668E+04  0.10427062503E+03 0.  0.
         11    1    3    3    0    0  0.15758967371E+03  0.66122946065E+02  0.33966402065E+03  0.38023465936E+03  0.00000000000E+00 0.  1.
        -11    1    3    3    0    0  0.60194248889E+03  0.13159786404E+03  0.90120566506E+03  0.10917071075E+04  0.00000000000E+00 0. -1.
         22    1    1    2    0    0 -0.75953216260E+03 -0.19772081010E+03 -0.24191090296E+03  0.82128162633E+03  0.00000000000E+00 0.  1.
<mgrwt>
<rscale>  0 0.20642081E+04</rscale>
<asrwt>0</asrwt>
<pdfrwt beam="1">  1        2 0.25324478E+00 0.20642081E+04</pdfrwt>
<pdfrwt beam="2">  1       -2 0.99558817E-01 0.20642081E+04</pdfrwt>
<totfact> 0.81082484E+00</totfact>
</mgrwt>
</event>
<event>
 6    1  0.4630212E-004  0.9306640E+03  0.7818608E-02  0.9388041E-01
          2   -1    0    0  501    0  0.00000000000E+00  0.00000000000E+00  0.51516826260E+03  0.51516826260E+03  0.00000000000E+00 0.  1.
         -2   -1    0    0    0  501 -0.00000000000E+00 -0.00000000000E+00 -0.42031681588E+03  0.42031681588E+03  0.00000000000E+00 0. -1.
         23    2    1    2    0    0  0.29195014319E+03 -0.96051213818E+02 -0.29739390345E+03  0.43717078356E+03  0.90633539040E+02 0.  0.
         13    1    3    3    0    0  0.93959604576E+02 -0.74112718412E+02 -0.13281498036E+03  0.17877617663E+03  0.00000000000E+00 0. -1.
        -13    1    3    3    0    0  0.19799053862E+03 -0.21938495406E+02 -0.16457892309E+03  0.25839460692E+03  0.00000000000E+00 0.  1.
         22    1    1    2    0    0 -0.29195014319E+03  0.96051213818E+02  0.39224535018E+03  0.49831429492E+03  0.00000000000E+00 0.  1.
<mgrwt>
<rscale>  0 0.93066403E+03</rscale>
<asrwt>0</asrwt>
<pdfrwt beam="1">  1        2 0.79256655E-01 0.93066403E+03</pdfrwt>
<pdfrwt beam="2">  1       -2 0.64664126E-01 0.93066403E+03</pdfrwt>
<totfact> 0.13162089E+02</totfact>
</mgrwt>
</event>
<event>
 6    1  0.4630212E-004  0.4304233E+04  0.7818608E-02  0.7945836E-01
         -2   -1    0    0    0  501 -0.00000000000E+00  0.00000000000E+00  0.16518071982E+04  0.16518071982E+04  0.00000000000E+00 0. -1.
          2   -1    0    0  501    0  0.00000000000E+00 -0.00000000000E+00 -0.28039627416E+04  0.28039627416E+04  0.00000000000E+00 0.  1.
         23    2    1    2    0    0  0.92552543106E+03  0.75670600271E+03 -0.24276230867E+04  0.27076227058E+04  0.93089031339E+02 0.  0.
         13    1    3    3    0    0  0.40855784920E+03  0.39406977508E+03 -0.11497483638E+04  0.12822370310E+04  0.00000000000E+00 0. -1.
        -13    1    3    3    0    0  0.51696758185E+03  0.36263622763E+03 -0.12778747229E+04  0.14253856747E+04  0.00000000000E+00 0.  1.
         22    1    1    2    0    0 -0.92552543106E+03 -0.75670600271E+03  0.12754675433E+04  0.17481472341E+04  0.00000000000E+00 0. -1.
<mgrwt>
<rscale>  0 0.43042332E+04</rscale>
<asrwt>0</asrwt>
<pdfrwt beam="1">  1        2 0.43137888E+00 0.43042332E+04</pdfrwt>
<pdfrwt beam="2">  1       -2 0.25412418E+00 0.43042332E+04</pdfrwt>
<totfact> 0.10727953E-01</totfact>
</mgrwt>
</event>
<event>
 6    1  0.4630212E-004  0.1848220E+04  0.7818608E-02  0.8681069E-01
         -2   -1    0    0    0  501 -0.00000000000E+00  0.00000000000E+00  0.21959801090E+03  0.21959801090E+03  0.00000000000E+00 0. -1.
          2   -1    0    0  501    0  0.00000000000E+00 -0.00000000000E+00 -0.38888301663E+04  0.38888301663E+04  0.00000000000E+00 0.  1.
         23    2    1    2    0    0 -0.27073709292E+03 -0.88128410749E+03 -0.18407547839E+04  0.20606758119E+04  0.89701592090E+02 0.  0.
         11    1    3    3    0    0 -0.86034006315E+02 -0.26120924811E+03 -0.46192545689E+03  0.53759394460E+03  0.00000000000E+00 0.  1.
        -11    1    3    3    0    0 -0.18470308660E+03 -0.62007485937E+03 -0.13788293270E+04  0.15230818673E+04  0.00000000000E+00 0. -1.
         22    1    1    2    0    0  0.27073709292E+03  0.88128410749E+03 -0.18284773715E+04  0.20477523653E+04  0.00000000000E+00 0. -1.
<mgrwt>
<rscale>  0 0.18482201E+04</rscale>
<asrwt>0</asrwt>
<pdfrwt beam="1">  1        2 0.59828158E+00 0.18482201E+04</pdfrwt>
<pdfrwt beam="2">  1       -2 0.33784308E-01 0.18482201E+04</pdfrwt>
<totfact> 0.32719681E+00</totfact>
</mgrwt>
</event>
<event>
 6    1  0.4630212E-004  0.1518738E+04  0.7818608E-02  0.8872087E-01
          1   -1    0    0  501    0  0.00000000000E+00  0.00000000000E+00  0.13968055944E+04  0.13968055944E+04  0.00000000000E+00 0.  1.
         -1   -1    0    0    0  501 -0.00000000000E+00 -0.00000000000E+00 -0.41282859571E+03  0.41282859571E+03  0.00000000000E+00 0. -1.
         23    2    1    2    0    0  0.15050987871E+03  0.16827999159E+03  0.13542810656E+04  0.13759332780E+04  0.90243015056E+02 0.  0.
         11    1    3    3    0    0  0.48224966482E+02  0.12138436707E+03  0.72722941857E+03  0.73886564354E+03  0.00000000000E+00 0. -1.
        -11    1    3    3    0    0  0.10228491223E+03  0.46895624518E+02  0.62705164703E+03  0.63706763449E+03  0.00000000000E+00 0.  1.
         22    1    1    2    0    0 -0.15050987871E+03 -0.16827999159E+03 -0.37030406692E+03  0.43370091208E+03  0.00000000000E+00 0. -1.
<mgrwt>
<rscale>  0 0.15187380E+04</rscale>
<asrwt>0</asrwt>
<pdfrwt beam="1">  1        1 0.21489317E+00 0.15187380E+04</pdfrwt>
<pdfrwt beam="2">  1       -1 0.63512092E-01 0.15187380E+04</pdfrwt>
<totfact> 0.18753664E+01</totfact>
</mgrwt>
</event>
<event>
 6    1  0.4630212E-004  0.2292544E+04  0.7818608E-02  0.8480867E-01
         -2   -1    0    0    0  501 -0.00000000000E+00  0.00000000000E+00  0.92684743620E+03  0.92684743620E+03  0.00000000000E+00 0. -1.
          2   -1    0    0  501    0  0.00000000000E+00 -0.00000000000E+00 -0.14176443386E+04  0.14176443386E+04  0.00000000000E+00 0.  1.
         23    2    1    2    0    0  0.60343850566E+03 -0.90256416698E+03  0.12439736198E+03  0.10966039239E+04  0.91133728649E+02 0.  0.
         11    1    3    3    0    0  0.29886024322E+03 -0.51601436121E+03  0.43772757093E+02  0.59791664989E+03  0.00000000000E+00 0. -1.
        -11    1    3    3    0    0  0.30457826245E+03 -0.38654980577E+03  0.80624604885E+02  0.49868727396E+03  0.00000000000E+00 0.  1.
         22    1    1    2    0    0 -0.60343850566E+03  0.90256416698E+03 -0.61519426438E+03  0.12478878510E+04  0.00000000000E+00 0. -1.
<mgrwt>
<rscale>  0 0.22925445E+04</rscale>
<asrwt>0</asrwt>
<pdfrwt beam="1">  1        2 0.21809913E+00 0.22925445E+04</pdfrwt>
<pdfrwt beam="2">  1       -2 0.14259191E+00 0.22925445E+04</pdfrwt>
<totfact> 0.43919987E+00</totfact>
</mgrwt>
</event>
<event>
 6    1  0.4630212E-004  0.4270028E+04  0.7818608E-02  0.7952184E-01
         -2   -1    0    0    0  501 -0.00000000000E+00  0.00000000000E+00  0.11325910816E+04  0.11325910816E+04  0.00000000000E+00 0. -1.
          2   -1    0    0  501    0  0.00000000000E+00 -0.00000000000E+00 -0.40246523335E+04  0.40246523335E+04  0.00000000000E+00 0.  1.
         23    2    1    2    0    0 -0.14709460362E+04  0.13316595251E+04 -0.49788808752E+03  0.20477314803E+04  0.91172011803E+02 0.  0.
         13    1    3    3    0    0 -0.88863644999E+03  0.74890379335E+03 -0.27290580370E+03  0.11937374961E+04  0.00000000000E+00 0. -1.
        -13    1    3    3    0    0 -0.58230958619E+03  0.58275573171E+03 -0.22498228381E+03  0.85399398419E+03  0.00000000000E+00 0.  1.
         22    1    1    2    0    0  0.14709460362E+04 -0.13316595251E+04 -0.23941731643E+04  0.31095119348E+04  0.00000000000E+00 0.  1.
<mgrwt>
<rscale>  0 0.42700283E+04</rscale>
<asrwt>0</asrwt>
<pdfrwt beam="1">  1        2 0.61917727E+00 0.42700283E+04</pdfrwt>
<pdfrwt beam="2">  1       -2 0.17424479E+00 0.42700283E+04</pdfrwt>
<totfact> 0.49948128E-02</totfact>
</mgrwt>
</event>
<event>
 6    1  0.4630212E-004  0.2867771E+04  0.7818608E-02  0.8282531E-01
          1   -1    0    0  501    0  0.00000000000E+00  0.00000000000E+00  0.16624180113E+04  0.16624180113E+04  0.00000000000E+00 0.  1.
         -1   -1    0    0    0  501 -0.00000000000E+00 -0.00000000000E+00 -0.12367697078E+04  0.12367697078E+04  0.00000000000E+00 0. -1.
         23    2    1    2    0    0  0.25663244359E+03 -0.98941054435E+03  0.12276162788E+04  0.15999779323E+04  0.89967880276E+02 0.  0.
         11    1    3    3    0    0  0.19276316494E+03 -0.58040940381E+03  0.70595948331E+03  0.93402971359E+03  0.00000000000E+00 0.  1.
        -11    1    3    3    0    0  0.63869278654E+02 -0.40900114054E+03  0.52165679553E+03  0.66594821874E+03  0.00000000000E+00 0. -1.
         22    1    1    2    0    0 -0.25663244359E+03  0.98941054435E+03 -0.80196797538E+03  0.12992097867E+04  0.00000000000E+00 0. -1.
<mgrwt>
<rscale>  0 0.28677714E+04</rscale>
<asrwt>0</asrwt>
<pdfrwt beam="1">  1        1 0.25575662E+00 0.28677714E+04</pdfrwt>
<pdfrwt beam="2">  1       -1 0.19027226E+00 0.28677714E+04</pdfrwt>
<totfact> 0.76568690E-01</totfact>
</mgrwt>
</event>
<event>
 6    1  0.4630212E-004  0.2253330E+04  0.7818608E-02  0.8496553E-01
          2   -1    0    0  501    0  0.00000000000E+00  0.00000000000E+00  0.11149528685E+04  0.11149528685E+04  0.00000000000E+00 0.  1.
         -2   -1    0    0    0  501 -0.00000000000E+00 -0.00000000000E+00 -0.11385000432E+04  0.11385000432E+04  0.00000000000E+00 0. -1.
         23    2    1    2    0    0 -0.11212401017E+04 -0.74090019793E+02 -0.63042254956E+02  0.11290737239E+04  0.90357353407E+02 0.  0.
         13    1    3    3    0    0 -0.31624678536E+03 -0.38972720713E+02 -0.54519796132E+02  0.32326971769E+03  0.00000000000E+00 0. -1.
        -13    1    3    3    0    0 -0.80499331637E+03 -0.35117299080E+02 -0.85224588245E+01  0.80580400619E+03  0.00000000000E+00 0.  1.
         22    1    1    2    0    0  0.11212401017E+04  0.74090019793E+02  0.39495080223E+02  0.11243791879E+04  0.00000000000E+00 0.  1.
<mgrwt>
<rscale>  0 0.22533299E+04</rscale>
<asrwt>0</asrwt>
<pdfrwt beam="1">  1        2 0.17153121E+00 0.22533299E+04</pdfrwt>
<pdfrwt beam="2">  1       -2 0.17515385E+00 0.22533299E+04</pdfrwt>
<totfact> 0.38040528E+00</totfact>
</mgrwt>
</event>
<event>
 6    1  0.4630212E-004  0.2986266E+04  0.7818608E-02  0.8247664E-01
         -2   -1    0    0    0  501 -0.00000000000E+00  0.00000000000E+00  0.21925655753E+04  0.21925655753E+04  0.00000000000E+00 0. -1.
          2   -1    0    0  501    0  0.00000000000E+00 -0.00000000000E+00 -0.10168204434E+04  0.10168204434E+04  0.00000000000E+00 0.  1.
         23    2    1    2    0    0  0.42011576586E+03  0.21978912959E+01 -0.94988123028E+03  0.10426397209E+04  0.91220329987E+02 0.  0.
         13    1    3    3    0    0  0.62579966680E+02 -0.32816157096E+02 -0.15487015929E+03  0.17022901819E+03  0.00000000000E+00 0.  1.
        -13    1    3    3    0    0  0.35753579918E+03  0.35014048392E+02 -0.79501107100E+03  0.87241070276E+03  0.00000000000E+00 0. -1.
         22    1    1    2    0    0 -0.42011576586E+03 -0.21978912959E+01  0.21256263622E+04  0.21667462978E+04  0.00000000000E+00 0. -1.
<mgrwt>
<rscale>  0 0.29862656E+04</rscale>
<asrwt>0</asrwt>
<pdfrwt beam="1">  1        2 0.15643391E+00 0.29862656E+04</pdfrwt>
<pdfrwt beam="2">  1       -2 0.33731778E+00 0.29862656E+04</pdfrwt>
<totfact> 0.39345654E-01</totfact>
</mgrwt>
</event>
<event>
 6    1  0.4630212E-004  0.2850643E+04  0.7818608E-02  0.8287716E-01
          2   -1    0    0  501    0  0.00000000000E+00  0.00000000000E+00  0.15535522947E+04  0.15535522947E+04  0.00000000000E+00 0.  1.
         -2   -1    0    0    0  501 -0.00000000000E+00 -0.00000000000E+00 -0.13076749784E+04  0.13076749784E+04  0.00000000000E+00 0. -1.
         23    2    1    2    0    0 -0.25576667399E+03  0.11676737956E+04  0.89961066506E+03  0.14987860906E+04  0.90452817313E+02 0.  0.
         13    1    3    3    0    0 -0.21961710136E+02  0.21701648628E+03  0.19520657590E+03  0.29271843007E+03  0.00000000000E+00 0.  1.
        -13    1    3    3    0    0 -0.23380496386E+03  0.95065730934E+03  0.70440408916E+03  0.12060676605E+04  0.00000000000E+00 0. -1.
         22    1    1    2    0    0  0.25576667399E+03 -0.11676737956E+04 -0.65373334878E+03  0.13624411825E+04  0.00000000000E+00 0. -1.
<mgrwt>
<rscale>  0 0.28506431E+04</rscale>
<asrwt>0</asrwt>
<pdfrwt beam="1">  1        2 0.23900805E+00 0.28506431E+04</pdfrwt>
<pdfrwt beam="2">  1       -2 0.20118077E+00 0.28506431E+04</pdfrwt>
<totfact> 0.13407707E+00</totfact>
</mgrwt>
</event>
<event>
 6    1  0.4630212E-004  0.1367723E+04  0.7818608E-02  0.8977520E-01
          2   -1    0    0  501    0  0.00000000000E+00  0.00000000000E+00  0.13195432682E+04  0.13195432682E+04  0.00000000000E+00 0.  1.
         -2   -1    0    0    0  501 -0.00000000000E+00 -0.00000000000E+00 -0.35441528657E+03  0.35441528657E+03  0.00000000000E+00 0. -1.
         23    2    1    2    0    0  0.11202959933E+03  0.63016943268E+03  0.76903936627E+03  0.10045447141E+04  0.89578963463E+02 0.  0.
         11    1    3    3    0    0  0.10425403978E+03  0.34651080487E+03  0.40825778641E+03  0.54553924044E+03  0.00000000000E+00 0.  1.
        -11    1    3    3    0    0  0.77755595593E+01  0.28365862782E+03  0.36078157986E+03  0.45900547363E+03  0.00000000000E+00 0. -1.
         22    1    1    2    0    0 -0.11202959933E+03 -0.63016943268E+03  0.19608861534E+03  0.66941384067E+03  0.00000000000E+00 0. -1.
<mgrwt>
<rscale>  0 0.13677226E+04</rscale>
<asrwt>0</asrwt>
<pdfrwt beam="1">  1        2 0.20300665E+00 0.13677226E+04</pdfrwt>
<pdfrwt beam="2">  1       -2 0.54525429E-01 0.13677226E+04</pdfrwt>
<totfact> 0.49722085E+01</totfact>
</mgrwt>
</event>
<event>
 6    1  0.4630212E-004  0.3162149E+04  0.7818608E-02  0.8198886E-01
          2   -1    0    0  501    0  0.00000000000E+00  0.00000000000E+00  0.12687794560E+04  0.12687794560E+04  0.00000000000E+00 0.  1.
         -2   -1    0    0    0  501 -0.00000000000E+00 -0.00000000000E+00 -0.19702370630E+04  0.19702370630E+04  0.00000000000E+00 0. -1.
         23    2    1    2    0    0  0.47701140979E+02  0.59858972329E+03 -0.18477138181E+04  0.19449962884E+04  0.91537713162E+02 0.  0.
         13    1    3    3    0    0  0.67546295199E+02  0.51763115346E+03 -0.16439980470E+04  0.17248866895E+04  0.00000000000E+00 0. -1.
        -13    1    3    3    0    0 -0.19845154221E+02  0.80958569830E+02 -0.20371577109E+03  0.22010959899E+03  0.00000000000E+00 0.  1.
         22    1    1    2    0    0 -0.47701140979E+02 -0.59858972329E+03  0.11462562110E+04  0.12940202305E+04  0.00000000000E+00 0.  1.
<mgrwt>
<rscale>  0 0.31621488E+04</rscale>
<asrwt>0</asrwt>
<pdfrwt beam="1">  1        2 0.19519684E+00 0.31621488E+04</pdfrwt>
<pdfrwt beam="2">  1       -2 0.30311339E+00 0.31621488E+04</pdfrwt>
<totfact> 0.44297358E-01</totfact>
</mgrwt>
</event>
<event>
 6    1  0.4630212E-004  0.3809213E+04  0.7818608E-02  0.8044181E-01
          2   -1    0    0  501    0  0.00000000000E+00  0.00000000000E+00  0.12110600402E+04  0.12110600402E+04  0.00000000000E+00 0.  1.
         -2   -1    0    0    0  501 -0.00000000000E+00 -0.00000000000E+00 -0.29953310184E+04  0.29953310184E+04  0.00000000000E+00 0. -1.
         23    2    1    2    0    0 -0.27914829121E+03  0.78214148526E+03  0.99883073089E+03  0.13020281001E+04  0.89136260340E+02 0.  0.
         11    1    3    3    0    0 -0.21361479606E+03  0.48428935064E+03  0.66327401408E+03  0.84858698670E+03  0.00000000000E+00 0. -1.
        -11    1    3    3    0    0 -0.65533495148E+02  0.29785213462E+03  0.33555671681E+03  0.45344111335E+03  0.00000000000E+00 0.  1.
         22    1    1    2    0    0  0.27914829121E+03 -0.78214148526E+03 -0.27831017092E+04  0.29043629585E+04  0.00000000000E+00 0. -1.
<mgrwt>
<rscale>  0 0.38092129E+04</rscale>
<asrwt>0</asrwt>
<pdfrwt beam="1">  1        2 0.18631693E+00 0.38092129E+04</pdfrwt>
<pdfrwt beam="2">  1       -2 0.46082015E+00 0.38092129E+04</pdfrwt>
<totfact> 0.43999402E-02</totfact>
</mgrwt>
</event>
<event>
 6    1  0.4630212E-004  0.2771218E+04  0.7818608E-02  0.8312260E-01
         -2   -1    0    0    0  501 -0.00000000000E+00  0.00000000000E+00  0.94551930573E+03  0.94551930573E+03  0.00000000000E+00 0. -1.
          2   -1    0    0  501    0  0.00000000000E+00 -0.00000000000E+00 -0.20305380164E+04  0.20305380164E+04  0.00000000000E+00 0.  1.
         23    2    1    2    0    0 -0.89931915167E+03  0.10296772793E+04 -0.77495582624E+03  0.15742195183E+04  0.92737926424E+02 0.  0.
         13    1    3    3    0    0 -0.32583054960E+03  0.39994954231E+03 -0.24521020589E+03  0.57118580910E+03  0.00000000000E+00 0.  1.
        -13    1    3    3    0    0 -0.57348860207E+03  0.62972773698E+03 -0.52974562035E+03  0.10030337092E+04  0.00000000000E+00 0. -1.
         22    1    1    2    0    0  0.89931915167E+03 -0.10296772793E+04 -0.31006288441E+03  0.14018378039E+04  0.00000000000E+00 0.  1.
<mgrwt>
<rscale>  0 0.27712184E+04</rscale>
<asrwt>0</asrwt>
<pdfrwt beam="1">  1        2 0.31239046E+00 0.27712184E+04</pdfrwt>
<pdfrwt beam="2">  1       -2 0.14546451E+00 0.27712184E+04</pdfrwt>
<totfact> 0.18208887E+00</totfact>
</mgrwt>
</event>
<event>
 6    1  0.4630212E-004  0.4079897E+04  0.7818608E-02  0.7988620E-01
         -2   -1    0    0    0  501 -0.00000000000E+00  0.00000000000E+00  0.25244944169E+04  0.25244944169E+04  0.00000000000E+00 0. -1.
          2   -1    0    0  501    0  0.00000000000E+00 -0.00000000000E+00 -0.16484051724E+04  0.16484051724E+04  0.00000000000E+00 0.  1.
         23    2    1    2    0    0  0.44402259162E+03  0.48125968089E+03  0.24132165017E+04  0.25021132034E+04  0.90496719468E+02 0.  0.
         13    1    3    3    0    0  0.56914132990E+02  0.31611013121E+02  0.31279900272E+03  0.31950225475E+03  0.00000000000E+00 0. -1.
        -13    1    3    3    0    0  0.38710845863E+03  0.44964866777E+03  0.21004174990E+04  0.21826109487E+04  0.00000000000E+00 0.  1.
         22    1    1    2    0    0 -0.44402259162E+03 -0.48125968089E+03 -0.15371272572E+04  0.16707863858E+04  0.00000000000E+00 0.  1.
<mgrwt>
<rscale>  0 0.40798969E+04</rscale>
<asrwt>0</asrwt>
<pdfrwt beam="1">  1        2 0.25360079E+00 0.40798969E+04</pdfrwt>
<pdfrwt beam="2">  1       -2 0.38838376E+00 0.40798969E+04</pdfrwt>
<totfact> 0.72542757E-02</totfact>
</mgrwt>
</event>
<event>
 6    1  0.4630212E-004  0.2518156E+04  0.7818608E-02  0.8396546E-01
          2   -1    0    0  501    0  0.00000000000E+00  0.00000000000E+00  0.15836402605E+04  0.15836402605E+04  0.00000000000E+00 0.  1.
         -2   -1    0    0    0  501 -0.00000000000E+00 -0.00000000000E+00 -0.10010341607E+04  0.10010341607E+04  0.00000000000E+00 0. -1.
         23    2    1    2    0    0 -0.11565657069E+04  0.45302646095E+03  0.49258537911E+03  0.13392905691E+04  0.90452551747E+02 0.  0.
         13    1    3    3    0    0 -0.20545791577E+03  0.83100458141E+02  0.12593802986E+03  0.25490984418E+03  0.00000000000E+00 0.  1.
        -13    1    3    3    0    0 -0.95110779114E+03  0.36992600281E+03  0.36664734926E+03  0.10843807249E+04  0.00000000000E+00 0. -1.
         22    1    1    2    0    0  0.11565657069E+04 -0.45302646095E+03  0.90020720728E+02  0.12453838520E+04  0.00000000000E+00 0. -1.
<mgrwt>
<rscale>  0 0.25181565E+04</rscale>
<asrwt>0</asrwt>
<pdfrwt beam="1">  1        2 0.24363696E+00 0.25181565E+04</pdfrwt>
<pdfrwt beam="2">  1       -2 0.15400526E+00 0.25181565E+04</pdfrwt>
<totfact> 0.28334669E+00</totfact>
</mgrwt>
</event>
<event>
 6    1  0.4630212E-004  0.2180849E+04  0.7818608E-02  0.8526442E-01
          2   -1    0    0  501    0  0.00000000000E+00  0.00000000000E+00  0.92342597461E+03  0.92342597461E+03  0.00000000000E+00 0.  1.
         -2   -1    0    0    0  501 -0.00000000000E+00 -0.00000000000E+00 -0.12876236254E+04  0.12876236254E+04  0.00000000000E+00 0. -1.
         23    2    1    2    0    0  0.76132575040E+03  0.69488277631E+03 -0.53730327108E+03  0.11658488887E+04  0.89609459021E+02 0.  0.
         11    1    3    3    0    0  0.44370703173E+03  0.44198905333E+03 -0.36424598551E+03  0.72450354811E+03  0.00000000000E+00 0. -1.
        -11    1    3    3    0    0  0.31761871867E+03  0.25289372298E+03 -0.17305728558E+03  0.44134534060E+03  0.00000000000E+00 0.  1.
         22    1    1    2    0    0 -0.76132575040E+03 -0.69488277631E+03  0.17310562034E+03  0.10452007113E+04  0.00000000000E+00 0.  1.
<mgrwt>
<rscale>  0 0.21808486E+04</rscale>
<asrwt>0</asrwt>
<pdfrwt beam="1">  1        2 0.14206553E+00 0.21808486E+04</pdfrwt>
<pdfrwt beam="2">  1       -2 0.19809594E+00 0.21808486E+04</pdfrwt>
<totfact> 0.35425479E+00</totfact>
</mgrwt>
</event>
<event>
 6    1  0.4630212E-004  0.3081645E+04  0.7818608E-02  0.8220794E-01
         -1   -1    0    0    0  501 -0.00000000000E+00  0.00000000000E+00  0.15992588987E+04  0.15992588987E+04  0.00000000000E+00 0. -1.
          1   -1    0    0  501    0  0.00000000000E+00 -0.00000000000E+00 -0.14845209060E+04  0.14845209060E+04  0.00000000000E+00 0.  1.
         23    2    1    2    0    0  0.82504505192E+03  0.99239778653E+03 -0.78240424247E+03  0.15120238139E+04  0.92232915627E+02 0.  0.
         13    1    3    3    0    0  0.45945216324E+03  0.48055692614E+03 -0.40083272048E+03  0.77633634423E+03  0.00000000000E+00 0. -1.
        -13    1    3    3    0    0  0.36559288869E+03  0.51184086039E+03 -0.38157152199E+03  0.73568746967E+03  0.00000000000E+00 0.  1.
         22    1    1    2    0    0 -0.82504505192E+03 -0.99239778653E+03  0.89714223514E+03  0.15717559908E+04  0.00000000000E+00 0. -1.
<mgrwt>
<rscale>  0 0.30816445E+04</rscale>
<asrwt>0</asrwt>
<pdfrwt beam="1">  1        1 0.22838783E+00 0.30816445E+04</pdfrwt>
<pdfrwt beam="2">  1       -1 0.24603983E+00 0.30816445E+04</pdfrwt>
<totfact> 0.41940809E-01</totfact>
</mgrwt>
</event>
<event>
 6    1  0.4630212E-004  0.1700291E+04  0.7818608E-02  0.8761199E-01
         -1   -1    0    0    0  501 -0.00000000000E+00  0.00000000000E+00  0.16991401114E+04  0.16991401114E+04  0.00000000000E+00 0. -1.
          1   -1    0    0  501    0  0.00000000000E+00 -0.00000000000E+00 -0.42536052764E+03  0.42536052764E+03  0.00000000000E+00 0.  1.
         23    2    1    2    0    0 -0.37114081639E+03  0.30429102337E+03  0.15116124506E+04  0.15888673643E+04  0.95858061961E+02 0.  0.
         11    1    3    3    0    0 -0.17712442707E+03  0.85767969796E+02  0.57729052207E+03  0.60991274309E+03  0.00000000000E+00 0. -1.
        -11    1    3    3    0    0 -0.19401638932E+03  0.21852305357E+03  0.93432192851E+03  0.97895462119E+03  0.00000000000E+00 0.  1.
         22    1    1    2    0    0  0.37114081639E+03 -0.30429102337E+03 -0.23783286681E+03  0.53563327476E+03  0.00000000000E+00 0.  1.
<mgrwt>
<rscale>  0 0.17002907E+04</rscale>
<asrwt>0</asrwt>
<pdfrwt beam="1">  1        1 0.65440082E-01 0.17002907E+04</pdfrwt>
<pdfrwt beam="2">  1       -1 0.26140617E+00 0.17002907E+04</pdfrwt>
<totfact> 0.30904331E+00</totfact>
</mgrwt>
</event>
<event>
 6    1  0.4630212E-004  0.7299930E+03  0.7818608E-02  0.9667272E-01
         -2   -1    0    0    0  501 -0.00000000000E+00  0.00000000000E+00  0.27427522430E+02  0.27427522430E+02  0.00000000000E+00 0. -1.
          2   -1    0    0  501    0  0.00000000000E+00 -0.00000000000E+00 -0.48572547016E+04  0.48572547016E+04  0.00000000000E+00 0.  1.
         23    2    1    2    0    0 -0.81554781122E+02  0.34176961594E+03 -0.29429949075E+04  0.29654131772E+04  0.94861126077E+02 0.  0.
         13    1    3    3    0    0 -0.55675321477E+02  0.19517617879E+03 -0.13076650671E+04  0.13233221112E+04  0.00000000000E+00 0. -1.
        -13    1    3    3    0    0 -0.25879459645E+02  0.14659343715E+03 -0.16353298404E+04  0.16420910660E+04  0.00000000000E+00 0.  1.
         22    1    1    2    0    0  0.81554781122E+02 -0.34176961594E+03 -0.18868322716E+04  0.19192690468E+04  0.00000000000E+00 0. -1.
<mgrwt>
<rscale>  0 0.72999305E+03</rscale>
<asrwt>0</asrwt>
<pdfrwt beam="1">  1        2 0.74726951E+00 0.72999305E+03</pdfrwt>
<pdfrwt beam="2">  1       -2 0.42196213E-02 0.72999305E+03</pdfrwt>
<totfact> 0.16006428E+01</totfact>
</mgrwt>
</event>
<event>
 6    1  0.4630212E-004  0.5497936E+04  0.7818608E-02  0.7755973E-01
         -2   -1    0    0    0  501 -0.00000000000E+00  0.00000000000E+00  0.24012021559E+04  0.24012021559E+04  0.00000000000E+00 0. -1.
          2   -1    0    0  501    0  0.00000000000E+00 -0.00000000000E+00 -0.31471010670E+04  0.31471010670E+04  0.00000000000E+00 0.  1.
         23    2    1    2    0    0  0.52033955846E+03  0.24640032803E+04  0.73726479508E+03  0.26256605829E+04  0.92025523573E+02 0.  0.
         11    1    3    3    0    0  0.23836325318E+03  0.13444804114E+04  0.41067716492E+03  0.14258682796E+04  0.00000000000E+00 0. -1.
        -11    1    3    3    0    0  0.28197630528E+03  0.11195228689E+04  0.32658763016E+03  0.11997923033E+04  0.00000000000E+00 0.  1.
         22    1    1    2    0    0 -0.52033955846E+03 -0.24640032803E+04 -0.14831637062E+04  0.29226426400E+04  0.00000000000E+00 0.  1.
<mgrwt>
<rscale>  0 0.54979363E+04</rscale>
<asrwt>0</asrwt>
<pdfrwt beam="1">  1        2 0.48416939E+00 0.54979363E+04</pdfrwt>
<pdfrwt beam="2">  1       -2 0.36941572E+00 0.54979363E+04</pdfrwt>
<totfact> 0.11498303E-02</totfact>
</mgrwt>
</event>
<event>
 6    1  0.4630212E-004  0.1178688E+04  0.7818608E-02  0.9131718E-01
          2   -1    0    0  501    0  0.00000000000E+00  0.00000000000E+00  0.92786380807E+03  0.92786380807E+03  0.00000000000E+00 0.  1.
         -2   -1    0    0    0  501 -0.00000000000E+00 -0.00000000000E+00 -0.37432887762E+03  0.37432887762E+03  0.00000000000E+00 0. -1.
         23    2    1    2    0    0  0.16638499982E+03  0.56187378111E+03  0.26049146286E+03  0.64701287223E+03  0.85928694482E+02 0.  0.
         11    1    3    3    0    0  0.87264541061E+02  0.18201223595E+03  0.11705624223E+03  0.23333606238E+03  0.00000000000E+00 0. -1.
        -11    1    3    3    0    0  0.79120458764E+02  0.37986154516E+03  0.14343522064E+03  0.41367680985E+03  0.00000000000E+00 0.  1.
         22    1    1    2    0    0 -0.16638499982E+03 -0.56187378111E+03  0.29304346758E+03  0.65517981346E+03  0.00000000000E+00 0. -1.
<mgrwt>
<rscale>  0 0.11786878E+04</rscale>
<asrwt>0</asrwt>
<pdfrwt beam="1">  1        2 0.14274828E+00 0.11786878E+04</pdfrwt>
<pdfrwt beam="2">  1       -2 0.57589059E-01 0.11786878E+04</pdfrwt>
<totfact> 0.78369775E+01</totfact>
</mgrwt>
</event>
<event>
 6    1  0.4630212E-004  0.1373303E+04  0.7818608E-02  0.8973373E-01
          2   -1    0    0  501    0  0.00000000000E+00  0.00000000000E+00  0.78679404195E+03  0.78679404195E+03  0.00000000000E+00 0.  1.
         -2   -1    0    0    0  501 -0.00000000000E+00 -0.00000000000E+00 -0.59925492570E+03  0.59925492570E+03  0.00000000000E+00 0. -1.
         23    2    1    2    0    0 -0.37124837419E+03 -0.54093090876E+03 -0.99475346514E+02  0.66994219822E+03  0.92171584595E+02 0.  0.
         11    1    3    3    0    0 -0.30019761519E+03 -0.42766120814E+03 -0.11596378333E+03  0.53521987646E+03  0.00000000000E+00 0.  1.
        -11    1    3    3    0    0 -0.71050758995E+02 -0.11326970061E+03  0.16488436815E+02  0.13472232176E+03  0.00000000000E+00 0. -1.
         22    1    1    2    0    0  0.37124837419E+03  0.54093090876E+03  0.28701446277E+03  0.71610676943E+03  0.00000000000E+00 0. -1.
<mgrwt>
<rscale>  0 0.13733029E+04</rscale>
<asrwt>0</asrwt>
<pdfrwt beam="1">  1        2 0.12104524E+00 0.13733029E+04</pdfrwt>
<pdfrwt beam="2">  1       -2 0.92193066E-01 0.13733029E+04</pdfrwt>
<totfact> 0.34335617E+01</totfact>
</mgrwt>
</event>
<event>
 6    1  0.4630212E-004  0.2303141E+04  0.7818608E-02  0.8476684E-01
          2   -1    0    0  501    0  0.00000000000E+00  0.00000000000E+00  0.89712099965E+03  0.89712099965E+03  0.00000000000E+00 0.  1.
         -2   -1    0    0    0  501 -0.00000000000E+00 -0.00000000000E+00 -0.14781896884E+04  0.14781896884E+04  0.00000000000E+00 0. -1.
         23    2    1    2    0    0  0.17468160298E+03  0.10016905246E+04  0.26242953834E+03  0.10541797980E+04  0.92348331508E+02 0.  0.
         13    1    3    3    0    0  0.53147431107E+02  0.42200321878E+03  0.15201446246E+03  0.45168546898E+03  0.00000000000E+00 0.  1.
        -13    1    3    3    0    0  0.12153417188E+03  0.57968730585E+03  0.11041507588E+03  0.60249432900E+03  0.00000000000E+00 0. -1.
         22    1    1    2    0    0 -0.17468160298E+03 -0.10016905246E+04 -0.84349822707E+03  0.13211308900E+04  0.00000000000E+00 0. -1.
<mgrwt>
<rscale>  0 0.23031413E+04</rscale>
<asrwt>0</asrwt>
<pdfrwt beam="1">  1        2 0.13801862E+00 0.23031413E+04</pdfrwt>
<pdfrwt beam="2">  1       -2 0.22741380E+00 0.23031413E+04</pdfrwt>
<totfact> 0.23686630E+00</totfact>
</mgrwt>
</event>
<event>
 6    1  0.4630212E-004  0.1271088E+04  0.7818608E-02  0.9052812E-01
         -2   -1    0    0    0  501 -0.00000000000E+00  0.00000000000E+00  0.46484957557E+03  0.46484957557E+03  0.00000000000E+00 0. -1.
          2   -1    0    0  501    0  0.00000000000E+00 -0.00000000000E+00 -0.86891756792E+03  0.86891756792E+03  0.00000000000E+00 0.  1.
         23    2    1    2    0    0  0.53420205826E+03 -0.59531338740E+01  0.15308286843E+03  0.56187054386E+03  0.82806186967E+02 0.  0.
         13    1    3    3    0    0  0.28127746262E+03 -0.33819920979E+02  0.51805668261E+02  0.28800108558E+03  0.00000000000E+00 0.  1.
        -13    1    3    3    0    0  0.25292459564E+03  0.27866787105E+02  0.10127720017E+03  0.27386945828E+03  0.00000000000E+00 0. -1.
         22    1    1    2    0    0 -0.53420205826E+03  0.59531338740E+01 -0.55715086078E+03  0.77189659963E+03  0.00000000000E+00 0.  1.
<mgrwt>
<rscale>  0 0.12710877E+04</rscale>
<asrwt>0</asrwt>
<pdfrwt beam="1">  1        2 0.13367962E+00 0.12710877E+04</pdfrwt>
<pdfrwt beam="2">  1       -2 0.71515321E-01 0.12710877E+04</pdfrwt>
<totfact> 0.53659141E+01</totfact>
</mgrwt>
</event>
<event>
 6    1  0.7231519E-004  0.3069833E+04  0.7818608E-02  0.8224066E-01
         -2   -1    0    0    0  501 -0.00000000000E+00  0.00000000000E+00  0.12773851298E+04  0.12773851298E+04  0.00000000000E+00 0. -1.
          2   -1    0    0  501    0  0.00000000000E+00 -0.00000000000E+00 -0.18443686988E+04  0.18443686988E+04  0.00000000000E+00 0.  1.
         23    2    1    2    0    0  0.10703172349E+04 -0.10979097596E+04 -0.28209952526E+03  0.15622206479E+04  0.99841809362E+02 0.  0.
         13    1    3    3    0    0  0.78093485634E+03 -0.85161733297E+03 -0.18706694471E+03  0.11705150035E+04  0.00000000000E+00 0.  1.
        -13    1    3    3    0    0  0.28938237860E+03 -0.24629242658E+03 -0.95032580553E+02  0.39170564433E+03  0.00000000000E+00 0. -1.
         22    1    1    2    0    0 -0.10703172349E+04  0.10979097596E+04 -0.28488404371E+03  0.15595331808E+04  0.00000000000E+00 0.  1.
<mgrwt>
<rscale>  0 0.30698333E+04</rscale>
<asrwt>0</asrwt>
<pdfrwt beam="1">  1        2 0.28374903E+00 0.30698333E+04</pdfrwt>
<pdfrwt beam="2">  1       -2 0.19652079E+00 0.30698333E+04</pdfrwt>
<totfact> 0.97312936E-01</totfact>
</mgrwt>
</event>
<event>
 6    1  0.4630212E-004  0.1770547E+04  0.7818608E-02  0.8722121E-01
         -2   -1    0    0    0  501 -0.00000000000E+00  0.00000000000E+00  0.61195739819E+03  0.61195739819E+03  0.00000000000E+00 0. -1.
          2   -1    0    0  501    0  0.00000000000E+00 -0.00000000000E+00 -0.12806594314E+04  0.12806594314E+04  0.00000000000E+00 0.  1.
         23    2    1    2    0    0 -0.86671908925E+03  0.12383467056E+03 -0.21460380517E+03  0.90633988774E+03  0.94128601526E+02 0.  0.
         13    1    3    3    0    0 -0.64631591991E+03  0.10641823969E+03 -0.12028306285E+03  0.66597081413E+03  0.00000000000E+00 0. -1.
        -13    1    3    3    0    0 -0.22040316934E+03  0.17416430875E+02 -0.94320742312E+02  0.24036907361E+03  0.00000000000E+00 0.  1.
         22    1    1    2    0    0  0.86671908925E+03 -0.12383467056E+03 -0.45409822802E+03  0.98627694183E+03  0.00000000000E+00 0. -1.
<mgrwt>
<rscale>  0 0.17705468E+04</rscale>
<asrwt>0</asrwt>
<pdfrwt beam="1">  1        2 0.19702453E+00 0.17705468E+04</pdfrwt>
<pdfrwt beam="2">  1       -2 0.94147292E-01 0.17705468E+04</pdfrwt>
<totfact> 0.15285501E+01</totfact>
</mgrwt>
</event>
<event>
 6    1  0.4630212E-004  0.1907131E+04  0.7818608E-02  0.8651315E-01
         -2   -1    0    0    0  501 -0.00000000000E+00  0.00000000000E+00  0.26357281396E+03  0.26357281396E+03  0.00000000000E+00 0. -1.
          2   -1    0    0  501    0  0.00000000000E+00 -0.00000000000E+00 -0.34498508161E+04  0.34498508161E+04  0.00000000000E+00 0.  1.
         23    2    1    2    0    0 -0.88474257961E+03 -0.34879547856E+03 -0.16492704849E+04  0.19059890321E+04  0.90957901986E+02 0.  0.
         13    1    3    3    0    0 -0.20424656907E+03 -0.62553366685E+02 -0.30537177163E+03  0.37266808768E+03  0.00000000000E+00 0. -1.
        -13    1    3    3    0    0 -0.68049601053E+03 -0.28624211188E+03 -0.13438987133E+04  0.15333209444E+04  0.00000000000E+00 0.  1.
         22    1    1    2    0    0  0.88474257961E+03  0.34879547856E+03 -0.15370075172E+04  0.18074345980E+04  0.00000000000E+00 0.  1.
<mgrwt>
<rscale>  0 0.19071307E+04</rscale>
<asrwt>0</asrwt>
<pdfrwt beam="1">  1        2 0.53074626E+00 0.19071307E+04</pdfrwt>
<pdfrwt beam="2">  1       -2 0.40549665E-01 0.19071307E+04</pdfrwt>
<totfact> 0.47784517E+00</totfact>
</mgrwt>
</event>
<event>
 6    1  0.4630212E-004  0.3160465E+04  0.7818608E-02  0.8199337E-01
          2   -1    0    0  501    0  0.00000000000E+00  0.00000000000E+00  0.22666955163E+04  0.22666955163E+04  0.00000000000E+00 0.  1.
         -2   -1    0    0    0  501 -0.00000000000E+00 -0.00000000000E+00 -0.11016629843E+04  0.11016629843E+04  0.00000000000E+00 0. -1.
         23    2    1    2    0    0  0.14871091501E+04  0.17190829138E+03  0.48040358584E+02  0.15005475893E+04  0.91044532139E+02 0.  0.
         11    1    3    3    0    0  0.12021338487E+04  0.11120015238E+03  0.61863423086E+02  0.12088500102E+04  0.00000000000E+00 0. -1.
        -11    1    3    3    0    0  0.28497530136E+03  0.60708138999E+02 -0.13823064502E+02  0.29169757908E+03  0.00000000000E+00 0.  1.
         22    1    1    2    0    0 -0.14871091501E+04 -0.17190829138E+03  0.11169921735E+04  0.18678109113E+04  0.00000000000E+00 0.  1.
<mgrwt>
<rscale>  0 0.31604649E+04</rscale>
<asrwt>0</asrwt>
<pdfrwt beam="1">  1        2 0.34872239E+00 0.31604649E+04</pdfrwt>
<pdfrwt beam="2">  1       -2 0.16948661E+00 0.31604649E+04</pdfrwt>
<totfact> 0.85975524E-01</totfact>
</mgrwt>
</event>
<event>
 6    1  0.4630212E-004  0.2036668E+04  0.7818608E-02  0.8589667E-01
          2   -1    0    0  501    0  0.00000000000E+00  0.00000000000E+00  0.22287294018E+04  0.22287294018E+04  0.00000000000E+00 0.  1.
         -2   -1    0    0    0  501 -0.00000000000E+00 -0.00000000000E+00 -0.46528925738E+03  0.46528925738E+03  0.00000000000E+00 0. -1.
         23    2    1    2    0    0  0.45837191327E+03  0.79116498085E+03  0.14703538859E+04  0.17338382632E+04  0.90596553419E+02 0.  0.
         13    1    3    3    0    0  0.19741495806E+03  0.38312777454E+03  0.76798108042E+03  0.88065572001E+03  0.00000000000E+00 0.  1.
        -13    1    3    3    0    0  0.26095695520E+03  0.40803720631E+03  0.70237280546E+03  0.85318254322E+03  0.00000000000E+00 0. -1.
         22    1    1    2    0    0 -0.45837191327E+03 -0.79116498085E+03  0.29308625852E+03  0.96018039593E+03  0.00000000000E+00 0. -1.
<mgrwt>
<rscale>  0 0.20366677E+04</rscale>
<asrwt>0</asrwt>
<pdfrwt beam="1">  1        2 0.34288144E+00 0.20366677E+04</pdfrwt>
<pdfrwt beam="2">  1       -2 0.71582964E-01 0.20366677E+04</pdfrwt>
<totfact> 0.81567392E+00</totfact>
</mgrwt>
</event>
<event>
 6    1  0.4630212E-004  0.1978557E+04  0.7818608E-02  0.8616712E-01
          2   -1    0    0  501    0  0.00000000000E+00  0.00000000000E+00  0.20197461732E+04  0.20197461732E+04  0.00000000000E+00 0.  1.
         -2   -1    0    0    0  501 -0.00000000000E+00 -0.00000000000E+00 -0.48455214054E+03  0.48455214054E+03  0.00000000000E+00 0. -1.
         23    2    1    2    0    0 -0.91075939381E+03  0.30108216844E+03  0.10646811397E+04  0.14358810133E+04  0.89862168876E+02 0.  0.
         11    1    3    3    0    0 -0.54010206737E+03  0.14020842630E+03  0.65503522669E+03  0.86048811391E+03  0.00000000000E+00 0. -1.
        -11    1    3    3    0    0 -0.37065732645E+03  0.16087374215E+03  0.40964591306E+03  0.57539289937E+03  0.00000000000E+00 0.  1.
         22    1    1    2    0    0  0.91075939381E+03 -0.30108216844E+03  0.47051289296E+03  0.10684173005E+04  0.00000000000E+00 0. -1.
<mgrwt>
<rscale>  0 0.19785574E+04</rscale>
<asrwt>0</asrwt>
<pdfrwt beam="1">  1        2 0.31073018E+00 0.19785574E+04</pdfrwt>
<pdfrwt beam="2">  1       -2 0.74546484E-01 0.19785574E+04</pdfrwt>
<totfact> 0.98111395E+00</totfact>
</mgrwt>
</event>
<event>
 6    1  0.4630212E-004  0.2179407E+04  0.7818608E-02  0.8527048E-01
          2   -1    0    0  501    0  0.00000000000E+00  0.00000000000E+00  0.27668735880E+04  0.27668735880E+04  0.00000000000E+00 0.  1.
         -2   -1    0    0    0  501 -0.00000000000E+00 -0.00000000000E+00 -0.42916822503E+03  0.42916822503E+03  0.00000000000E+00 0. -1.
         23    2    1    2    0    0  0.69388484355E+03 -0.54480895666E+03  0.23648104538E+03  0.91713053608E+03  0.83139401022E+02 0.  0.
         11    1    3    3    0    0  0.35979350463E+03 -0.32822212236E+03  0.10894981880E+03  0.49905028864E+03  0.00000000000E+00 0. -1.
        -11    1    3    3    0    0  0.33409133893E+03 -0.21658683431E+03  0.12753122659E+03  0.41808024744E+03  0.00000000000E+00 0.  1.
         22    1    1    2    0    0 -0.69388484355E+03  0.54480895666E+03  0.21012243176E+04  0.22789112770E+04  0.00000000000E+00 0.  1.
<mgrwt>
<rscale>  0 0.21794075E+04</rscale>
<asrwt>0</asrwt>
<pdfrwt beam="1">  1        2 0.42567285E+00 0.21794075E+04</pdfrwt>
<pdfrwt beam="2">  1       -2 0.66025883E-01 0.21794075E+04</pdfrwt>
<totfact> 0.46824750E+00</totfact>
</mgrwt>
</event>
<event>
 6    1  0.4630212E-004  0.1876409E+04  0.7818608E-02  0.8666689E-01
          2   -1    0    0  501    0  0.00000000000E+00  0.00000000000E+00  0.22509792269E+04  0.22509792269E+04  0.00000000000E+00 0.  1.
         -2   -1    0    0    0  501 -0.00000000000E+00 -0.00000000000E+00 -0.39104223420E+03  0.39104223420E+03  0.00000000000E+00 0. -1.
         23    2    1    2    0    0  0.28298172983E+03  0.67504207752E+03  0.17535210667E+04  0.19023696409E+04  0.91725968997E+02 0.  0.
         13    1    3    3    0    0  0.83922367823E+02  0.18706341185E+03  0.60258725631E+03  0.63651165373E+03  0.00000000000E+00 0.  1.
        -13    1    3    3    0    0  0.19905936201E+03  0.48797866567E+03  0.11509338104E+04  0.12658579872E+04  0.00000000000E+00 0. -1.
         22    1    1    2    0    0 -0.28298172983E+03 -0.67504207752E+03  0.10641592600E+03  0.73965182021E+03  0.00000000000E+00 0. -1.
<mgrwt>
<rscale>  0 0.18764093E+04</rscale>
<asrwt>0</asrwt>
<pdfrwt beam="1">  1        2 0.34630449E+00 0.18764093E+04</pdfrwt>
<pdfrwt beam="2">  1       -2 0.60160345E-01 0.18764093E+04</pdfrwt>
<totfact> 0.11681965E+01</totfact>
</mgrwt>
</event>
<event>
 6    1  0.4630212E-004  0.1394563E+04  0.7818608E-02  0.8957763E-01
          2   -1    0    0  501    0  0.00000000000E+00  0.00000000000E+00  0.24514817019E+04  0.24514817019E+04  0.00000000000E+00 0.  1.
         -2   -1    0    0    0  501 -0.00000000000E+00 -0.00000000000E+00 -0.19832969009E+03  0.19832969009E+03  0.00000000000E+00 0. -1.
         23    2    1    2    0    0  0.17268536406E+03 -0.56309680491E+01  0.24091265167E+04  0.24170454389E+04  0.91466593831E+02 0.  0.
         11    1    3    3    0    0  0.80762456492E+02 -0.46669763911E+02  0.10076406032E+04  0.10119487272E+04  0.00000000000E+00 0. -1.
        -11    1    3    3    0    0  0.91922907568E+02  0.41038795862E+02  0.14014859135E+04  0.14050967118E+04  0.00000000000E+00 0.  1.
         22    1    1    2    0    0 -0.17268536406E+03  0.56309680491E+01 -0.15597450482E+03  0.23276595309E+03  0.00000000000E+00 0. -1.
<mgrwt>
<rscale>  0 0.13945632E+04</rscale>
<asrwt>0</asrwt>
<pdfrwt beam="1">  1        2 0.37715101E+00 0.13945632E+04</pdfrwt>
<pdfrwt beam="2">  1       -2 0.30512262E-01 0.13945632E+04</pdfrwt>
<totfact> 0.36041496E+01</totfact>
</mgrwt>
</event>
<event>
 6    1  0.4630212E-004  0.2351422E+04  0.7818608E-02  0.8457918E-01
         -2   -1    0    0    0  501 -0.00000000000E+00  0.00000000000E+00  0.11140328805E+04  0.11140328805E+04  0.00000000000E+00 0. -1.
          2   -1    0    0  501    0  0.00000000000E+00 -0.00000000000E+00 -0.12408037552E+04  0.12408037552E+04  0.00000000000E+00 0.  1.
         23    2    1    2    0    0  0.61470626848E+03 -0.74548848493E+03 -0.73128606389E+03  0.12150754801E+04  0.89511102244E+02 0.  0.
         13    1    3    3    0    0  0.20177992739E+03 -0.22490126936E+03 -0.18011560375E+03  0.35176320270E+03  0.00000000000E+00 0.  1.
        -13    1    3    3    0    0  0.41292634109E+03 -0.52058721557E+03 -0.55117046014E+03  0.86331227740E+03  0.00000000000E+00 0. -1.
         22    1    1    2    0    0 -0.61470626848E+03  0.74548848493E+03  0.60451518922E+03  0.11397611555E+04  0.00000000000E+00 0. -1.
<mgrwt>
<rscale>  0 0.23514219E+04</rscale>
<asrwt>0</asrwt>
<pdfrwt beam="1">  1        2 0.19089288E+00 0.23514219E+04</pdfrwt>
<pdfrwt beam="2">  1       -2 0.17138967E+00 0.23514219E+04</pdfrwt>
<totfact> 0.33690682E+00</totfact>
</mgrwt>
</event>
<event>
 6    1  0.4630212E-004  0.1773910E+04  0.7818608E-02  0.8720298E-01
          2   -1    0    0  501    0  0.00000000000E+00  0.00000000000E+00  0.11629820811E+04  0.11629820811E+04  0.00000000000E+00 0.  1.
         -2   -1    0    0    0  501 -0.00000000000E+00 -0.00000000000E+00 -0.67644133160E+03  0.67644133160E+03  0.00000000000E+00 0. -1.
         23    2    1    2    0    0  0.70934300832E+03  0.31637027334E+03  0.68292073352E+03  0.10382850030E+04  0.91637142862E+02 0.  0.
         13    1    3    3    0    0  0.51443974064E+03  0.18659839731E+03  0.49806802547E+03  0.73995876008E+03  0.00000000000E+00 0.  1.
        -13    1    3    3    0    0  0.19490326768E+03  0.12977187603E+03  0.18485270805E+03  0.29832624296E+03  0.00000000000E+00 0. -1.
         22    1    1    2    0    0 -0.70934300832E+03 -0.31637027334E+03 -0.19637998403E+03  0.80113840966E+03  0.00000000000E+00 0. -1.
<mgrwt>
<rscale>  0 0.17739100E+04</rscale>
<asrwt>0</asrwt>
<pdfrwt beam="1">  1        2 0.17892032E+00 0.17739100E+04</pdfrwt>
<pdfrwt beam="2">  1       -2 0.10406790E+00 0.17739100E+04</pdfrwt>
<totfact> 0.14167387E+01</totfact>
</mgrwt>
</event>
<event>
 6    1  0.4630212E-004  0.2333405E+04  0.7818608E-02  0.8464865E-01
         -2   -1    0    0    0  501 -0.00000000000E+00  0.00000000000E+00  0.97323043657E+03  0.97323043657E+03  0.00000000000E+00 0. -1.
          2   -1    0    0  501    0  0.00000000000E+00 -0.00000000000E+00 -0.13986359986E+04  0.13986359986E+04  0.00000000000E+00 0.  1.
         23    2    1    2    0    0 -0.41742400498E+02  0.49358257487E+03  0.85868164780E+03  0.99555028376E+03  0.91760607005E+02 0.  0.
         11    1    3    3    0    0 -0.42647162896E+02  0.11432299357E+03  0.25371406429E+03  0.28153037808E+03  0.00000000000E+00 0. -1.
        -11    1    3    3    0    0  0.90476239818E+00  0.37925958130E+03  0.60496758351E+03  0.71401990567E+03  0.00000000000E+00 0.  1.
         22    1    1    2    0    0  0.41742400498E+02 -0.49358257487E+03 -0.12840872099E+04  0.13763161515E+04  0.00000000000E+00 0.  1.
<mgrwt>
<rscale>  0 0.23334053E+04</rscale>
<asrwt>0</asrwt>
<pdfrwt beam="1">  1        2 0.21517477E+00 0.23334053E+04</pdfrwt>
<pdfrwt beam="2">  1       -2 0.14972776E+00 0.23334053E+04</pdfrwt>
<totfact> 0.39467289E+00</totfact>
</mgrwt>
</event>
<event>
 6    1  0.4630212E-004  0.7818433E+04  0.7818608E-02  0.7498455E-01
         -2   -1    0    0    0  501 -0.00000000000E+00  0.00000000000E+00  0.38116263441E+04  0.38116263441E+04  0.00000000000E+00 0. -1.
          2   -1    0    0  501    0  0.00000000000E+00 -0.00000000000E+00 -0.40093056039E+04  0.40093056039E+04  0.00000000000E+00 0.  1.
         23    2    1    2    0    0 -0.26372525320E+04 -0.66767854121E+03  0.27086460132E+04  0.38400247469E+04  0.90173610223E+02 0.  0.
         13    1    3    3    0    0 -0.86034728037E+03 -0.18064909595E+03  0.90598517403E+03  0.12623948171E+04  0.00000000000E+00 0. -1.
        -13    1    3    3    0    0 -0.17769052516E+04 -0.48702944526E+03  0.18026608392E+04  0.25776299298E+04  0.00000000000E+00 0.  1.
         22    1    1    2    0    0  0.26372525320E+04  0.66767854121E+03 -0.29063252730E+04  0.39809072012E+04  0.00000000000E+00 0.  1.
<mgrwt>
<rscale>  0 0.78184333E+04</rscale>
<asrwt>0</asrwt>
<pdfrwt beam="1">  1        2 0.61681625E+00 0.78184333E+04</pdfrwt>
<pdfrwt beam="2">  1       -2 0.58640405E+00 0.78184333E+04</pdfrwt>
<totfact> 0.11697777E-04</totfact>
</mgrwt>
</event>
<event>
 6    1  0.4630212E-004  0.1619974E+04  0.7818608E-02  0.8808370E-01
         -2   -1    0    0    0  501 -0.00000000000E+00  0.00000000000E+00  0.49583499764E+03  0.49583499764E+03  0.00000000000E+00 0. -1.
          2   -1    0    0  501    0  0.00000000000E+00 -0.00000000000E+00 -0.13231796900E+04  0.13231796900E+04  0.00000000000E+00 0.  1.
         23    2    1    2    0    0  0.76330452830E+03 -0.15417699233E+03 -0.65562740394E+03  0.10215868382E+04  0.85953634981E+02 0.  0.
         13    1    3    3    0    0  0.42690031234E+03 -0.70776268189E+02 -0.31158533744E+03  0.53323407555E+03  0.00000000000E+00 0.  1.
        -13    1    3    3    0    0  0.33640421596E+03 -0.83400724143E+02 -0.34404206650E+03  0.48835276269E+03  0.00000000000E+00 0. -1.
         22    1    1    2    0    0 -0.76330452830E+03  0.15417699233E+03 -0.17171728842E+03  0.79742784942E+03  0.00000000000E+00 0.  1.
<mgrwt>
<rscale>  0 0.16199738E+04</rscale>
<asrwt>0</asrwt>
<pdfrwt beam="1">  1        2 0.20356611E+00 0.16199738E+04</pdfrwt>
<pdfrwt beam="2">  1       -2 0.76282308E-01 0.16199738E+04</pdfrwt>
<totfact> 0.23595746E+01</totfact>
</mgrwt>
</event>
<event>
 6    1  0.4630212E-004  0.3544500E+04  0.7818608E-02  0.8103324E-01
          4   -1    0    0  501    0  0.00000000000E+00  0.00000000000E+00  0.23885831475E+04  0.23885831475E+04  0.00000000000E+00 0.  1.
         -4   -1    0    0    0  501 -0.00000000000E+00 -0.00000000000E+00 -0.13149511575E+04  0.13149511575E+04  0.00000000000E+00 0. -1.
         23    2    1    2    0    0 -0.12630658734E+04 -0.98017849580E+03 -0.25839909749E+03  0.16225748863E+04  0.99468004785E+02 0.  0.
         11    1    3    3    0    0 -0.10121974864E+04 -0.79329327316E+03 -0.16802213083E+03  0.12969538948E+04  0.00000000000E+00 0. -1.
        -11    1    3    3    0    0 -0.25086838692E+03 -0.18688522263E+03 -0.90376966663E+02  0.32562099149E+03  0.00000000000E+00 0.  1.
         22    1    1    2    0    0  0.12630658734E+04  0.98017849580E+03  0.13320310875E+04  0.20809594187E+04  0.00000000000E+00 0.  1.
<mgrwt>
<rscale>  0 0.35445001E+04</rscale>
<asrwt>0</asrwt>
<pdfrwt beam="1">  1        4 0.36747433E+00 0.35445001E+04</pdfrwt>
<pdfrwt beam="2">  1       -4 0.20230018E+00 0.35445001E+04</pdfrwt>
<totfact> 0.23286963E-03</totfact>
</mgrwt>
</event>
<event>
 6    1  0.4630212E-004  0.2621703E+04  0.7818608E-02  0.8360866E-01
          2   -1    0    0  501    0  0.00000000000E+00  0.00000000000E+00  0.31105071762E+04  0.31105071762E+04  0.00000000000E+00 0.  1.
         -2   -1    0    0    0  501 -0.00000000000E+00 -0.00000000000E+00 -0.55242814416E+03  0.55242814416E+03  0.00000000000E+00 0. -1.
         23    2    1    2    0    0  0.28662331253E+03 -0.90662411078E+03  0.25380170636E+04  0.27118713456E+04  0.92711265812E+02 0.  0.
         13    1    3    3    0    0  0.17137416803E+03 -0.43042369979E+03  0.11432641061E+04  0.12335665702E+04  0.00000000000E+00 0. -1.
        -13    1    3    3    0    0  0.11524914450E+03 -0.47620041099E+03  0.13947529575E+04  0.14783047755E+04  0.00000000000E+00 0.  1.
         22    1    1    2    0    0 -0.28662331253E+03  0.90662411078E+03  0.20061968522E+02  0.95106397477E+03  0.00000000000E+00 0. -1.
<mgrwt>
<rscale>  0 0.26217030E+04</rscale>
<asrwt>0</asrwt>
<pdfrwt beam="1">  1        2 0.47853955E+00 0.26217030E+04</pdfrwt>
<pdfrwt beam="2">  1       -2 0.84988947E-01 0.26217030E+04</pdfrwt>
<totfact> 0.15768236E+00</totfact>
</mgrwt>
</event>
<event>
 6    1  0.4630212E-004  0.3804585E+04  0.7818608E-02  0.8045172E-01
          2   -1    0    0  501    0  0.00000000000E+00  0.00000000000E+00  0.40487535860E+04  0.40487535860E+04  0.00000000000E+00 0.  1.
         -2   -1    0    0    0  501 -0.00000000000E+00 -0.00000000000E+00 -0.89378549869E+03  0.89378549869E+03  0.00000000000E+00 0. -1.
         23    2    1    2    0    0  0.56354865174E+03 -0.16892347764E+04  0.24429410575E+04  0.30247060096E+04  0.98915224014E+02 0.  0.
         13    1    3    3    0    0  0.15843420252E+03 -0.57638800776E+03  0.76259726542E+03  0.96895774997E+03  0.00000000000E+00 0.  1.
        -13    1    3    3    0    0  0.40511444921E+03 -0.11128467686E+04  0.16803437921E+04  0.20557482597E+04  0.00000000000E+00 0. -1.
         22    1    1    2    0    0 -0.56354865174E+03  0.16892347764E+04  0.71202702977E+03  0.19178330750E+04  0.00000000000E+00 0. -1.
<mgrwt>
<rscale>  0 0.38045853E+04</rscale>
<asrwt>0</asrwt>
<pdfrwt beam="1">  1        2 0.62288516E+00 0.38045853E+04</pdfrwt>
<pdfrwt beam="2">  1       -2 0.13750546E+00 0.38045853E+04</pdfrwt>
<totfact> 0.93811505E-02</totfact>
</mgrwt>
</event>
<event>
 6    1  0.4630212E-004  0.3782764E+04  0.7818608E-02  0.8049864E-01
          2   -1    0    0  501    0  0.00000000000E+00  0.00000000000E+00  0.33180777265E+04  0.33180777265E+04  0.00000000000E+00 0.  1.
         -2   -1    0    0    0  501 -0.00000000000E+00 -0.00000000000E+00 -0.10781317589E+04  0.10781317589E+04  0.00000000000E+00 0. -1.
         23    2    1    2    0    0 -0.10689019000E+04 -0.62261617618E+03  0.27817671055E+04  0.30457383379E+04  0.89953428938E+02 0.  0.
         13    1    3    3    0    0 -0.92315156558E+03 -0.50409394164E+03  0.23251741860E+04  0.25520098962E+04  0.00000000000E+00 0.  1.
        -13    1    3    3    0    0 -0.14575033438E+03 -0.11852223454E+03  0.45659291945E+03  0.49372844170E+03  0.00000000000E+00 0. -1.
         22    1    1    2    0    0  0.10689019000E+04  0.62261617618E+03 -0.54182113789E+03  0.13504711474E+04  0.00000000000E+00 0. -1.
<mgrwt>
<rscale>  0 0.37827635E+04</rscale>
<asrwt>0</asrwt>
<pdfrwt beam="1">  1        2 0.51047349E+00 0.37827635E+04</pdfrwt>
<pdfrwt beam="2">  1       -2 0.16586643E+00 0.37827635E+04</pdfrwt>
<totfact> 0.19822528E-01</totfact>
</mgrwt>
</event>
<event>
 6    1  0.4630212E-004  0.3127590E+04  0.7818608E-02  0.8208207E-01
         -2   -1    0    0    0  501 -0.00000000000E+00  0.00000000000E+00  0.15574118275E+04  0.15574118275E+04  0.00000000000E+00 0. -1.
          2   -1    0    0  501    0  0.00000000000E+00 -0.00000000000E+00 -0.15702040187E+04  0.15702040187E+04  0.00000000000E+00 0.  1.
         23    2    1    2    0    0 -0.14201264974E+03 -0.90399470594E+03  0.12600641749E+04  0.15599623929E+04  0.91361486885E+02 0.  0.
         11    1    3    3    0    0 -0.63243876615E+02 -0.62558814567E+03  0.90384510746E+03  0.11010432754E+04  0.00000000000E+00 0. -1.
        -11    1    3    3    0    0 -0.78768773123E+02 -0.27840656027E+03  0.35621906744E+03  0.45891911752E+03  0.00000000000E+00 0.  1.
         22    1    1    2    0    0  0.14201264974E+03  0.90399470594E+03 -0.12728563661E+04  0.15676534533E+04  0.00000000000E+00 0.  1.
<mgrwt>
<rscale>  0 0.31275897E+04</rscale>
<asrwt>0</asrwt>
<pdfrwt beam="1">  1        2 0.24156985E+00 0.31275897E+04</pdfrwt>
<pdfrwt beam="2">  1       -2 0.23960182E+00 0.31275897E+04</pdfrwt>
<totfact> 0.73138817E-01</totfact>
</mgrwt>
</event>
<event>
 6    1  0.4630212E-004  0.4107214E+04  0.7818608E-02  0.7983261E-01
         -2   -1    0    0    0  501 -0.00000000000E+00  0.00000000000E+00  0.17889999727E+04  0.17889999727E+04  0.00000000000E+00 0. -1.
          2   -1    0    0  501    0  0.00000000000E+00 -0.00000000000E+00 -0.23573516071E+04  0.23573516071E+04  0.00000000000E+00 0.  1.
         23    2    1    2    0    0  0.46811968905E+03  0.17464278984E+04 -0.12651911827E+04  0.22086385453E+04  0.90714096730E+02 0.  0.
         13    1    3    3    0    0  0.28043944872E+03  0.11334117889E+04 -0.86161865111E+03  0.14510876154E+04  0.00000000000E+00 0. -1.
        -13    1    3    3    0    0  0.18768024033E+03  0.61301610957E+03 -0.40357253159E+03  0.75755092994E+03  0.00000000000E+00 0.  1.
         22    1    1    2    0    0 -0.46811968905E+03 -0.17464278984E+04  0.69683954834E+03  0.19377130344E+04  0.00000000000E+00 0. -1.
<mgrwt>
<rscale>  0 0.41072141E+04</rscale>
<asrwt>0</asrwt>
<pdfrwt beam="1">  1        2 0.36266948E+00 0.41072141E+04</pdfrwt>
<pdfrwt beam="2">  1       -2 0.27523077E+00 0.41072141E+04</pdfrwt>
<totfact> 0.14810996E-01</totfact>
</mgrwt>
</event>
<event>
 6    1  0.4630212E-004  0.2437191E+04  0.7818608E-02  0.8425709E-01
         -2   -1    0    0    0  501 -0.00000000000E+00  0.00000000000E+00  0.96864388871E+03  0.96864388871E+03  0.00000000000E+00 0. -1.
          2   -1    0    0  501    0  0.00000000000E+00 -0.00000000000E+00 -0.15330457763E+04  0.15330457763E+04  0.00000000000E+00 0.  1.
         23    2    1    2    0    0 -0.55984380020E+03 -0.55477446220E+03 -0.12343077815E+04  0.14672943386E+04  0.90758977717E+02 0.  0.
         13    1    3    3    0    0 -0.40475327209E+03 -0.44246998020E+03 -0.98079885529E+03  0.11495961418E+04  0.00000000000E+00 0.  1.
        -13    1    3    3    0    0 -0.15509052812E+03 -0.11230448201E+03 -0.25350892621E+03  0.31769819681E+03  0.00000000000E+00 0. -1.
         22    1    1    2    0    0  0.55984380020E+03  0.55477446220E+03  0.66990589394E+03  0.10343953264E+04  0.00000000000E+00 0. -1.
<mgrwt>
<rscale>  0 0.24371914E+04</rscale>
<asrwt>0</asrwt>
<pdfrwt beam="1">  1        2 0.23585320E+00 0.24371914E+04</pdfrwt>
<pdfrwt beam="2">  1       -2 0.14902214E+00 0.24371914E+04</pdfrwt>
<totfact> 0.33240407E+00</totfact>
</mgrwt>
</event>
<event>
 6    1  0.4630212E-004  0.2095396E+04  0.7818608E-02  0.8563274E-01
          2   -1    0    0  501    0  0.00000000000E+00  0.00000000000E+00  0.13959786004E+04  0.13959786004E+04  0.00000000000E+00 0. -1.
         -2   -1    0    0    0  501 -0.00000000000E+00 -0.00000000000E+00 -0.78630951471E+03  0.78630951471E+03  0.00000000000E+00 0.  1.
         23    2    1    2    0    0 -0.10266440917E+04 -0.18139759974E+03  0.40393178901E+03  0.11196352953E+04  0.59322206292E+02 0.  0.
         13    1    3    3    0    0 -0.66949531240E+03 -0.12381632946E+03  0.29329957768E+03  0.74133602302E+03  0.00000000000E+00 0. -1.
        -13    1    3    3    0    0 -0.35714877928E+03 -0.57581270279E+02  0.11063221133E+03  0.37829927229E+03  0.00000000000E+00 0.  1.
         22    1    1    2    0    0  0.10266440917E+04  0.18139759974E+03  0.20573729666E+03  0.10626528198E+04  0.00000000000E+00 0. -1.
<mgrwt>
<rscale>  0 0.20953961E+04</rscale>
<asrwt>0</asrwt>
<pdfrwt beam="1">  1        2 0.21476594E+00 0.20953961E+04</pdfrwt>
<pdfrwt beam="2">  1       -2 0.12097069E+00 0.20953961E+04</pdfrwt>
<totfact> 0.69812734E+00</totfact>
</mgrwt>
</event>
<event>
 6    1  0.4630212E-004  0.8642628E+03  0.7818608E-02  0.9471391E-01
          2   -1    0    0  501    0  0.00000000000E+00  0.00000000000E+00  0.14207819229E+04  0.14207819229E+04  0.00000000000E+00 0.  1.
         -2   -1    0    0    0  501 -0.00000000000E+00 -0.00000000000E+00 -0.13143295128E+03  0.13143295128E+03  0.00000000000E+00 0. -1.
         23    2    1    2    0    0 -0.81339283172E+02 -0.93436949450E+02  0.13864067430E+04  0.13948403099E+04  0.90051599711E+02 0.  0.
         11    1    3    3    0    0 -0.19137551958E+02  0.17513585098E+02  0.24208769364E+03  0.24347365970E+03  0.00000000000E+00 0. -1.
        -11    1    3    3    0    0 -0.62201731213E+02 -0.11095053455E+03  0.11443190493E+04  0.11513666502E+04  0.00000000000E+00 0.  1.
         22    1    1    2    0    0  0.81339283172E+02  0.93436949450E+02 -0.97057771354E+02  0.15737456430E+03  0.00000000000E+00 0. -1.
<mgrwt>
<rscale>  0 0.86426283E+03</rscale>
<asrwt>0</asrwt>
<pdfrwt beam="1">  1        2 0.21858182E+00 0.86426283E+03</pdfrwt>
<pdfrwt beam="2">  1       -2 0.20220455E-01 0.86426283E+03</pdfrwt>
<totfact> 0.29627445E+02</totfact>
</mgrwt>
</event>
<event>
 6    1  0.4630212E-004  0.2640511E+04  0.7818608E-02  0.8354569E-01
         -2   -1    0    0    0  501 -0.00000000000E+00  0.00000000000E+00  0.68140551549E+03  0.68140551549E+03  0.00000000000E+00 0. -1.
          2   -1    0    0  501    0  0.00000000000E+00 -0.00000000000E+00 -0.25580576375E+04  0.25580576375E+04  0.00000000000E+00 0.  1.
         23    2    1    2    0    0  0.12898181912E+03  0.77936761629E+03  0.35592455433E+03  0.87124677631E+03  0.91315200640E+02 0.  0.
         13    1    3    3    0    0  0.13406885005E+02  0.12911501413E+03  0.23717134205E+02  0.13195807627E+03  0.00000000000E+00 0.  1.
        -13    1    3    3    0    0  0.11557493412E+03  0.65025260217E+03  0.33220742013E+03  0.73928870004E+03  0.00000000000E+00 0. -1.
         22    1    1    2    0    0 -0.12898181912E+03 -0.77936761629E+03 -0.22325766763E+04  0.23682163766E+04  0.00000000000E+00 0.  1.
<mgrwt>
<rscale>  0 0.26405110E+04</rscale>
<asrwt>0</asrwt>
<pdfrwt beam="1">  1        2 0.39354733E+00 0.26405110E+04</pdfrwt>
<pdfrwt beam="2">  1       -2 0.10483162E+00 0.26405110E+04</pdfrwt>
<totfact> 0.20945629E+00</totfact>
</mgrwt>
</event>
<event>
 6    1  0.4630212E-004  0.2160937E+04  0.7818608E-02  0.8534865E-01
         -2   -1    0    0    0  501 -0.00000000000E+00  0.00000000000E+00  0.16830137042E+04  0.16830137042E+04  0.00000000000E+00 0. -1.
          2   -1    0    0  501    0  0.00000000000E+00 -0.00000000000E+00 -0.69364379452E+03  0.69364379452E+03  0.00000000000E+00 0.  1.
         23    2    1    2    0    0  0.98574184961E+03  0.13678884113E+03  0.94926933833E+03  0.13806623998E+04  0.12131860740E+03 0.  0.
         11    1    3    3    0    0  0.64985132162E+03  0.11174264334E+03  0.55296775752E+03  0.86056173481E+03  0.00000000000E+00 0.  1.
        -11    1    3    3    0    0  0.33589052799E+03  0.25046197788E+02  0.39630158080E+03  0.52010066503E+03  0.00000000000E+00 0. -1.
         22    1    1    2    0    0 -0.98574184961E+03 -0.13678884113E+03  0.40100571327E+02  0.99599509886E+03  0.00000000000E+00 0.  1.
<mgrwt>
<rscale>  0 0.21609368E+04</rscale>
<asrwt>0</asrwt>
<pdfrwt beam="1">  1        2 0.10671443E+00 0.21609368E+04</pdfrwt>
<pdfrwt beam="2">  1       -2 0.25892518E+00 0.21609368E+04</pdfrwt>
<totfact> 0.21527403E+00</totfact>
</mgrwt>
</event>
<event>
 6    1  0.4630212E-004  0.8228959E+03  0.7818608E-02  0.9527455E-01
         -2   -1    0    0    0  501 -0.00000000000E+00  0.00000000000E+00  0.16354763141E+03  0.16354763141E+03  0.00000000000E+00 0. -1.
          2   -1    0    0  501    0  0.00000000000E+00 -0.00000000000E+00 -0.10351077629E+04  0.10351077629E+04  0.00000000000E+00 0.  1.
         23    2    1    2    0    0  0.68894012094E+02 -0.39602784777E+03 -0.35088927643E+03  0.54086927374E+03  0.88497716633E+02 0.  0.
         11    1    3    3    0    0  0.48258532164E+02 -0.32820471651E+03 -0.24075364803E+03  0.40988966918E+03  0.00000000000E+00 0. -1.
        -11    1    3    3    0    0  0.20635479930E+02 -0.67823131265E+02 -0.11013562840E+03  0.13097960456E+03  0.00000000000E+00 0.  1.
         22    1    1    2    0    0 -0.68894012094E+02  0.39602784777E+03 -0.52067085510E+03  0.65778612061E+03  0.00000000000E+00 0. -1.
<mgrwt>
<rscale>  0 0.82289592E+03</rscale>
<asrwt>0</asrwt>
<pdfrwt beam="1">  1        2 0.15924735E+00 0.82289592E+03</pdfrwt>
<pdfrwt beam="2">  1       -2 0.25161174E-01 0.82289592E+03</pdfrwt>
<totfact> 0.34030327E+02</totfact>
</mgrwt>
</event>
<event>
 6    1  0.4630212E-004  0.1498482E+04  0.7818608E-02  0.8885463E-01
          2   -1    0    0  501    0  0.00000000000E+00  0.00000000000E+00  0.25380781993E+04  0.25380781993E+04  0.00000000000E+00 0.  1.
         -2   -1    0    0    0  501 -0.00000000000E+00 -0.00000000000E+00 -0.22117591772E+03  0.22117591772E+03  0.00000000000E+00 0. -1.
         23    2    1    2    0    0  0.63510450185E+03 -0.30811755338E+03  0.16097962899E+04  0.17601079623E+04  0.90784299787E+02 0.  0.
         13    1    3    3    0    0  0.33649770669E+03 -0.20715522932E+03  0.84130360015E+03  0.92948143783E+03  0.00000000000E+00 0. -1.
        -13    1    3    3    0    0  0.29860679516E+03 -0.10096232406E+03  0.76849268977E+03  0.83062652452E+03  0.00000000000E+00 0.  1.
         22    1    1    2    0    0 -0.63510450185E+03  0.30811755338E+03  0.70710599168E+03  0.99914615470E+03  0.00000000000E+00 0. -1.
<mgrwt>
<rscale>  0 0.14984816E+04</rscale>
<asrwt>0</asrwt>
<pdfrwt beam="1">  1        2 0.39047355E+00 0.14984816E+04</pdfrwt>
<pdfrwt beam="2">  1       -2 0.34027066E-01 0.14984816E+04</pdfrwt>
<totfact> 0.25923947E+01</totfact>
</mgrwt>
</event>
<event>
 6    1  0.4630212E-004  0.7204312E+03  0.7818608E-02  0.9682916E-01
          1   -1    0    0  501    0  0.00000000000E+00  0.00000000000E+00  0.50772860131E+03  0.50772860131E+03  0.00000000000E+00 0. -1.
         -1   -1    0    0    0  501 -0.00000000000E+00 -0.00000000000E+00 -0.25556033812E+03  0.25556033812E+03  0.00000000000E+00 0.  1.
         23    2    1    2    0    0  0.15776715303E+03 -0.25826833196E+03 -0.67220611016E+02  0.32328637258E+03  0.91664945768E+02 0.  0.
         11    1    3    3    0    0  0.13938950625E+03 -0.23948873744E+03 -0.31416154439E+02  0.27887499811E+03  0.00000000000E+00 0. -1.
        -11    1    3    3    0    0  0.18377646781E+02 -0.18779594525E+02 -0.35804456577E+02  0.44411374472E+02  0.00000000000E+00 0.  1.
         22    1    1    2    0    0 -0.15776715303E+03  0.25826833196E+03  0.31938887420E+03  0.44000256685E+03  0.00000000000E+00 0.  1.
<mgrwt>
<rscale>  0 0.72043124E+03</rscale>
<asrwt>0</asrwt>
<pdfrwt beam="1">  1        1 0.78112092E-01 0.72043124E+03</pdfrwt>
<pdfrwt beam="2">  1       -1 0.39316975E-01 0.72043124E+03</pdfrwt>
<totfact> 0.27611928E+02</totfact>
</mgrwt>
</event>
<event>
 6    1  0.4630212E-004  0.3062424E+04  0.7818608E-02  0.8226127E-01
         -2   -1    0    0    0  501 -0.00000000000E+00  0.00000000000E+00  0.93232469521E+03  0.93232469521E+03  0.00000000000E+00 0. -1.
          2   -1    0    0  501    0  0.00000000000E+00 -0.00000000000E+00 -0.25147995069E+04  0.25147995069E+04  0.00000000000E+00 0.  1.
         23    2    1    2    0    0 -0.56522487021E+03 -0.12639109622E+04 -0.15244681028E+04  0.20613699481E+04  0.91065866935E+02 0.  0.
         13    1    3    3    0    0 -0.61110394168E+02 -0.96165674070E+02 -0.15480439143E+03  0.19221528751E+03  0.00000000000E+00 0.  1.
        -13    1    3    3    0    0 -0.50411447604E+03 -0.11677452881E+04 -0.13696637114E+04  0.18691546606E+04  0.00000000000E+00 0. -1.
         22    1    1    2    0    0  0.56522487021E+03  0.12639109622E+04 -0.58006708872E+02  0.13857542540E+04  0.00000000000E+00 0. -1.
<mgrwt>
<rscale>  0 0.30624237E+04</rscale>
<asrwt>0</asrwt>
<pdfrwt beam="1">  1        2 0.38689223E+00 0.30624237E+04</pdfrwt>
<pdfrwt beam="2">  1       -2 0.14343457E+00 0.30624237E+04</pdfrwt>
<totfact> 0.97971733E-01</totfact>
</mgrwt>
</event>
<event>
 6    1  0.4630212E-004  0.1672706E+04  0.7818608E-02  0.8777086E-01
         -2   -1    0    0    0  501 -0.00000000000E+00  0.00000000000E+00  0.57228002055E+03  0.57228002055E+03  0.00000000000E+00 0. -1.
          2   -1    0    0  501    0  0.00000000000E+00 -0.00000000000E+00 -0.12222798736E+04  0.12222798736E+04  0.00000000000E+00 0.  1.
         23    2    1    2    0    0 -0.67895408453E+03  0.39485405554E+03 -0.62647191725E+03  0.10087851568E+04  0.91060723923E+02 0.  0.
         13    1    3    3    0    0 -0.19819253988E+03  0.16458203536E+03 -0.20340349435E+03  0.32823849674E+03  0.00000000000E+00 0.  1.
        -13    1    3    3    0    0 -0.48076154465E+03  0.23027202018E+03 -0.42306842290E+03  0.68054666008E+03  0.00000000000E+00 0. -1.
         22    1    1    2    0    0  0.67895408453E+03 -0.39485405554E+03 -0.23527935822E+02  0.78577473734E+03  0.00000000000E+00 0. -1.
<mgrwt>
<rscale>  0 0.16727060E+04</rscale>
<asrwt>0</asrwt>
<pdfrwt beam="1">  1        2 0.18804306E+00 0.16727060E+04</pdfrwt>
<pdfrwt beam="2">  1       -2 0.88043081E-01 0.16727060E+04</pdfrwt>
<totfact> 0.19476649E+01</totfact>
</mgrwt>
</event>
<event>
 6    1  0.4630212E-004  0.1204481E+04  0.7818608E-02  0.9108943E-01
          2   -1    0    0  501    0  0.00000000000E+00  0.00000000000E+00  0.13676100922E+04  0.13676100922E+04  0.00000000000E+00 0.  1.
         -2   -1    0    0    0  501 -0.00000000000E+00 -0.00000000000E+00 -0.26520250401E+03  0.26520250401E+03  0.00000000000E+00 0. -1.
         23    2    1    2    0    0 -0.42007563114E+03 -0.42639462786E+03  0.53630362718E+03  0.80894998070E+03  0.92209414937E+02 0.  0.
         13    1    3    3    0    0 -0.24124839081E+03 -0.28956619999E+03  0.29254874450E+03  0.47711019498E+03  0.00000000000E+00 0.  1.
        -13    1    3    3    0    0 -0.17882724034E+03 -0.13682842788E+03  0.24375488267E+03  0.33183978572E+03  0.00000000000E+00 0. -1.
         22    1    1    2    0    0  0.42007563114E+03  0.42639462786E+03  0.56610396103E+03  0.82386261552E+03  0.00000000000E+00 0.  1.
<mgrwt>
<rscale>  0 0.12044810E+04</rscale>
<asrwt>0</asrwt>
<pdfrwt beam="1">  1        2 0.21040155E+00 0.12044810E+04</pdfrwt>
<pdfrwt beam="2">  1       -2 0.40800386E-01 0.12044810E+04</pdfrwt>
<totfact> 0.84707680E+01</totfact>
</mgrwt>
</event>
<event>
 6    1  0.4630212E-004  0.3939402E+04  0.7818608E-02  0.8016884E-01
          4   -1    0    0  501    0  0.00000000000E+00  0.00000000000E+00  0.13920542768E+04  0.13920542768E+04  0.00000000000E+00 0.  1.
         -4   -1    0    0    0  501 -0.00000000000E+00 -0.00000000000E+00 -0.27870475430E+04  0.27870475430E+04  0.00000000000E+00 0. -1.
         23    2    1    2    0    0 -0.11117375791E+04  0.78006731959E+03 -0.22096714900E+04  0.25953827550E+04  0.94329651980E+02 0.  0.
         13    1    3    3    0    0 -0.76711280056E+03  0.49684327798E+03 -0.15384878482E+04  0.17894860018E+04  0.00000000000E+00 0.  1.
        -13    1    3    3    0    0 -0.34462477857E+03  0.28322404160E+03 -0.67118364181E+03  0.80589675318E+03  0.00000000000E+00 0. -1.
         22    1    1    2    0    0  0.11117375791E+04 -0.78006731959E+03  0.81467822381E+03  0.15837190648E+04  0.00000000000E+00 0.  1.
<mgrwt>
<rscale>  0 0.39394017E+04</rscale>
<asrwt>0</asrwt>
<pdfrwt beam="1">  1        4 0.21416220E+00 0.39394017E+04</pdfrwt>
<pdfrwt beam="2">  1       -4 0.42877654E+00 0.39394017E+04</pdfrwt>
<totfact> 0.70114135E-04</totfact>
</mgrwt>
</event>
<event>
 6    1  0.4630212E-004  0.3958163E+04  0.7818608E-02  0.8013040E-01
         -2   -1    0    0    0  501 -0.00000000000E+00  0.00000000000E+00  0.19617821823E+04  0.19617821823E+04  0.00000000000E+00 0. -1.
          2   -1    0    0  501    0  0.00000000000E+00 -0.00000000000E+00 -0.19965331414E+04  0.19965331414E+04  0.00000000000E+00 0.  1.
         23    2    1    2    0    0 -0.55053281880E+03 -0.51469161504E+03 -0.18462575745E+04  0.19962882953E+04  0.92228429982E+02 0.  0.
         13    1    3    3    0    0 -0.46027896985E+03 -0.46739933010E+03 -0.16369115712E+04  0.17634620370E+04  0.00000000000E+00 0. -1.
        -13    1    3    3    0    0 -0.90253848947E+02 -0.47292284936E+02 -0.20934600326E+03  0.23282625828E+03  0.00000000000E+00 0.  1.
         22    1    1    2    0    0  0.55053281880E+03  0.51469161504E+03  0.18115066154E+04  0.19620270285E+04  0.00000000000E+00 0. -1.
<mgrwt>
<rscale>  0 0.39581628E+04</rscale>
<asrwt>0</asrwt>
<pdfrwt beam="1">  1        2 0.30715894E+00 0.39581628E+04</pdfrwt>
<pdfrwt beam="2">  1       -2 0.30181265E+00 0.39581628E+04</pdfrwt>
<totfact> 0.16457766E-01</totfact>
</mgrwt>
</event>
<event>
 6    1  0.4630212E-004  0.2041213E+04  0.7818608E-02  0.8587591E-01
          2   -1    0    0  501    0  0.00000000000E+00  0.00000000000E+00  0.19626608025E+04  0.19626608025E+04  0.00000000000E+00 0.  1.
         -2   -1    0    0    0  501 -0.00000000000E+00 -0.00000000000E+00 -0.53072723631E+03  0.53072723631E+03  0.00000000000E+00 0. -1.
         23    2    1    2    0    0 -0.43206736914E+03 -0.19748933170E+03 -0.38311492648E+03  0.61719900827E+03  0.92050645363E+02 0.  0.
         11    1    3    3    0    0 -0.33815137182E+03 -0.19220928727E+03 -0.32277498038E+03  0.50544480246E+03  0.00000000000E+00 0.  1.
        -11    1    3    3    0    0 -0.93915997316E+02 -0.52800444353E+01 -0.60339946100E+02  0.11175420581E+03  0.00000000000E+00 0. -1.
         22    1    1    2    0    0  0.43206736914E+03  0.19748933170E+03  0.18150484927E+04  0.18761890305E+04  0.00000000000E+00 0.  1.
<mgrwt>
<rscale>  0 0.20412129E+04</rscale>
<asrwt>0</asrwt>
<pdfrwt beam="1">  1        2 0.30194781E+00 0.20412129E+04</pdfrwt>
<pdfrwt beam="2">  1       -2 0.81650345E-01 0.20412129E+04</pdfrwt>
<totfact> 0.85659737E+00</totfact>
</mgrwt>
</event>
<event>
 6    1  0.4630212E-004  0.1246521E+04  0.7818608E-02  0.9073084E-01
          2   -1    0    0  501    0  0.00000000000E+00  0.00000000000E+00  0.17729968873E+04  0.17729968873E+04  0.00000000000E+00 0.  1.
         -2   -1    0    0    0  501 -0.00000000000E+00 -0.00000000000E+00 -0.21909436336E+03  0.21909436336E+03  0.00000000000E+00 0. -1.
         23    2    1    2    0    0  0.34154909434E+03  0.15017313766E+03 -0.10551121247E+02  0.38376200480E+03  0.89186294082E+02 0.  0.
         11    1    3    3    0    0  0.24296590621E+03  0.71459078965E+02 -0.33744875419E+02  0.25549471259E+03  0.00000000000E+00 0.  1.
        -11    1    3    3    0    0  0.98583188135E+02  0.78714058694E+02  0.23193754172E+02  0.12826729221E+03  0.00000000000E+00 0. -1.
         22    1    1    2    0    0 -0.34154909434E+03 -0.15017313766E+03  0.15644536452E+04  0.16083292459E+04  0.00000000000E+00 0.  1.
<mgrwt>
<rscale>  0 0.12465210E+04</rscale>
<asrwt>0</asrwt>
<pdfrwt beam="1">  1        2 0.27276874E+00 0.12465210E+04</pdfrwt>
<pdfrwt beam="2">  1       -2 0.33706826E-01 0.12465210E+04</pdfrwt>
<totfact> 0.72333784E+01</totfact>
</mgrwt>
</event>
<event>
 6    1  0.4630212E-004  0.2444932E+04  0.7818608E-02  0.8422871E-01
          2   -1    0    0  501    0  0.00000000000E+00  0.00000000000E+00  0.33674474336E+04  0.33674474336E+04  0.00000000000E+00 0.  1.
         -2   -1    0    0    0  501 -0.00000000000E+00 -0.00000000000E+00 -0.44378499293E+03  0.44378499293E+03  0.00000000000E+00 0. -1.
         23    2    1    2    0    0 -0.86851094627E+03  0.40941834745E+03  0.26391743554E+04  0.28097993945E+04  0.88298991576E+02 0.  0.
         11    1    3    3    0    0 -0.34247851193E+03  0.20819608459E+03  0.10674871301E+04  0.11402481807E+04  0.00000000000E+00 0. -1.
        -11    1    3    3    0    0 -0.52603243434E+03  0.20122226286E+03  0.15716872254E+04  0.16695512138E+04  0.00000000000E+00 0.  1.
         22    1    1    2    0    0  0.86851094627E+03 -0.40941834745E+03  0.28448808525E+03  0.10014330320E+04  0.00000000000E+00 0. -1.
<mgrwt>
<rscale>  0 0.24449316E+04</rscale>
<asrwt>0</asrwt>
<pdfrwt beam="1">  1        2 0.51806882E+00 0.24449316E+04</pdfrwt>
<pdfrwt beam="2">  1       -2 0.68274616E-01 0.24449316E+04</pdfrwt>
<totfact> 0.17665807E+00</totfact>
</mgrwt>
</event>
<event>
 6    1  0.4630212E-004  0.2135533E+04  0.7818608E-02  0.8545750E-01
         -2   -1    0    0    0  501 -0.00000000000E+00  0.00000000000E+00  0.85713129887E+03  0.85713129887E+03  0.00000000000E+00 0. -1.
          2   -1    0    0  501    0  0.00000000000E+00 -0.00000000000E+00 -0.13301639540E+04  0.13301639540E+04  0.00000000000E+00 0.  1.
         23    2    1    2    0    0  0.68638573215E+03 -0.34541174753E+02 -0.10715203785E+04  0.12759742221E+04  0.87383224786E+02 0.  0.
         13    1    3    3    0    0  0.45209216443E+03 -0.64170555571E+02 -0.70419361725E+03  0.83928173811E+03  0.00000000000E+00 0. -1.
        -13    1    3    3    0    0  0.23429356772E+03  0.29629380818E+02 -0.36732676121E+03  0.43669248401E+03  0.00000000000E+00 0.  1.
         22    1    1    2    0    0 -0.68638573215E+03  0.34541174753E+02  0.59848772336E+03  0.91132103074E+03  0.00000000000E+00 0. -1.
<mgrwt>
<rscale>  0 0.21355329E+04</rscale>
<asrwt>0</asrwt>
<pdfrwt beam="1">  1        2 0.20464061E+00 0.21355329E+04</pdfrwt>
<pdfrwt beam="2">  1       -2 0.13186636E+00 0.21355329E+04</pdfrwt>
<totfact> 0.61116863E+00</totfact>
</mgrwt>
</event>
<event>
 6    1  0.4630212E-004  0.2328296E+04  0.7818608E-02  0.8466847E-01
         -2   -1    0    0    0  501 -0.00000000000E+00  0.00000000000E+00  0.87656366923E+03  0.87656366923E+03  0.00000000000E+00 0. -1.
          2   -1    0    0  501    0  0.00000000000E+00 -0.00000000000E+00 -0.15460829424E+04  0.15460829424E+04  0.00000000000E+00 0.  1.
         23    2    1    2    0    0  0.75643751487E+03 -0.65358287244E+02 -0.12511340550E+04  0.14662234971E+04  0.89473461010E+02 0.  0.
         13    1    3    3    0    0  0.27641430940E+03 -0.60647311458E+02 -0.50859793582E+03  0.58202648320E+03  0.00000000000E+00 0.  1.
        -13    1    3    3    0    0  0.48002320546E+03 -0.47109757856E+01 -0.74253611917E+03  0.88419701387E+03  0.00000000000E+00 0. -1.
         22    1    1    2    0    0 -0.75643751487E+03  0.65358287244E+02  0.58161478182E+03  0.95642311455E+03  0.00000000000E+00 0. -1.
<mgrwt>
<rscale>  0 0.23282956E+04</rscale>
<asrwt>0</asrwt>
<pdfrwt beam="1">  1        2 0.23785891E+00 0.23282956E+04</pdfrwt>
<pdfrwt beam="2">  1       -2 0.13485595E+00 0.23282956E+04</pdfrwt>
<totfact> 0.42790769E+00</totfact>
</mgrwt>
</event>
<event>
 6    1  0.4630212E-004  0.2349395E+04  0.7818608E-02  0.8458696E-01
          2   -1    0    0  501    0  0.00000000000E+00  0.00000000000E+00  0.30514118473E+04  0.30514118473E+04  0.00000000000E+00 0.  1.
         -2   -1    0    0    0  501 -0.00000000000E+00 -0.00000000000E+00 -0.45222143479E+03  0.45222143479E+03  0.00000000000E+00 0. -1.
         23    2    1    2    0    0  0.89012532794E+03 -0.69883049250E+03  0.17611492857E+04  0.20954429232E+04  0.92450425500E+02 0.  0.
         13    1    3    3    0    0  0.23861145017E+03 -0.17432624484E+03  0.53498142942E+03  0.61117116556E+03  0.00000000000E+00 0.  1.
        -13    1    3    3    0    0  0.65151387777E+03 -0.52450424766E+03  0.12261678563E+04  0.14842717577E+04  0.00000000000E+00 0. -1.
         22    1    1    2    0    0 -0.89012532794E+03  0.69883049250E+03  0.83804112681E+03  0.14081903589E+04  0.00000000000E+00 0. -1.
<mgrwt>
<rscale>  0 0.23493947E+04</rscale>
<asrwt>0</asrwt>
<pdfrwt beam="1">  1        2 0.46944796E+00 0.23493947E+04</pdfrwt>
<pdfrwt beam="2">  1       -2 0.69572530E-01 0.23493947E+04</pdfrwt>
<totfact> 0.27510471E+00</totfact>
</mgrwt>
</event>
<event>
 6    1  0.4630212E-004  0.2067321E+04  0.7818608E-02  0.8575777E-01
          2   -1    0    0  501    0  0.00000000000E+00  0.00000000000E+00  0.15077316076E+04  0.15077316076E+04  0.00000000000E+00 0.  1.
         -2   -1    0    0    0  501 -0.00000000000E+00 -0.00000000000E+00 -0.70864992798E+03  0.70864992798E+03  0.00000000000E+00 0. -1.
         23    2    1    2    0    0  0.59337218754E+03  0.60991834354E+03  0.10259477077E+04  0.13357231833E+04  0.86583975658E+02 0.  0.
         13    1    3    3    0    0  0.19983485325E+03  0.25558840730E+03  0.42648339936E+03  0.53586144893E+03  0.00000000000E+00 0. -1.
        -13    1    3    3    0    0  0.39353733429E+03  0.35432993624E+03  0.59946430830E+03  0.79986173438E+03  0.00000000000E+00 0.  1.
         22    1    1    2    0    0 -0.59337218754E+03 -0.60991834354E+03 -0.22686602805E+03  0.88065835226E+03  0.00000000000E+00 0.  1.
<mgrwt>
<rscale>  0 0.20673209E+04</rscale>
<asrwt>0</asrwt>
<pdfrwt beam="1">  1        2 0.23195871E+00 0.20673209E+04</pdfrwt>
<pdfrwt beam="2">  1       -2 0.10902307E+00 0.20673209E+04</pdfrwt>
<totfact> 0.77968367E+00</totfact>
</mgrwt>
</event>
<event>
 6    1  0.4630212E-004  0.1810972E+04  0.7818608E-02  0.8700487E-01
          2   -1    0    0  501    0  0.00000000000E+00  0.00000000000E+00  0.18634869038E+04  0.18634869038E+04  0.00000000000E+00 0.  1.
         -2   -1    0    0    0  501 -0.00000000000E+00 -0.00000000000E+00 -0.43998402171E+03  0.43998402171E+03  0.00000000000E+00 0. -1.
         23    2    1    2    0    0  0.40709409251E+03 -0.80309223097E+03  0.62409709624E+03  0.10994226117E+04  0.92467085497E+02 0.  0.
         13    1    3    3    0    0  0.33105276603E+03 -0.58921828227E+03  0.50022898089E+03  0.84083479434E+03  0.00000000000E+00 0.  1.
        -13    1    3    3    0    0  0.76041326478E+02 -0.21387394870E+03  0.12386811534E+03  0.25858781731E+03  0.00000000000E+00 0. -1.
         22    1    1    2    0    0 -0.40709409251E+03  0.80309223097E+03  0.79940578582E+03  0.12040483138E+04  0.00000000000E+00 0.  1.
<mgrwt>
<rscale>  0 0.18109715E+04</rscale>
<asrwt>0</asrwt>
<pdfrwt beam="1">  1        2 0.28669029E+00 0.18109715E+04</pdfrwt>
<pdfrwt beam="2">  1       -2 0.67689850E-01 0.18109715E+04</pdfrwt>
<totfact> 0.15007426E+01</totfact>
</mgrwt>
</event>
<event>
 6    1  0.4630212E-004  0.1760887E+04  0.7818608E-02  0.8727380E-01
          4   -1    0    0  501    0  0.00000000000E+00  0.00000000000E+00  0.29602155726E+04  0.29602155726E+04  0.00000000000E+00 0.  1.
         -4   -1    0    0    0  501 -0.00000000000E+00 -0.00000000000E+00 -0.26186641924E+03  0.26186641924E+03  0.00000000000E+00 0. -1.
         23    2    1    2    0    0 -0.83539996633E+03  0.18647273507E+03  0.99483571724E+03  0.13156132112E+04  0.92058853037E+02 0.  0.
         13    1    3    3    0    0 -0.27584095821E+03  0.10567487310E+03  0.35281165766E+03  0.46014288956E+03  0.00000000000E+00 0. -1.
        -13    1    3    3    0    0 -0.55955900812E+03  0.80797861972E+02  0.64202405958E+03  0.85547032160E+03  0.00000000000E+00 0.  1.
         22    1    1    2    0    0  0.83539996633E+03 -0.18647273507E+03  0.17035134361E+04  0.19064687807E+04  0.00000000000E+00 0.  1.
<mgrwt>
<rscale>  0 0.17608873E+04</rscale>
<asrwt>0</asrwt>
<pdfrwt beam="1">  1        4 0.45541776E+00 0.17608873E+04</pdfrwt>
<pdfrwt beam="2">  1       -4 0.40287144E-01 0.17608873E+04</pdfrwt>
<totfact> 0.31090555E-02</totfact>
</mgrwt>
</event>
<event>
 6    1  0.4630212E-004  0.2765543E+04  0.7818608E-02  0.8314047E-01
         -2   -1    0    0    0  501 -0.00000000000E+00  0.00000000000E+00  0.16178676984E+04  0.16178676984E+04  0.00000000000E+00 0. -1.
          2   -1    0    0  501    0  0.00000000000E+00 -0.00000000000E+00 -0.11818372939E+04  0.11818372939E+04  0.00000000000E+00 0.  1.
         23    2    1    2    0    0 -0.10814492336E+04  0.76577475285E+03  0.61436810397E+03  0.14626381458E+04  0.76933485693E+02 0.  0.
         13    1    3    3    0    0 -0.75171991202E+03  0.48818016810E+03  0.41368610858E+03  0.98718736777E+03  0.00000000000E+00 0. -1.
        -13    1    3    3    0    0 -0.32972932161E+03  0.27759458475E+03  0.20068199539E+03  0.47545077798E+03  0.00000000000E+00 0.  1.
         22    1    1    2    0    0  0.10814492336E+04 -0.76577475285E+03 -0.17833769946E+03  0.13370668465E+04  0.00000000000E+00 0.  1.
<mgrwt>
<rscale>  0 0.27655425E+04</rscale>
<asrwt>0</asrwt>
<pdfrwt beam="1">  1        2 0.18182112E+00 0.27655425E+04</pdfrwt>
<pdfrwt beam="2">  1       -2 0.24890272E+00 0.27655425E+04</pdfrwt>
<totfact> 0.11061597E+00</totfact>
</mgrwt>
</event>
<event>
 6    1  0.4630212E-004  0.2113886E+04  0.7818608E-02  0.8555151E-01
          2   -1    0    0  501    0  0.00000000000E+00  0.00000000000E+00  0.21817788159E+04  0.21817788159E+04  0.00000000000E+00 0.  1.
         -2   -1    0    0    0  501 -0.00000000000E+00 -0.00000000000E+00 -0.51202662599E+03  0.51202662599E+03  0.00000000000E+00 0. -1.
         23    2    1    2    0    0  0.21186571623E+03  0.89820098325E+03  0.18514622384E+03  0.94574738721E+03  0.92232901934E+02 0.  0.
         11    1    3    3    0    0  0.15310949674E+03  0.52907090470E+03  0.73566271896E+02  0.55567124863E+03  0.00000000000E+00 0. -1.
        -11    1    3    3    0    0  0.58756219488E+02  0.36913007854E+03  0.11157995194E+03  0.39007613858E+03  0.00000000000E+00 0.  1.
         22    1    1    2    0    0 -0.21186571623E+03 -0.89820098325E+03  0.14846059661E+04  0.17480580547E+04  0.00000000000E+00 0.  1.
<mgrwt>
<rscale>  0 0.21138863E+04</rscale>
<asrwt>0</asrwt>
<pdfrwt beam="1">  1        2 0.33565827E+00 0.21138863E+04</pdfrwt>
<pdfrwt beam="2">  1       -2 0.78773328E-01 0.21138863E+04</pdfrwt>
<totfact> 0.69646468E+00</totfact>
</mgrwt>
</event>
<event>
 6    1  0.4630212E-004  0.3428840E+04  0.7818608E-02  0.8130864E-01
          2   -1    0    0  501    0  0.00000000000E+00  0.00000000000E+00  0.13397780361E+04  0.13397780361E+04  0.00000000000E+00 0.  1.
         -2   -1    0    0    0  501 -0.00000000000E+00 -0.00000000000E+00 -0.21938231524E+04  0.21938231524E+04  0.00000000000E+00 0. -1.
         23    2    1    2    0    0 -0.14362380193E+04  0.27222088225E+03 -0.13480449206E+04  0.19905782905E+04  0.91065722558E+02 0.  0.
         13    1    3    3    0    0 -0.10969302197E+04  0.19076075426E+03 -0.10728165196E+04  0.15461503345E+04  0.00000000000E+00 0. -1.
        -13    1    3    3    0    0 -0.33930779965E+03  0.81460127992E+02 -0.27522840102E+03  0.44442795601E+03  0.00000000000E+00 0.  1.
         22    1    1    2    0    0  0.14362380193E+04 -0.27222088225E+03  0.49399980437E+03  0.15430228980E+04  0.00000000000E+00 0.  1.
<mgrwt>
<rscale>  0 0.34288401E+04</rscale>
<asrwt>0</asrwt>
<pdfrwt beam="1">  1        2 0.20611970E+00 0.34288401E+04</pdfrwt>
<pdfrwt beam="2">  1       -2 0.33751125E+00 0.34288401E+04</pdfrwt>
<totfact> 0.24135237E-01</totfact>
</mgrwt>
</event>
<event>
 6    1  0.4630212E-004  0.2481780E+04  0.7818608E-02  0.8409505E-01
          2   -1    0    0  501    0  0.00000000000E+00  0.00000000000E+00  0.16945795976E+04  0.16945795976E+04  0.00000000000E+00 0.  1.
         -2   -1    0    0    0  501 -0.00000000000E+00 -0.00000000000E+00 -0.90866683837E+03  0.90866683837E+03  0.00000000000E+00 0. -1.
         23    2    1    2    0    0  0.25321692736E+03 -0.42701983779E+03 -0.79748821105E+03  0.94384190819E+03  0.91571538883E+02 0.  0.
         11    1    3    3    0    0  0.17345150386E+03 -0.24947101201E+03 -0.41112696780E+03  0.51122068980E+03  0.00000000000E+00 0.  1.
        -11    1    3    3    0    0  0.79765423497E+02 -0.17754882578E+03 -0.38636124325E+03  0.43262121839E+03  0.00000000000E+00 0. -1.
         22    1    1    2    0    0 -0.25321692736E+03  0.42701983779E+03  0.15834009703E+04  0.16594045278E+04  0.00000000000E+00 0.  1.
<mgrwt>
<rscale>  0 0.24817802E+04</rscale>
<asrwt>0</asrwt>
<pdfrwt beam="1">  1        2 0.26070455E+00 0.24817802E+04</pdfrwt>
<pdfrwt beam="2">  1       -2 0.13979490E+00 0.24817802E+04</pdfrwt>
<totfact> 0.31806602E+00</totfact>
</mgrwt>
</event>
<event>
 6    1  0.4630212E-004  0.3291073E+04  0.7818608E-02  0.8165171E-01
          2   -1    0    0  501    0  0.00000000000E+00  0.00000000000E+00  0.15384175370E+04  0.15384175370E+04  0.00000000000E+00 0.  1.
         -2   -1    0    0    0  501 -0.00000000000E+00 -0.00000000000E+00 -0.17601138391E+04  0.17601138391E+04  0.00000000000E+00 0. -1.
         23    2    1    2    0    0 -0.81028316697E+03 -0.13930505392E+04 -0.43826972496E+03  0.16724770526E+04  0.89165711951E+02 0.  0.
         13    1    3    3    0    0 -0.36257234838E+03 -0.54676441670E+03 -0.15660172297E+03  0.67448805388E+03  0.00000000000E+00 0.  1.
        -13    1    3    3    0    0 -0.44771081859E+03 -0.84628612252E+03 -0.28166800199E+03  0.99798899873E+03  0.00000000000E+00 0. -1.
         22    1    1    2    0    0  0.81028316697E+03  0.13930505392E+04  0.21657342292E+03  0.16260543235E+04  0.00000000000E+00 0.  1.
<mgrwt>
<rscale>  0 0.32910728E+04</rscale>
<asrwt>0</asrwt>
<pdfrwt beam="1">  1        2 0.23667962E+00 0.32910728E+04</pdfrwt>
<pdfrwt beam="2">  1       -2 0.27078674E+00 0.32910728E+04</pdfrwt>
<totfact> 0.48380025E-01</totfact>
</mgrwt>
</event>
<event>
 6    1  0.4630212E-004  0.2458890E+04  0.7818608E-02  0.8417779E-01
         -4   -1    0    0    0  501 -0.00000000000E+00  0.00000000000E+00  0.12981651009E+04  0.12981651009E+04  0.00000000000E+00 0. -1.
          4   -1    0    0  501    0  0.00000000000E+00 -0.00000000000E+00 -0.11643627927E+04  0.11643627927E+04  0.00000000000E+00 0.  1.
         23    2    1    2    0    0  0.99976370307E+03 -0.46336023537E+02 -0.64528750215E+03  0.11942000884E+04  0.89685012892E+02 0.  0.
         11    1    3    3    0    0  0.30179650480E+03 -0.94713308896E+01 -0.24433847955E+03  0.38842261649E+03  0.00000000000E+00 0.  1.
        -11    1    3    3    0    0  0.69796719828E+03 -0.36864692648E+02 -0.40094902260E+03  0.80577747186E+03  0.00000000000E+00 0. -1.
         22    1    1    2    0    0 -0.99976370307E+03  0.46336023537E+02  0.77908981034E+03  0.12683278053E+04  0.00000000000E+00 0. -1.
<mgrwt>
<rscale>  0 0.24588901E+04</rscale>
<asrwt>0</asrwt>
<pdfrwt beam="1">  1        4 0.17913274E+00 0.24588901E+04</pdfrwt>
<pdfrwt beam="2">  1       -4 0.19971771E+00 0.24588901E+04</pdfrwt>
<totfact> 0.43006561E-02</totfact>
</mgrwt>
</event>
<event>
 6    1  0.4630212E-004  0.5093587E+04  0.7818608E-02  0.7814231E-01
          2   -1    0    0  501    0  0.00000000000E+00  0.00000000000E+00  0.33379394883E+04  0.33379394883E+04  0.00000000000E+00 0.  1.
         -2   -1    0    0    0  501 -0.00000000000E+00 -0.00000000000E+00 -0.19431618798E+04  0.19431618798E+04  0.00000000000E+00 0. -1.
         23    2    1    2    0    0  0.11067918324E+04 -0.16673097117E+04 -0.93404077949E+03  0.22105468712E+04  0.95788605306E+02 0.  0.
         13    1    3    3    0    0  0.22009550201E+03 -0.38659592083E+03 -0.17942008864E+03  0.47967697903E+03  0.00000000000E+00 0. -1.
        -13    1    3    3    0    0  0.88669633040E+03 -0.12807137908E+04 -0.75462069086E+03  0.17308698921E+04  0.00000000000E+00 0.  1.
         22    1    1    2    0    0 -0.11067918324E+04  0.16673097117E+04  0.23288183879E+04  0.30705544970E+04  0.00000000000E+00 0. -1.
<mgrwt>
<rscale>  0 0.50935869E+04</rscale>
<asrwt>0</asrwt>
<pdfrwt beam="1">  1        2 0.51352915E+00 0.50935869E+04</pdfrwt>
<pdfrwt beam="2">  1       -2 0.29894798E+00 0.50935869E+04</pdfrwt>
<totfact> 0.24454150E-02</totfact>
</mgrwt>
</event>
<event>
 6    1  0.4630212E-004  0.3260641E+04  0.7818608E-02  0.8172983E-01
          2   -1    0    0  501    0  0.00000000000E+00  0.00000000000E+00  0.99007775436E+03  0.99007775436E+03  0.00000000000E+00 0.  1.
         -2   -1    0    0    0  501 -0.00000000000E+00 -0.00000000000E+00 -0.26845826886E+04  0.26845826886E+04  0.00000000000E+00 0. -1.
         23    2    1    2    0    0 -0.11740263456E+04 -0.23677454753E+03  0.39650097761E+03  0.12649497197E+04  0.92112549160E+02 0.  0.
         13    1    3    3    0    0 -0.75390867519E+03 -0.12809743623E+03  0.29225392086E+03  0.81865719196E+03  0.00000000000E+00 0. -1.
        -13    1    3    3    0    0 -0.42011767037E+03 -0.10867711130E+03  0.10424705675E+03  0.44629252774E+03  0.00000000000E+00 0.  1.
         22    1    1    2    0    0  0.11740263456E+04  0.23677454753E+03 -0.20910059119E+04  0.24097107233E+04  0.00000000000E+00 0. -1.
<mgrwt>
<rscale>  0 0.32606414E+04</rscale>
<asrwt>0</asrwt>
<pdfrwt beam="1">  1        2 0.15231966E+00 0.32606414E+04</pdfrwt>
<pdfrwt beam="2">  1       -2 0.41301272E+00 0.32606414E+04</pdfrwt>
<totfact> 0.13045175E-01</totfact>
</mgrwt>
</event>
<event>
 6    1  0.4630212E-004  0.2050872E+04  0.7818608E-02  0.8583199E-01
          1   -1    0    0  501    0  0.00000000000E+00  0.00000000000E+00  0.75478432430E+03  0.75478432430E+03  0.00000000000E+00 0.  1.
         -1   -1    0    0    0  501 -0.00000000000E+00 -0.00000000000E+00 -0.13931381854E+04  0.13931381854E+04  0.00000000000E+00 0. -1.
         23    2    1    2    0    0  0.33173571063E+03  0.96691871490E+03 -0.32591402147E+03  0.10789982672E+04  0.11417936857E+03 0.  0.
         11    1    3    3    0    0  0.25596190227E+03  0.59723941583E+03 -0.17837724982E+03  0.67381737770E+03  0.00000000000E+00 0. -1.
        -11    1    3    3    0    0  0.75773808363E+02  0.36967929907E+03 -0.14753677165E+03  0.40518088946E+03  0.00000000000E+00 0.  1.
         22    1    1    2    0    0 -0.33173571063E+03 -0.96691871490E+03 -0.31243983964E+03  0.10689242426E+04  0.00000000000E+00 0. -1.
<mgrwt>
<rscale>  0 0.20508719E+04</rscale>
<asrwt>0</asrwt>
<pdfrwt beam="1">  1        1 0.11612067E+00 0.20508719E+04</pdfrwt>
<pdfrwt beam="2">  1       -1 0.21432895E+00 0.20508719E+04</pdfrwt>
<totfact> 0.26909081E+00</totfact>
</mgrwt>
</event>
<event>
 6    1  0.4630212E-004  0.4241908E+04  0.7818608E-02  0.7957448E-01
          2   -1    0    0  501    0  0.00000000000E+00  0.00000000000E+00  0.15842432146E+04  0.15842432146E+04  0.00000000000E+00 0.  1.
         -2   -1    0    0    0  501 -0.00000000000E+00 -0.00000000000E+00 -0.28394918737E+04  0.28394918737E+04  0.00000000000E+00 0. -1.
         23    2    1    2    0    0  0.15287693147E+04 -0.10638379200E+04 -0.16838912922E+04  0.25125518829E+04  0.92413975144E+02 0.  0.
         13    1    3    3    0    0  0.13337492389E+04 -0.90094417339E+03 -0.14231755208E+04  0.21484915636E+04  0.00000000000E+00 0. -1.
        -13    1    3    3    0    0  0.19502007578E+03 -0.16289374658E+03 -0.26071577135E+03  0.36406031927E+03  0.00000000000E+00 0.  1.
         22    1    1    2    0    0 -0.15287693147E+04  0.10638379200E+04  0.42864263314E+03  0.19111832054E+04  0.00000000000E+00 0.  1.
<mgrwt>
<rscale>  0 0.42419079E+04</rscale>
<asrwt>0</asrwt>
<pdfrwt beam="1">  1        2 0.24372973E+00 0.42419079E+04</pdfrwt>
<pdfrwt beam="2">  1       -2 0.43684490E+00 0.42419079E+04</pdfrwt>
<totfact> 0.37356944E-02</totfact>
</mgrwt>
</event>
<event>
 6    1  0.4874340E-004  0.3085799E+04  0.7818608E-02  0.8219646E-01
          2   -1    0    0  501    0  0.00000000000E+00  0.00000000000E+00  0.27670639266E+04  0.27670639266E+04  0.00000000000E+00 0.  1.
         -2   -1    0    0    0  501 -0.00000000000E+00 -0.00000000000E+00 -0.86031198583E+03  0.86031198583E+03  0.00000000000E+00 0. -1.
         23    2    1    2    0    0 -0.12070147925E+01 -0.26249640265E+03  0.27398226054E+04  0.27539272588E+04  0.92637032377E+02 0.  0.
         11    1    3    3    0    0  0.18201535998E+02 -0.21450166984E+03  0.18272162677E+04  0.18398536766E+04  0.00000000000E+00 0.  1.
        -11    1    3    3    0    0 -0.19408550790E+02 -0.47994732812E+02  0.91260633763E+03  0.91407358222E+03  0.00000000000E+00 0. -1.
         22    1    1    2    0    0  0.12070147925E+01  0.26249640265E+03 -0.83307066459E+03  0.87344865361E+03  0.00000000000E+00 0. -1.
<mgrwt>
<rscale>  0 0.30857986E+04</rscale>
<asrwt>0</asrwt>
<pdfrwt beam="1">  1        2 0.42570214E+00 0.30857986E+04</pdfrwt>
<pdfrwt beam="2">  1       -2 0.13235569E+00 0.30857986E+04</pdfrwt>
<totfact> 0.85344166E-01</totfact>
</mgrwt>
</event>
<event>
 6    1  0.4630212E-004  0.4368063E+04  0.7818608E-02  0.7934151E-01
         -2   -1    0    0    0  501 -0.00000000000E+00  0.00000000000E+00  0.10246467214E+04  0.10246467214E+04  0.00000000000E+00 0. -1.
          2   -1    0    0  501    0  0.00000000000E+00 -0.00000000000E+00 -0.46552576963E+04  0.46552576963E+04  0.00000000000E+00 0.  1.
         23    2    1    2    0    0 -0.94945960935E+03 -0.16060285158E+04 -0.32901089438E+04  0.37833963696E+04  0.92033056740E+02 0.  0.
         13    1    3    3    0    0 -0.48196764475E+03 -0.76699001064E+03 -0.15182143855E+04  0.17679200795E+04  0.00000000000E+00 0.  1.
        -13    1    3    3    0    0 -0.46749196460E+03 -0.83903850520E+03 -0.17718945583E+04  0.20154762901E+04  0.00000000000E+00 0. -1.
         22    1    1    2    0    0  0.94945960935E+03  0.16060285158E+04 -0.34050203110E+03  0.18965080481E+04  0.00000000000E+00 0.  1.
<mgrwt>
<rscale>  0 0.43680634E+04</rscale>
<asrwt>0</asrwt>
<pdfrwt beam="1">  1        2 0.71619349E+00 0.43680634E+04</pdfrwt>
<pdfrwt beam="2">  1       -2 0.15763796E+00 0.43680634E+04</pdfrwt>
<totfact> 0.17029626E-02</totfact>
</mgrwt>
</event>
<event>
 6    1  0.4630212E-004  0.3981604E+04  0.7818608E-02  0.8008268E-01
          2   -1    0    0  501    0  0.00000000000E+00  0.00000000000E+00  0.21681999130E+04  0.21681999130E+04  0.00000000000E+00 0.  1.
         -2   -1    0    0    0  501 -0.00000000000E+00 -0.00000000000E+00 -0.18279185104E+04  0.18279185104E+04  0.00000000000E+00 0. -1.
         23    2    1    2    0    0 -0.17762020576E+04 -0.85261825281E+03 -0.10892299492E+03  0.19753175363E+04  0.90352177999E+02 0.  0.
         13    1    3    3    0    0 -0.19409591466E+03 -0.62710559663E+02 -0.10823399473E+02  0.20426204825E+03  0.00000000000E+00 0. -1.
        -13    1    3    3    0    0 -0.15821061430E+04 -0.78990769315E+03 -0.98099595446E+02  0.17710554881E+04  0.00000000000E+00 0.  1.
         22    1    1    2    0    0  0.17762020576E+04  0.85261825281E+03  0.44920439757E+03  0.20208008871E+04  0.00000000000E+00 0.  1.
<mgrwt>
<rscale>  0 0.39816041E+04</rscale>
<asrwt>0</asrwt>
<pdfrwt beam="1">  1        2 0.33356922E+00 0.39816041E+04</pdfrwt>
<pdfrwt beam="2">  1       -2 0.28121823E+00 0.39816041E+04</pdfrwt>
<totfact> 0.17600149E-01</totfact>
</mgrwt>
</event>
<event>
 6    1  0.4630212E-004  0.3597007E+04  0.7818608E-02  0.8091178E-01
         -2   -1    0    0    0  501 -0.00000000000E+00  0.00000000000E+00  0.16047522132E+04  0.16047522132E+04  0.00000000000E+00 0. -1.
          2   -1    0    0  501    0  0.00000000000E+00 -0.00000000000E+00 -0.20156478483E+04  0.20156478483E+04  0.00000000000E+00 0.  1.
         23    2    1    2    0    0 -0.98181772010E+03  0.57933165456E+03 -0.16042036636E+04  0.19700742597E+04  0.90177562733E+02 0.  0.
         13    1    3    3    0    0 -0.34226739135E+03  0.15877281310E+03 -0.49498773736E+03  0.62238945484E+03  0.00000000000E+00 0.  1.
        -13    1    3    3    0    0 -0.63955032875E+03  0.42055884146E+03 -0.11092159262E+04  0.13476848048E+04  0.00000000000E+00 0. -1.
         22    1    1    2    0    0  0.98181772010E+03 -0.57933165456E+03  0.11933080285E+04  0.16503258019E+04  0.00000000000E+00 0. -1.
<mgrwt>
<rscale>  0 0.35970073E+04</rscale>
<asrwt>0</asrwt>
<pdfrwt beam="1">  1        2 0.31009967E+00 0.35970073E+04</pdfrwt>
<pdfrwt beam="2">  1       -2 0.24688496E+00 0.35970073E+04</pdfrwt>
<totfact> 0.35859227E-01</totfact>
</mgrwt>
</event>
<event>
 6    1  0.4630212E-004  0.2129308E+04  0.7818608E-02  0.8548442E-01
         -1   -1    0    0    0  501 -0.00000000000E+00  0.00000000000E+00  0.57683577958E+03  0.57683577958E+03  0.00000000000E+00 0.  1.
          1   -1    0    0  501    0  0.00000000000E+00 -0.00000000000E+00 -0.19650102937E+04  0.19650102937E+04  0.00000000000E+00 0. -1.
         23    2    1    2    0    0 -0.33485710172E+03  0.79687772825E+03  0.42704158736E+02  0.87015316823E+03  0.90551083105E+02 0.  0.
         13    1    3    3    0    0 -0.32175309742E+03  0.69496047903E+03  0.47348987015E+02  0.76729202373E+03  0.00000000000E+00 0. -1.
        -13    1    3    3    0    0 -0.13104004302E+02  0.10191724922E+03 -0.46448282792E+01  0.10286114449E+03  0.00000000000E+00 0.  1.
         22    1    1    2    0    0  0.33485710172E+03 -0.79687772825E+03 -0.14308786728E+04  0.16716929050E+04  0.00000000000E+00 0. -1.
<mgrwt>
<rscale>  0 0.21293081E+04</rscale>
<asrwt>0</asrwt>
<pdfrwt beam="1">  1        1 0.30230928E+00 0.21293081E+04</pdfrwt>
<pdfrwt beam="2">  1       -1 0.88743965E-01 0.21293081E+04</pdfrwt>
<totfact> 0.35970286E+00</totfact>
</mgrwt>
</event>
<event>
 6    1  0.4630212E-004  0.1222903E+04  0.7818608E-02  0.9093042E-01
          2   -1    0    0  501    0  0.00000000000E+00  0.00000000000E+00  0.10462746839E+04  0.10462746839E+04  0.00000000000E+00 0.  1.
         -2   -1    0    0    0  501 -0.00000000000E+00 -0.00000000000E+00 -0.35733730898E+03  0.35733730898E+03  0.00000000000E+00 0. -1.
         23    2    1    2    0    0  0.26983835866E+02 -0.60693875823E+03  0.31699817826E+03  0.69126267572E+03  0.90848545322E+02 0.  0.
         11    1    3    3    0    0  0.34892974583E+02 -0.48689641217E+03  0.29060334778E+03  0.56809853159E+03  0.00000000000E+00 0.  1.
        -11    1    3    3    0    0 -0.79091387176E+01 -0.12004234606E+03  0.26394830483E+02  0.12316414413E+03  0.00000000000E+00 0. -1.
         22    1    1    2    0    0 -0.26983835866E+02  0.60693875823E+03  0.37193919667E+03  0.71234931716E+03  0.00000000000E+00 0.  1.
<mgrwt>
<rscale>  0 0.12229031E+04</rscale>
<asrwt>0</asrwt>
<pdfrwt beam="1">  1        2 0.16096533E+00 0.12229031E+04</pdfrwt>
<pdfrwt beam="2">  1       -2 0.54974971E-01 0.12229031E+04</pdfrwt>
<totfact> 0.72158592E+01</totfact>
</mgrwt>
</event>
<event>
 6    1  0.4630212E-004  0.1900908E+04  0.7818608E-02  0.8654405E-01
         -1   -1    0    0    0  501 -0.00000000000E+00  0.00000000000E+00  0.48959835593E+03  0.48959835593E+03  0.00000000000E+00 0. -1.
          1   -1    0    0  501    0  0.00000000000E+00 -0.00000000000E+00 -0.18451094885E+04  0.18451094885E+04  0.00000000000E+00 0.  1.
         23    2    1    2    0    0  0.33939870286E+03  0.77828511071E+03 -0.16062890862E+03  0.86887609345E+03  0.90690828764E+02 0.  0.
         13    1    3    3    0    0  0.96769617584E+02  0.13836425599E+03 -0.18053040215E+02  0.16980853478E+03  0.00000000000E+00 0. -1.
        -13    1    3    3    0    0  0.24262908527E+03  0.63992085472E+03 -0.14257586841E+03  0.69906755867E+03  0.00000000000E+00 0.  1.
         22    1    1    2    0    0 -0.33939870286E+03 -0.77828511071E+03 -0.11948822239E+04  0.14658317509E+04  0.00000000000E+00 0.  1.
<mgrwt>
<rscale>  0 0.19009078E+04</rscale>
<asrwt>0</asrwt>
<pdfrwt beam="1">  1        1 0.28386300E+00 0.19009078E+04</pdfrwt>
<pdfrwt beam="2">  1       -1 0.75322823E-01 0.19009078E+04</pdfrwt>
<totfact> 0.62925916E+00</totfact>
</mgrwt>
</event>
<event>
 6    1  0.4630212E-004  0.3275317E+04  0.7818608E-02  0.8169204E-01
          2   -1    0    0  501    0  0.00000000000E+00  0.00000000000E+00  0.15218314970E+04  0.15218314970E+04  0.00000000000E+00 0. -1.
         -2   -1    0    0    0  501 -0.00000000000E+00 -0.00000000000E+00 -0.17623016593E+04  0.17623016593E+04  0.00000000000E+00 0.  1.
         23    2    1    2    0    0 -0.11030216847E+04 -0.26073709116E+03 -0.13032196004E+04  0.17304031167E+04  0.10617415713E+03 0.  0.
         11    1    3    3    0    0 -0.96941500863E+02 -0.53402568223E+02 -0.14214350328E+03  0.18015067140E+03  0.00000000000E+00 0.  1.
        -11    1    3    3    0    0 -0.10060801838E+04 -0.20733452293E+03 -0.11610760972E+04  0.15502524453E+04  0.00000000000E+00 0. -1.
         22    1    1    2    0    0  0.11030216847E+04  0.26073709116E+03  0.10627494382E+04  0.15537300396E+04  0.00000000000E+00 0. -1.
<mgrwt>
<rscale>  0 0.32753175E+04</rscale>
<asrwt>0</asrwt>
<pdfrwt beam="1">  1        2 0.23412792E+00 0.32753175E+04</pdfrwt>
<pdfrwt beam="2">  1       -2 0.27112333E+00 0.32753175E+04</pdfrwt>
<totfact> 0.49261878E-01</totfact>
</mgrwt>
</event>
<event>
 6    1  0.4630212E-004  0.2868545E+04  0.7818608E-02  0.8282298E-01
          2   -1    0    0  501    0  0.00000000000E+00  0.00000000000E+00  0.12773245724E+04  0.12773245724E+04  0.00000000000E+00 0.  1.
         -2   -1    0    0    0  501 -0.00000000000E+00 -0.00000000000E+00 -0.16105051280E+04  0.16105051280E+04  0.00000000000E+00 0. -1.
         23    2    1    2    0    0 -0.74169865178E+03 -0.59728373287E+03 -0.12444953065E+04  0.15697404307E+04  0.91933151747E+02 0.  0.
         13    1    3    3    0    0 -0.50381736571E+03 -0.38868367804E+03 -0.76180229201E+03  0.99259743687E+03  0.00000000000E+00 0.  1.
        -13    1    3    3    0    0 -0.23788128607E+03 -0.20860005483E+03 -0.48269301446E+03  0.57714299385E+03  0.00000000000E+00 0. -1.
         22    1    1    2    0    0  0.74169865178E+03  0.59728373287E+03  0.91131475093E+03  0.13180892697E+04  0.00000000000E+00 0.  1.
<mgrwt>
<rscale>  0 0.28685451E+04</rscale>
<asrwt>0</asrwt>
<pdfrwt beam="1">  1        2 0.19651147E+00 0.28685451E+04</pdfrwt>
<pdfrwt beam="2">  1       -2 0.24777002E+00 0.28685451E+04</pdfrwt>
<totfact> 0.97821642E-01</totfact>
</mgrwt>
</event>
<event>
 6    1  0.4630212E-004  0.1625589E+04  0.7818608E-02  0.8804980E-01
         -2   -1    0    0    0  501 -0.00000000000E+00  0.00000000000E+00  0.46408673023E+03  0.46408673023E+03  0.00000000000E+00 0. -1.
          2   -1    0    0  501    0  0.00000000000E+00 -0.00000000000E+00 -0.14235163416E+04  0.14235163416E+04  0.00000000000E+00 0.  1.
         23    2    1    2    0    0 -0.77384010286E+02  0.23005445566E+03 -0.13788011491E+04  0.14030560419E+04  0.92521945720E+02 0.  0.
         11    1    3    3    0    0 -0.81282410433E+02  0.96922648085E+02 -0.68833634149E+03  0.69986266437E+03  0.00000000000E+00 0. -1.
        -11    1    3    3    0    0  0.38984001462E+01  0.13313180758E+03 -0.69046480759E+03  0.70319337755E+03  0.00000000000E+00 0.  1.
         22    1    1    2    0    0  0.77384010286E+02 -0.23005445566E+03  0.41937153767E+03  0.48454702995E+03  0.00000000000E+00 0. -1.
<mgrwt>
<rscale>  0 0.16255892E+04</rscale>
<asrwt>0</asrwt>
<pdfrwt beam="1">  1        2 0.21900251E+00 0.16255892E+04</pdfrwt>
<pdfrwt beam="2">  1       -2 0.71397960E-01 0.16255892E+04</pdfrwt>
<totfact> 0.23900241E+01</totfact>
</mgrwt>
</event>
<event>
 6    1  0.4630212E-004  0.1901390E+04  0.7818608E-02  0.8654165E-01
         -2   -1    0    0    0  501 -0.00000000000E+00  0.00000000000E+00  0.18778853154E+04  0.18778853154E+04  0.00000000000E+00 0.  1.
          2   -1    0    0  501    0  0.00000000000E+00 -0.00000000000E+00 -0.48129724562E+03  0.48129724562E+03  0.00000000000E+00 0. -1.
         23    2    1    2    0    0  0.33820562866E+03  0.60364756427E+02 -0.39708380987E+03  0.53290608608E+03  0.91029629499E+02 0.  0.
         11    1    3    3    0    0  0.19375525056E+03 -0.55385993647E+01 -0.18477031279E+03  0.26779066766E+03  0.00000000000E+00 0. -1.
        -11    1    3    3    0    0  0.14445037810E+03  0.65903355792E+02 -0.21231349708E+03  0.26511541842E+03  0.00000000000E+00 0.  1.
         22    1    1    2    0    0 -0.33820562866E+03 -0.60364756427E+02  0.17936718797E+04  0.18262764749E+04  0.00000000000E+00 0.  1.
<mgrwt>
<rscale>  0 0.19013900E+04</rscale>
<asrwt>0</asrwt>
<pdfrwt beam="1">  1        2 0.74045731E-01 0.19013900E+04</pdfrwt>
<pdfrwt beam="2">  1       -2 0.28890543E+00 0.19013900E+04</pdfrwt>
<totfact> 0.22418858E+00</totfact>
</mgrwt>
</event>
<event>
 6    1  0.4630212E-004  0.2203746E+04  0.7818608E-02  0.8516871E-01
         -2   -1    0    0    0  501 -0.00000000000E+00  0.00000000000E+00  0.26027555967E+03  0.26027555967E+03  0.00000000000E+00 0. -1.
          2   -1    0    0  501    0  0.00000000000E+00 -0.00000000000E+00 -0.46647623167E+04  0.46647623167E+04  0.00000000000E+00 0.  1.
         23    2    1    2    0    0 -0.10306912729E+04  0.57779775740E+02 -0.30549073030E+04  0.32259123056E+04  0.91589143127E+02 0.  0.
         11    1    3    3    0    0 -0.62592821480E+03  0.50611339338E+02 -0.19857774507E+04  0.20827049051E+04  0.00000000000E+00 0.  1.
        -11    1    3    3    0    0 -0.40476305807E+03  0.71684364018E+01 -0.10691298523E+04  0.11432074006E+04  0.00000000000E+00 0. -1.
         22    1    1    2    0    0  0.10306912729E+04 -0.57779775740E+02 -0.13495794540E+04  0.16991255707E+04  0.00000000000E+00 0. -1.
<mgrwt>
<rscale>  0 0.22037456E+04</rscale>
<asrwt>0</asrwt>
<pdfrwt beam="1">  1        2 0.71765578E+00 0.22037456E+04</pdfrwt>
<pdfrwt beam="2">  1       -2 0.40042392E-01 0.22037456E+04</pdfrwt>
<totfact> 0.45733022E-01</totfact>
</mgrwt>
</event>
<event>
 6    1  0.4630212E-004  0.4099899E+04  0.7818608E-02  0.7984692E-01
         -2   -1    0    0    0  501 -0.00000000000E+00  0.00000000000E+00  0.14797979642E+04  0.14797979642E+04  0.00000000000E+00 0. -1.
          2   -1    0    0  501    0  0.00000000000E+00 -0.00000000000E+00 -0.28397742768E+04  0.28397742768E+04  0.00000000000E+00 0.  1.
         23    2    1    2    0    0 -0.85287036661E+03  0.16117805569E+04  0.30423884055E+03  0.18507999749E+04  0.87606215101E+02 0.  0.
         13    1    3    3    0    0 -0.41753000184E+02  0.12271419731E+03  0.12345281361E+02  0.13020942062E+03  0.00000000000E+00 0. -1.
        -13    1    3    3    0    0 -0.81111736643E+03  0.14890663596E+04  0.29189355919E+03  0.17205905543E+04  0.00000000000E+00 0.  1.
         22    1    1    2    0    0  0.85287036661E+03 -0.16117805569E+04 -0.16642151531E+04  0.24687722661E+04  0.00000000000E+00 0. -1.
<mgrwt>
<rscale>  0 0.40998986E+04</rscale>
<asrwt>0</asrwt>
<pdfrwt beam="1">  1        2 0.43688835E+00 0.40998986E+04</pdfrwt>
<pdfrwt beam="2">  1       -2 0.22766123E+00 0.40998986E+04</pdfrwt>
<totfact> 0.15131933E-01</totfact>
</mgrwt>
</event>
<event>
 6    1  0.4630212E-004  0.1091006E+04  0.7818608E-02  0.9214002E-01
          2   -1    0    0  501    0  0.00000000000E+00  0.00000000000E+00  0.30619482193E+04  0.30619482193E+04  0.00000000000E+00 0.  1.
         -2   -1    0    0    0  501 -0.00000000000E+00 -0.00000000000E+00 -0.97184414117E+02  0.97184414117E+02  0.00000000000E+00 0. -1.
         23    2    1    2    0    0 -0.42333412509E+03 -0.76273823023E+02  0.53875283525E+03  0.69528225164E+03  0.90184890169E+02 0.  0.
         13    1    3    3    0    0 -0.13000390808E+03 -0.62394740106E+02  0.14987458729E+03  0.20798199832E+03  0.00000000000E+00 0. -1.
        -13    1    3    3    0    0 -0.29333021701E+03 -0.13879082916E+02  0.38887824796E+03  0.48730025332E+03  0.00000000000E+00 0.  1.
         22    1    1    2    0    0  0.42333412509E+03  0.76273823023E+02  0.24260109699E+04  0.24638503817E+04  0.00000000000E+00 0.  1.
<mgrwt>
<rscale>  0 0.10910062E+04</rscale>
<asrwt>0</asrwt>
<pdfrwt beam="1">  1        2 0.47106888E+00 0.10910062E+04</pdfrwt>
<pdfrwt beam="2">  1       -2 0.14951451E-01 0.10910062E+04</pdfrwt>
<totfact> 0.56979910E+01</totfact>
</mgrwt>
</event>
<event>
 6    1  0.4630212E-004  0.3792331E+04  0.7818608E-02  0.8047803E-01
         -2   -1    0    0    0  501 -0.00000000000E+00  0.00000000000E+00  0.15218100980E+04  0.15218100980E+04  0.00000000000E+00 0. -1.
          2   -1    0    0  501    0  0.00000000000E+00 -0.00000000000E+00 -0.23626095752E+04  0.23626095752E+04  0.00000000000E+00 0.  1.
         23    2    1    2    0    0 -0.38608724606E+03  0.18538547194E+04 -0.49515014554E+03  0.19595004170E+04  0.92884526356E+02 0.  0.
         13    1    3    3    0    0 -0.24432354140E+03  0.12777172125E+04 -0.30118860439E+03  0.13352789385E+04  0.00000000000E+00 0. -1.
        -13    1    3    3    0    0 -0.14176370466E+03  0.57613750692E+03 -0.19396154115E+03  0.62422147855E+03  0.00000000000E+00 0.  1.
         22    1    1    2    0    0  0.38608724606E+03 -0.18538547194E+04 -0.34564933171E+03  0.19249192562E+04  0.00000000000E+00 0.  1.
<mgrwt>
<rscale>  0 0.37923307E+04</rscale>
<asrwt>0</asrwt>
<pdfrwt beam="1">  1        2 0.36347840E+00 0.37923307E+04</pdfrwt>
<pdfrwt beam="2">  1       -2 0.23412463E+00 0.37923307E+04</pdfrwt>
<totfact> 0.26998335E-01</totfact>
</mgrwt>
</event>
<event>
 6    1  0.4630212E-004  0.2908632E+04  0.7818608E-02  0.8270314E-01
          2   -1    0    0  501    0  0.00000000000E+00  0.00000000000E+00  0.21171882723E+04  0.21171882723E+04  0.00000000000E+00 0.  1.
         -2   -1    0    0    0  501 -0.00000000000E+00 -0.00000000000E+00 -0.99898328740E+03  0.99898328740E+03  0.00000000000E+00 0. -1.
         23    2    1    2    0    0 -0.91037572388E+02 -0.14318818002E+04  0.31469822634E+03  0.14717274468E+04  0.91506146769E+02 0.  0.
         11    1    3    3    0    0 -0.10292873543E+03 -0.11818774731E+04  0.23838043939E+03  0.12100636016E+04  0.00000000000E+00 0. -1.
        -11    1    3    3    0    0  0.11891163042E+02 -0.25000432708E+03  0.76317786949E+02  0.26166384527E+03  0.00000000000E+00 0.  1.
         22    1    1    2    0    0  0.91037572388E+02  0.14318818002E+04  0.80350675855E+03  0.16444441128E+04  0.00000000000E+00 0. -1.
<mgrwt>
<rscale>  0 0.29086325E+04</rscale>
<asrwt>0</asrwt>
<pdfrwt beam="1">  1        2 0.32572127E+00 0.29086325E+04</pdfrwt>
<pdfrwt beam="2">  1       -2 0.15368974E+00 0.29086325E+04</pdfrwt>
<totfact> 0.13920469E+00</totfact>
</mgrwt>
</event>
<event>
 6    1  0.4630212E-004  0.4977347E+04  0.7818608E-02  0.7832011E-01
          2   -1    0    0  501    0  0.00000000000E+00  0.00000000000E+00  0.37669880025E+04  0.37669880025E+04  0.00000000000E+00 0.  1.
         -2   -1    0    0    0  501 -0.00000000000E+00 -0.00000000000E+00 -0.16441505257E+04  0.16441505257E+04  0.00000000000E+00 0. -1.
         23    2    1    2    0    0 -0.17036207022E+04 -0.18121169753E+04  0.11254366930E+04  0.27314184398E+04  0.89148830435E+02 0.  0.
         11    1    3    3    0    0 -0.71332734697E+03 -0.71866234669E+03  0.42070732680E+03  0.10964972081E+04  0.00000000000E+00 0.  1.
        -11    1    3    3    0    0 -0.99029335527E+03 -0.10934546286E+04  0.70472936618E+03  0.16349212317E+04  0.00000000000E+00 0. -1.
         22    1    1    2    0    0  0.17036207022E+04  0.18121169753E+04  0.99740078379E+03  0.26797200885E+04  0.00000000000E+00 0. -1.
<mgrwt>
<rscale>  0 0.49773468E+04</rscale>
<asrwt>0</asrwt>
<pdfrwt beam="1">  1        2 0.57953661E+00 0.49773468E+04</pdfrwt>
<pdfrwt beam="2">  1       -2 0.25294624E+00 0.49773468E+04</pdfrwt>
<totfact> 0.23310360E-02</totfact>
</mgrwt>
</event>
<event>
 6    1  0.4630212E-004  0.1211493E+04  0.7818608E-02  0.9102856E-01
          2   -1    0    0  501    0  0.00000000000E+00  0.00000000000E+00  0.50296789115E+03  0.50296789115E+03  0.00000000000E+00 0.  1.
         -2   -1    0    0    0  501 -0.00000000000E+00 -0.00000000000E+00 -0.72952724600E+03  0.72952724600E+03  0.00000000000E+00 0. -1.
         23    2    1    2    0    0  0.34687315001E+03 -0.77872768081E+02 -0.60810291961E+03  0.71099667884E+03  0.96653847718E+02 0.  0.
         11    1    3    3    0    0  0.19633668997E+03 -0.71434167851E+02 -0.42728360113E+03  0.47562822873E+03  0.00000000000E+00 0.  1.
        -11    1    3    3    0    0  0.15053646004E+03 -0.64386002300E+01 -0.18081931847E+03  0.23536845011E+03  0.00000000000E+00 0. -1.
         22    1    1    2    0    0 -0.34687315001E+03  0.77872768081E+02  0.38154356476E+03  0.52149845831E+03  0.00000000000E+00 0.  1.
<mgrwt>
<rscale>  0 0.12114929E+04</rscale>
<asrwt>0</asrwt>
<pdfrwt beam="1">  1        2 0.77379676E-01 0.12114929E+04</pdfrwt>
<pdfrwt beam="2">  1       -2 0.11223496E+00 0.12114929E+04</pdfrwt>
<totfact> 0.37726996E+01</totfact>
</mgrwt>
</event>
<event>
 6    1  0.4630212E-004  0.3238524E+04  0.7818608E-02  0.8178717E-01
         -2   -1    0    0    0  501 -0.00000000000E+00  0.00000000000E+00  0.95548924756E+03  0.95548924756E+03  0.00000000000E+00 0. -1.
          2   -1    0    0  501    0  0.00000000000E+00 -0.00000000000E+00 -0.27441535838E+04  0.27441535838E+04  0.00000000000E+00 0.  1.
         23    2    1    2    0    0 -0.95758184819E+03  0.93387668415E+03  0.14508737663E+03  0.13483699114E+04  0.89232358906E+02 0.  0.
         11    1    3    3    0    0 -0.59855042608E+03  0.52666839852E+03  0.70413637443E+02  0.80037509637E+03  0.00000000000E+00 0. -1.
        -11    1    3    3    0    0 -0.35903142212E+03  0.40720828563E+03  0.74673739188E+02  0.54799481501E+03  0.00000000000E+00 0.  1.
         22    1    1    2    0    0  0.95758184819E+03 -0.93387668415E+03 -0.19337517129E+04  0.23512729200E+04  0.00000000000E+00 0.  1.
<mgrwt>
<rscale>  0 0.32385239E+04</rscale>
<asrwt>0</asrwt>
<pdfrwt beam="1">  1        2 0.42217746E+00 0.32385239E+04</pdfrwt>
<pdfrwt beam="2">  1       -2 0.14699835E+00 0.32385239E+04</pdfrwt>
<totfact> 0.66269282E-01</totfact>
</mgrwt>
</event>
<event>
 6    1  0.4630212E-004  0.2031738E+04  0.7818608E-02  0.8591924E-01
         -2   -1    0    0    0  501 -0.00000000000E+00  0.00000000000E+00  0.39412611923E+03  0.39412611923E+03  0.00000000000E+00 0. -1.
          2   -1    0    0  501    0  0.00000000000E+00 -0.00000000000E+00 -0.26184261811E+04  0.26184261811E+04  0.00000000000E+00 0.  1.
         23    2    1    2    0    0 -0.46376025829E+03  0.43900816951E+02  0.22028636035E+03  0.52397768128E+03  0.95003531691E+02 0.  0.
         11    1    3    3    0    0 -0.23349835900E+03  0.17832910969E+02  0.58556093758E+02  0.24138830230E+03  0.00000000000E+00 0.  1.
        -11    1    3    3    0    0 -0.23026189928E+03  0.26067905981E+02  0.16173026659E+03  0.28258937898E+03  0.00000000000E+00 0. -1.
         22    1    1    2    0    0  0.46376025829E+03 -0.43900816951E+02 -0.24445864222E+04  0.24885746191E+04  0.00000000000E+00 0.  1.
<mgrwt>
<rscale>  0 0.20317383E+04</rscale>
<asrwt>0</asrwt>
<pdfrwt beam="1">  1        2 0.40283481E+00 0.20317383E+04</pdfrwt>
<pdfrwt beam="2">  1       -2 0.60634786E-01 0.20317383E+04</pdfrwt>
<totfact> 0.69720073E+00</totfact>
</mgrwt>
</event>
<event>
 6    1  0.4630212E-004  0.2911701E+04  0.7818608E-02  0.8269405E-01
         -2   -1    0    0    0  501 -0.00000000000E+00  0.00000000000E+00  0.12638845438E+04  0.12638845438E+04  0.00000000000E+00 0. -1.
          2   -1    0    0  501    0  0.00000000000E+00 -0.00000000000E+00 -0.16769729041E+04  0.16769729041E+04  0.00000000000E+00 0.  1.
         23    2    1    2    0    0 -0.12221006505E+03 -0.56890945335E+03  0.11395431300E+04  0.12827688464E+04  0.91346056216E+02 0.  0.
         11    1    3    3    0    0 -0.14393671388E+01 -0.69723568939E+02  0.20302409282E+03  0.21466772023E+03  0.00000000000E+00 0. -1.
        -11    1    3    3    0    0 -0.12077069791E+03 -0.49918588441E+03  0.93651903718E+03  0.10681011261E+04  0.00000000000E+00 0.  1.
         22    1    1    2    0    0  0.12221006505E+03  0.56890945335E+03 -0.15526314903E+04  0.16580886016E+04  0.00000000000E+00 0.  1.
<mgrwt>
<rscale>  0 0.29117006E+04</rscale>
<asrwt>0</asrwt>
<pdfrwt beam="1">  1        2 0.25799583E+00 0.29117006E+04</pdfrwt>
<pdfrwt beam="2">  1       -2 0.19444378E+00 0.29117006E+04</pdfrwt>
<totfact> 0.12608058E+00</totfact>
</mgrwt>
</event>
<event>
 6    1  0.4630212E-004  0.2962240E+04  0.7818608E-02  0.8254597E-01
         -2   -1    0    0    0  501 -0.00000000000E+00  0.00000000000E+00  0.62438009196E+03  0.62438009196E+03  0.00000000000E+00 0.  1.
          2   -1    0    0  501    0  0.00000000000E+00 -0.00000000000E+00 -0.35134301174E+04  0.35134301174E+04  0.00000000000E+00 0. -1.
         23    2    1    2    0    0  0.12132222773E+04 -0.74417234864E+03 -0.88070792828E+03  0.16762784184E+04  0.92531630178E+02 0.  0.
         13    1    3    3    0    0  0.10174878664E+04 -0.64877947656E+03 -0.77567523510E+03  0.14345272524E+04  0.00000000000E+00 0. -1.
        -13    1    3    3    0    0  0.19573441092E+03 -0.95392872077E+02 -0.10503269318E+03  0.24175116607E+03  0.00000000000E+00 0.  1.
         22    1    1    2    0    0 -0.12132222773E+04  0.74417234864E+03 -0.20083420971E+04  0.24615317909E+04  0.00000000000E+00 0. -1.
<mgrwt>
<rscale>  0 0.29622396E+04</rscale>
<asrwt>0</asrwt>
<pdfrwt beam="1">  1        2 0.54052772E+00 0.29622396E+04</pdfrwt>
<pdfrwt beam="2">  1       -2 0.96058475E-01 0.29622396E+04</pdfrwt>
<totfact> 0.61991280E-01</totfact>
</mgrwt>
</event>
<event>
 6    1  0.7941798E-004  0.2165828E+04  0.7818608E-02  0.8532787E-01
         -2   -1    0    0    0  501 -0.00000000000E+00  0.00000000000E+00  0.60157443630E+03  0.60157443630E+03  0.00000000000E+00 0. -1.
          2   -1    0    0  501    0  0.00000000000E+00 -0.00000000000E+00 -0.19493887126E+04  0.19493887126E+04  0.00000000000E+00 0.  1.
         23    2    1    2    0    0 -0.24847620971E+03  0.10483501926E+04 -0.57187965854E+03  0.12232383716E+04  0.92126091270E+02 0.  0.
         11    1    3    3    0    0 -0.16854364271E+03  0.53994839429E+03 -0.27266787192E+03  0.62793231831E+03  0.00000000000E+00 0.  1.
        -11    1    3    3    0    0 -0.79932566996E+02  0.50840179835E+03 -0.29921178662E+03  0.59530605329E+03  0.00000000000E+00 0. -1.
         22    1    1    2    0    0  0.24847620971E+03 -0.10483501926E+04 -0.77593461779E+03  0.13277247773E+04  0.00000000000E+00 0.  1.
<mgrwt>
<rscale>  0 0.21658277E+04</rscale>
<asrwt>0</asrwt>
<pdfrwt beam="1">  1        2 0.29990595E+00 0.21658277E+04</pdfrwt>
<pdfrwt beam="2">  1       -2 0.92549915E-01 0.21658277E+04</pdfrwt>
<totfact> 0.64719854E+00</totfact>
</mgrwt>
</event>
<event>
 6    1  0.4630212E-004  0.1860768E+04  0.7818608E-02  0.8674635E-01
         -4   -1    0    0    0  501 -0.00000000000E+00  0.00000000000E+00  0.95820646922E+03  0.95820646922E+03  0.00000000000E+00 0. -1.
          4   -1    0    0  501    0  0.00000000000E+00 -0.00000000000E+00 -0.90336941269E+03  0.90336941269E+03  0.00000000000E+00 0.  1.
         23    2    1    2    0    0  0.14494354254E+03  0.37307072552E+03 -0.81020684016E+03  0.90842776122E+03  0.92819592458E+02 0.  0.
         13    1    3    3    0    0 -0.82323463449E+01  0.41535103557E+02 -0.53756509376E+02  0.68430246632E+02  0.00000000000E+00 0.  1.
        -13    1    3    3    0    0  0.15317588889E+03  0.33153562197E+03 -0.75645033079E+03  0.83999751459E+03  0.00000000000E+00 0. -1.
         22    1    1    2    0    0 -0.14494354254E+03 -0.37307072552E+03  0.86504389670E+03  0.95314812069E+03  0.00000000000E+00 0. -1.
<mgrwt>
<rscale>  0 0.18607680E+04</rscale>
<asrwt>0</asrwt>
<pdfrwt beam="1">  1        4 0.13897991E+00 0.18607680E+04</pdfrwt>
<pdfrwt beam="2">  1       -4 0.14741638E+00 0.18607680E+04</pdfrwt>
<totfact> 0.21364619E-01</totfact>
</mgrwt>
</event>
<event>
 6    1  0.4630212E-004  0.1933080E+04  0.7818608E-02  0.8638563E-01
          1   -1    0    0  501    0  0.00000000000E+00  0.00000000000E+00  0.10518676512E+04  0.10518676512E+04  0.00000000000E+00 0.  1.
         -1   -1    0    0    0  501 -0.00000000000E+00 -0.00000000000E+00 -0.88813384144E+03  0.88813384144E+03  0.00000000000E+00 0. -1.
         23    2    1    2    0    0  0.88855526899E+03  0.35466302210E+03 -0.43297671592E+02  0.96113563892E+03  0.81183143120E+02 0.  0.
         11    1    3    3    0    0  0.62148304622E+03  0.22614569108E+03  0.17153159034E+01  0.66135164069E+03  0.00000000000E+00 0.  1.
        -11    1    3    3    0    0  0.26707222278E+03  0.12851733102E+03 -0.45012987496E+02  0.29978399823E+03  0.00000000000E+00 0. -1.
         22    1    1    2    0    0 -0.88855526899E+03 -0.35466302210E+03  0.20703148134E+03  0.97886585371E+03  0.00000000000E+00 0. -1.
<mgrwt>
<rscale>  0 0.19330797E+04</rscale>
<asrwt>0</asrwt>
<pdfrwt beam="1">  1        1 0.16182579E+00 0.19330797E+04</pdfrwt>
<pdfrwt beam="2">  1       -1 0.13663598E+00 0.19330797E+04</pdfrwt>
<totfact> 0.57477735E+00</totfact>
</mgrwt>
</event>
<event>
 6    1  0.4630212E-004  0.1256730E+04  0.7818608E-02  0.9064600E-01
         -2   -1    0    0    0  501 -0.00000000000E+00  0.00000000000E+00  0.23543716666E+03  0.23543716666E+03  0.00000000000E+00 0. -1.
          2   -1    0    0  501    0  0.00000000000E+00 -0.00000000000E+00 -0.16770615752E+04  0.16770615752E+04  0.00000000000E+00 0.  1.
         23    2    1    2    0    0  0.40039154959E+03  0.38318640892E+03 -0.11645140909E+04  0.12928735769E+04  0.91015388200E+02 0.  0.
         11    1    3    3    0    0  0.76408785303E+02  0.72123111195E+02 -0.14748550993E+03  0.18108567386E+03  0.00000000000E+00 0. -1.
        -11    1    3    3    0    0  0.32398276428E+03  0.31106329773E+03 -0.10170285810E+04  0.11117879030E+04  0.00000000000E+00 0.  1.
         22    1    1    2    0    0 -0.40039154959E+03 -0.38318640892E+03 -0.27711031764E+03  0.61962516500E+03  0.00000000000E+00 0.  1.
<mgrwt>
<rscale>  0 0.12567301E+04</rscale>
<asrwt>0</asrwt>
<pdfrwt beam="1">  1        2 0.25800947E+00 0.12567301E+04</pdfrwt>
<pdfrwt beam="2">  1       -2 0.36221103E-01 0.12567301E+04</pdfrwt>
<totfact> 0.71195039E+01</totfact>
</mgrwt>
</event>
<event>
 6    1  0.4630212E-004  0.1981053E+04  0.7818608E-02  0.8615531E-01
         -1   -1    0    0    0  501 -0.00000000000E+00  0.00000000000E+00  0.46922957357E+03  0.46922957357E+03  0.00000000000E+00 0. -1.
          1   -1    0    0  501    0  0.00000000000E+00 -0.00000000000E+00 -0.20909645554E+04  0.20909645554E+04  0.00000000000E+00 0.  1.
         23    2    1    2    0    0  0.24669302839E+03 -0.91508388968E+03 -0.44899731773E+03  0.10523646943E+04  0.87389261226E+02 0.  0.
         13    1    3    3    0    0  0.13157028740E+03 -0.63063293027E+03 -0.32284867965E+03  0.72058303007E+03  0.00000000000E+00 0. -1.
        -13    1    3    3    0    0  0.11512274099E+03 -0.28445095941E+03 -0.12614863808E+03  0.33178166419E+03  0.00000000000E+00 0.  1.
         22    1    1    2    0    0 -0.24669302839E+03  0.91508388968E+03 -0.11727376641E+04  0.15078294348E+04  0.00000000000E+00 0.  1.
<mgrwt>
<rscale>  0 0.19810527E+04</rscale>
<asrwt>0</asrwt>
<pdfrwt beam="1">  1        1 0.32168685E+00 0.19810527E+04</pdfrwt>
<pdfrwt beam="2">  1       -1 0.72189165E-01 0.19810527E+04</pdfrwt>
<totfact> 0.46497818E+00</totfact>
</mgrwt>
</event>
<event>
 6    1  0.4630212E-004  0.5438585E+04  0.7818608E-02  0.7764197E-01
          2   -1    0    0  501    0  0.00000000000E+00  0.00000000000E+00  0.22351163326E+04  0.22351163326E+04  0.00000000000E+00 0.  1.
         -2   -1    0    0    0  501 -0.00000000000E+00 -0.00000000000E+00 -0.33083519159E+04  0.33083519159E+04  0.00000000000E+00 0. -1.
         23    2    1    2    0    0 -0.12498861884E+04  0.18731514512E+04 -0.20891648689E+04  0.30730382948E+04  0.89680928493E+02 0.  0.
         13    1    3    3    0    0 -0.39237924752E+03  0.62981919163E+03 -0.64065969275E+03  0.98034612762E+03  0.00000000000E+00 0.  1.
        -13    1    3    3    0    0 -0.85750694087E+03  0.12433322596E+04 -0.14485051761E+04  0.20926921672E+04  0.00000000000E+00 0. -1.
         22    1    1    2    0    0  0.12498861884E+04 -0.18731514512E+04  0.10159292856E+04  0.24704299538E+04  0.00000000000E+00 0.  1.
<mgrwt>
<rscale>  0 0.54385849E+04</rscale>
<asrwt>0</asrwt>
<pdfrwt beam="1">  1        2 0.34386405E+00 0.54385849E+04</pdfrwt>
<pdfrwt beam="2">  1       -2 0.50897721E+00 0.54385849E+04</pdfrwt>
<totfact> 0.50926638E-03</totfact>
</mgrwt>
</event>
<event>
 6    1  0.4630212E-004  0.1194715E+04  0.7818608E-02  0.9117495E-01
          2   -1    0    0  501    0  0.00000000000E+00  0.00000000000E+00  0.11812401000E+04  0.11812401000E+04  0.00000000000E+00 0.  1.
         -2   -1    0    0    0  501 -0.00000000000E+00 -0.00000000000E+00 -0.30208580441E+03  0.30208580441E+03  0.00000000000E+00 0. -1.
         23    2    1    2    0    0  0.35495289132E+03  0.14628838595E+03 -0.12094870227E+03  0.41206596712E+03  0.88192549293E+02 0.  0.
         13    1    3    3    0    0  0.15963382862E+03  0.98460317524E+02 -0.24855617338E+02  0.18919618146E+03  0.00000000000E+00 0.  1.
        -13    1    3    3    0    0  0.19531906270E+03  0.47828068427E+02 -0.96093084937E+02  0.22286978565E+03  0.00000000000E+00 0. -1.
         22    1    1    2    0    0 -0.35495289132E+03 -0.14628838595E+03  0.10001029979E+04  0.10712599373E+04  0.00000000000E+00 0.  1.
<mgrwt>
<rscale>  0 0.11947148E+04</rscale>
<asrwt>0</asrwt>
<pdfrwt beam="1">  1        2 0.18172924E+00 0.11947148E+04</pdfrwt>
<pdfrwt beam="2">  1       -2 0.46474740E-01 0.11947148E+04</pdfrwt>
<totfact> 0.84186167E+01</totfact>
</mgrwt>
</event>
<event>
 6    1  0.4630212E-004  0.2900757E+04  0.7818608E-02  0.8272652E-01
          1   -1    0    0  501    0  0.00000000000E+00  0.00000000000E+00  0.18213674854E+04  0.18213674854E+04  0.00000000000E+00 0.  1.
         -1   -1    0    0    0  501 -0.00000000000E+00 -0.00000000000E+00 -0.11549550424E+04  0.11549550424E+04  0.00000000000E+00 0. -1.
         23    2    1    2    0    0  0.13675222875E+04 -0.17870612326E+03 -0.12251337957E+03  0.13874685260E+04  0.89477913675E+02 0.  0.
         13    1    3    3    0    0  0.72210400714E+03 -0.12689939392E+03 -0.96043095942E+02  0.73943351938E+03  0.00000000000E+00 0.  1.
        -13    1    3    3    0    0  0.64541828039E+03 -0.51806729342E+02 -0.26470283625E+02  0.64803500660E+03  0.00000000000E+00 0. -1.
         22    1    1    2    0    0 -0.13675222875E+04  0.17870612326E+03  0.78892582257E+03  0.15888540018E+04  0.00000000000E+00 0. -1.
<mgrwt>
<rscale>  0 0.29007568E+04</rscale>
<asrwt>0</asrwt>
<pdfrwt beam="1">  1        1 0.28021038E+00 0.29007568E+04</pdfrwt>
<pdfrwt beam="2">  1       -1 0.17768539E+00 0.29007568E+04</pdfrwt>
<totfact> 0.73136185E-01</totfact>
</mgrwt>
</event>
<event>
 6    1  0.4630212E-004  0.1910779E+04  0.7818608E-02  0.8649509E-01
         -2   -1    0    0    0  501 -0.00000000000E+00  0.00000000000E+00  0.29076599833E+03  0.29076599833E+03  0.00000000000E+00 0. -1.
          2   -1    0    0  501    0  0.00000000000E+00 -0.00000000000E+00 -0.31391885645E+04  0.31391885645E+04  0.00000000000E+00 0.  1.
         23    2    1    2    0    0  0.24591631400E+03  0.34158608778E+03 -0.29630206195E+04  0.29937337441E+04  0.76122596766E+02 0.  0.
         11    1    3    3    0    0  0.52509151172E+02  0.67882955778E+02 -0.41614802235E+03  0.42490526373E+03  0.00000000000E+00 0. -1.
        -11    1    3    3    0    0  0.19340716283E+03  0.27370313200E+03 -0.25468725972E+04  0.25688284803E+04  0.00000000000E+00 0.  1.
         22    1    1    2    0    0 -0.24591631400E+03 -0.34158608778E+03  0.11459805340E+03  0.43622081874E+03  0.00000000000E+00 0. -1.
<mgrwt>
<rscale>  0 0.19107792E+04</rscale>
<asrwt>0</asrwt>
<pdfrwt beam="1">  1        2 0.48295207E+00 0.19107792E+04</pdfrwt>
<pdfrwt beam="2">  1       -2 0.44733232E-01 0.19107792E+04</pdfrwt>
<totfact> 0.63222845E+00</totfact>
</mgrwt>
</event>
<event>
 6    1  0.4630212E-004  0.1358693E+04  0.7818608E-02  0.8984273E-01
          2   -1    0    0  501    0  0.00000000000E+00  0.00000000000E+00  0.14485360217E+04  0.14485360217E+04  0.00000000000E+00 0.  1.
         -2   -1    0    0    0  501 -0.00000000000E+00 -0.00000000000E+00 -0.31860567415E+03  0.31860567415E+03  0.00000000000E+00 0. -1.
         23    2    1    2    0    0  0.49821176473E+03  0.40170242736E+03  0.28435528800E+03  0.70668095449E+03  0.94658538781E+02 0.  0.
         11    1    3    3    0    0  0.43557381455E+03  0.38251897665E+03  0.27060391164E+03  0.63974353643E+03  0.00000000000E+00 0. -1.
        -11    1    3    3    0    0  0.62637950185E+02  0.19183450714E+02  0.13751376362E+02  0.66937418060E+02  0.00000000000E+00 0.  1.
         22    1    1    2    0    0 -0.49821176473E+03 -0.40170242736E+03  0.84557505958E+03  0.10604607414E+04  0.00000000000E+00 0.  1.
<mgrwt>
<rscale>  0 0.13586932E+04</rscale>
<asrwt>0</asrwt>
<pdfrwt beam="1">  1        2 0.22285169E+00 0.13586932E+04</pdfrwt>
<pdfrwt beam="2">  1       -2 0.49016258E-01 0.13586932E+04</pdfrwt>
<totfact> 0.52211621E+01</totfact>
</mgrwt>
</event>
<event>
 6    1  0.4630212E-004  0.3477890E+04  0.7818608E-02  0.8119050E-01
          2   -1    0    0  501    0  0.00000000000E+00  0.00000000000E+00  0.31438882648E+04  0.31438882648E+04  0.00000000000E+00 0.  1.
         -2   -1    0    0    0  501 -0.00000000000E+00 -0.00000000000E+00 -0.96184405027E+03  0.96184405027E+03  0.00000000000E+00 0. -1.
         23    2    1    2    0    0  0.32920340755E+02 -0.16973847954E+04  0.15294397718E+04  0.22869163675E+04  0.92744615555E+02 0.  0.
         13    1    3    3    0    0 -0.28103007766E+02 -0.93124202226E+03  0.83745742949E+03  0.12527315871E+04  0.00000000000E+00 0. -1.
        -13    1    3    3    0    0  0.61023348521E+02 -0.76614277316E+03  0.69198234233E+03  0.10341847804E+04  0.00000000000E+00 0.  1.
         22    1    1    2    0    0 -0.32920340755E+02  0.16973847954E+04  0.65260444273E+03  0.18188159476E+04  0.00000000000E+00 0.  1.
<mgrwt>
<rscale>  0 0.34778903E+04</rscale>
<asrwt>0</asrwt>
<pdfrwt beam="1">  1        2 0.48367511E+00 0.34778903E+04</pdfrwt>
<pdfrwt beam="2">  1       -2 0.14797601E+00 0.34778903E+04</pdfrwt>
<totfact> 0.36022818E-01</totfact>
</mgrwt>
</event>
<event>
 6    1  0.4630212E-004  0.1361296E+04  0.7818608E-02  0.8982321E-01
         -2   -1    0    0    0  501 -0.00000000000E+00  0.00000000000E+00  0.87961157561E+03  0.87961157561E+03  0.00000000000E+00 0. -1.
          2   -1    0    0  501    0  0.00000000000E+00 -0.00000000000E+00 -0.52668867132E+03  0.52668867132E+03  0.00000000000E+00 0.  1.
         23    2    1    2    0    0  0.50261169357E+03  0.34604063859E+03  0.48159731417E+03  0.78266594558E+03  0.90925086113E+02 0.  0.
         11    1    3    3    0    0  0.41192910399E+03  0.23798182399E+03  0.37870093740E+03  0.60805866103E+03  0.00000000000E+00 0. -1.
        -11    1    3    3    0    0  0.90682589578E+02  0.10805881460E+03  0.10289637677E+03  0.17460728455E+03  0.00000000000E+00 0.  1.
         22    1    1    2    0    0 -0.50261169357E+03 -0.34604063859E+03 -0.12867440988E+03  0.62363430136E+03  0.00000000000E+00 0.  1.
<mgrwt>
<rscale>  0 0.13612956E+04</rscale>
<asrwt>0</asrwt>
<pdfrwt beam="1">  1        2 0.81029026E-01 0.13612956E+04</pdfrwt>
<pdfrwt beam="2">  1       -2 0.13532486E+00 0.13612956E+04</pdfrwt>
<totfact> 0.22160206E+01</totfact>
</mgrwt>
</event>
<event>
 6    1  0.4630212E-004  0.1686731E+04  0.7818608E-02  0.8768968E-01
          2   -1    0    0  501    0  0.00000000000E+00  0.00000000000E+00  0.19510307274E+04  0.19510307274E+04  0.00000000000E+00 0.  1.
         -2   -1    0    0    0  501 -0.00000000000E+00 -0.00000000000E+00 -0.36455885532E+03  0.36455885532E+03  0.00000000000E+00 0. -1.
         23    2    1    2    0    0 -0.70926206391E+03 -0.32192728142E+03  0.35386434021E+03  0.85750481924E+03  0.58349755197E+02 0.  0.
         13    1    3    3    0    0 -0.43300281089E+03 -0.21523964076E+03  0.19446625648E+03  0.52118774170E+03  0.00000000000E+00 0.  1.
        -13    1    3    3    0    0 -0.27625925302E+03 -0.10668764066E+03  0.15939808373E+03  0.33631707754E+03  0.00000000000E+00 0. -1.
         22    1    1    2    0    0  0.70926206391E+03  0.32192728142E+03  0.12326075318E+04  0.14580847634E+04  0.00000000000E+00 0.  1.
<mgrwt>
<rscale>  0 0.16867312E+04</rscale>
<asrwt>0</asrwt>
<pdfrwt beam="1">  1        2 0.30015857E+00 0.16867312E+04</pdfrwt>
<pdfrwt beam="2">  1       -2 0.56085979E-01 0.16867312E+04</pdfrwt>
<totfact> 0.20225584E+01</totfact>
</mgrwt>
</event>
<event>
 6    1  0.4630212E-004  0.3558608E+04  0.7818608E-02  0.8100039E-01
          2   -1    0    0  501    0  0.00000000000E+00  0.00000000000E+00  0.27176653368E+04  0.27176653368E+04  0.00000000000E+00 0. -1.
         -2   -1    0    0    0  501 -0.00000000000E+00 -0.00000000000E+00 -0.11649419569E+04  0.11649419569E+04  0.00000000000E+00 0.  1.
         23    2    1    2    0    0  0.99428100006E+03 -0.14354862236E+04  0.41104618035E+03  0.17963086015E+04  0.92467423650E+02 0.  0.
         13    1    3    3    0    0  0.73648378111E+03 -0.11278785865E+04  0.30372669998E+03  0.13808578399E+04  0.00000000000E+00 0. -1.
        -13    1    3    3    0    0  0.25779721894E+03 -0.30760763708E+03  0.10731948037E+03  0.41545076165E+03  0.00000000000E+00 0.  1.
         22    1    1    2    0    0 -0.99428100006E+03  0.14354862236E+04  0.11416771995E+04  0.20862986922E+04  0.00000000000E+00 0.  1.
<mgrwt>
<rscale>  0 0.35586078E+04</rscale>
<asrwt>0</asrwt>
<pdfrwt beam="1">  1        2 0.41810236E+00 0.35586078E+04</pdfrwt>
<pdfrwt beam="2">  1       -2 0.17922184E+00 0.35586078E+04</pdfrwt>
<totfact> 0.38901249E-01</totfact>
</mgrwt>
</event>
<event>
 6    1  0.4630212E-004  0.1238369E+04  0.7818608E-02  0.9079920E-01
          2   -1    0    0  501    0  0.00000000000E+00  0.00000000000E+00  0.95208254047E+03  0.95208254047E+03  0.00000000000E+00 0.  1.
         -2   -1    0    0    0  501 -0.00000000000E+00 -0.00000000000E+00 -0.40268504640E+03  0.40268504640E+03  0.00000000000E+00 0. -1.
         23    2    1    2    0    0  0.14120484984E+02  0.37316930151E+03 -0.26157884879E+03  0.46194210317E+03  0.74244844003E+02 0.  0.
         13    1    3    3    0    0 -0.25255767766E+02  0.22378308487E+03 -0.13814627120E+03  0.26419900667E+03  0.00000000000E+00 0. -1.
        -13    1    3    3    0    0  0.39376252750E+02  0.14938621664E+03 -0.12343257759E+03  0.19774309650E+03  0.00000000000E+00 0.  1.
         22    1    1    2    0    0 -0.14120484984E+02 -0.37316930151E+03  0.81097634285E+03  0.89282548370E+03  0.00000000000E+00 0.  1.
<mgrwt>
<rscale>  0 0.12383689E+04</rscale>
<asrwt>0</asrwt>
<pdfrwt beam="1">  1        2 0.14647424E+00 0.12383689E+04</pdfrwt>
<pdfrwt beam="2">  1       -2 0.61951546E-01 0.12383689E+04</pdfrwt>
<totfact> 0.64469921E+01</totfact>
</mgrwt>
</event>
<event>
 6    1  0.4630212E-004  0.2718751E+04  0.7818608E-02  0.8328946E-01
         -2   -1    0    0    0  501 -0.00000000000E+00  0.00000000000E+00  0.11456345308E+04  0.11456345308E+04  0.00000000000E+00 0. -1.
          2   -1    0    0  501    0  0.00000000000E+00 -0.00000000000E+00 -0.16129943795E+04  0.16129943795E+04  0.00000000000E+00 0.  1.
         23    2    1    2    0    0 -0.49102346430E+03 -0.96101549342E+03 -0.10701256117E+04  0.15225134682E+04  0.90684148947E+02 0.  0.
         11    1    3    3    0    0 -0.10264874117E+02 -0.28463308013E+02 -0.54193286086E+02  0.62068025589E+02  0.00000000000E+00 0. -1.
        -11    1    3    3    0    0 -0.48075859018E+03 -0.93255218541E+03 -0.10159323256E+04  0.14604454426E+04  0.00000000000E+00 0.  1.
         22    1    1    2    0    0  0.49102346430E+03  0.96101549342E+03  0.60276576298E+03  0.12361154421E+04  0.00000000000E+00 0. -1.
<mgrwt>
<rscale>  0 0.27187512E+04</rscale>
<asrwt>0</asrwt>
<pdfrwt beam="1">  1        2 0.24815298E+00 0.27187512E+04</pdfrwt>
<pdfrwt beam="2">  1       -2 0.17625147E+00 0.27187512E+04</pdfrwt>
<totfact> 0.18499796E+00</totfact>
</mgrwt>
</event>
<event>
 6    1  0.4630212E-004  0.1968113E+04  0.7818608E-02  0.8621676E-01
         -2   -1    0    0    0  501 -0.00000000000E+00  0.00000000000E+00  0.33303149824E+03  0.33303149824E+03  0.00000000000E+00 0. -1.
          2   -1    0    0  501    0  0.00000000000E+00 -0.00000000000E+00 -0.29077341380E+04  0.29077341380E+04  0.00000000000E+00 0.  1.
         23    2    1    2    0    0 -0.22777697918E+03  0.92302538525E+03 -0.16948719845E+04  0.19454046070E+04  0.90276393129E+02 0.  0.
         11    1    3    3    0    0 -0.13966812322E+03  0.70439027218E+03 -0.12334913679E+04  0.14272959731E+04  0.00000000000E+00 0. -1.
        -11    1    3    3    0    0 -0.88108855957E+02  0.21863511306E+03 -0.46138061655E+03  0.51810863387E+03  0.00000000000E+00 0.  1.
         22    1    1    2    0    0  0.22777697918E+03 -0.92302538525E+03 -0.87983065526E+03  0.12953610292E+04  0.00000000000E+00 0. -1.
<mgrwt>
<rscale>  0 0.19681129E+04</rscale>
<asrwt>0</asrwt>
<pdfrwt beam="1">  1        2 0.44734372E+00 0.19681129E+04</pdfrwt>
<pdfrwt beam="2">  1       -2 0.51235614E-01 0.19681129E+04</pdfrwt>
<totfact> 0.66770475E+00</totfact>
</mgrwt>
</event>
<event>
 6    1  0.4630212E-004  0.2690692E+04  0.7818608E-02  0.8338031E-01
          2   -1    0    0  501    0  0.00000000000E+00  0.00000000000E+00  0.20672442376E+04  0.20672442376E+04  0.00000000000E+00 0.  1.
         -2   -1    0    0    0  501 -0.00000000000E+00 -0.00000000000E+00 -0.87554059063E+03  0.87554059063E+03  0.00000000000E+00 0. -1.
         23    2    1    2    0    0  0.68688022311E+03  0.80533400095E+03  0.15020214947E+04  0.18397596877E+04  0.90993648025E+02 0.  0.
         13    1    3    3    0    0  0.53732818985E+03  0.67926900169E+03  0.11991362578E+04  0.14792078032E+04  0.00000000000E+00 0. -1.
        -13    1    3    3    0    0  0.14955203326E+03  0.12606499926E+03  0.30288523696E+03  0.36055188456E+03  0.00000000000E+00 0.  1.
         22    1    1    2    0    0 -0.68688022311E+03 -0.80533400095E+03 -0.31031784775E+03  0.11030251405E+04  0.00000000000E+00 0. -1.
<mgrwt>
<rscale>  0 0.26906923E+04</rscale>
<asrwt>0</asrwt>
<pdfrwt beam="1">  1        2 0.31803757E+00 0.26906923E+04</pdfrwt>
<pdfrwt beam="2">  1       -2 0.13469855E+00 0.26906923E+04</pdfrwt>
<totfact> 0.21350138E+00</totfact>
</mgrwt>
</event>
<event>
 6    1  0.4630212E-004  0.1779709E+04  0.7818608E-02  0.8717165E-01
         -2   -1    0    0    0  501 -0.00000000000E+00  0.00000000000E+00  0.48407783077E+03  0.48407783077E+03  0.00000000000E+00 0. -1.
          2   -1    0    0  501    0  0.00000000000E+00 -0.00000000000E+00 -0.16357725831E+04  0.16357725831E+04  0.00000000000E+00 0.  1.
         23    2    1    2    0    0  0.44182682158E+03 -0.28506707121E+02 -0.14935438083E+04  0.15604897523E+04  0.91823674225E+02 0.  0.
         13    1    3    3    0    0  0.20375577397E+03 -0.51365254957E+02 -0.78672458841E+03  0.81430361834E+03  0.00000000000E+00 0.  1.
        -13    1    3    3    0    0  0.23807104762E+03  0.22858547837E+02 -0.70681921987E+03  0.74618613395E+03  0.00000000000E+00 0. -1.
         22    1    1    2    0    0 -0.44182682158E+03  0.28506707121E+02  0.34184905598E+03  0.55936066155E+03  0.00000000000E+00 0. -1.
<mgrwt>
<rscale>  0 0.17797092E+04</rscale>
<asrwt>0</asrwt>
<pdfrwt beam="1">  1        2 0.25165732E+00 0.17797092E+04</pdfrwt>
<pdfrwt beam="2">  1       -2 0.74473512E-01 0.17797092E+04</pdfrwt>
<totfact> 0.16332448E+01</totfact>
</mgrwt>
</event>
<event>
 6    1  0.4630212E-004  0.1277429E+04  0.7818608E-02  0.9047658E-01
         -2   -1    0    0    0  501 -0.00000000000E+00  0.00000000000E+00  0.32204971823E+03  0.32204971823E+03  0.00000000000E+00 0. -1.
          2   -1    0    0  501    0  0.00000000000E+00 -0.00000000000E+00 -0.12667484365E+04  0.12667484365E+04  0.00000000000E+00 0.  1.
         23    2    1    2    0    0  0.60675250080E+03  0.18011442578E+03 -0.38586193982E+03  0.74447099744E+03  0.68976994982E+02 0.  0.
         11    1    3    3    0    0  0.35414688045E+03  0.88445451276E+02 -0.25718291957E+03  0.44652621973E+03  0.00000000000E+00 0. -1.
        -11    1    3    3    0    0  0.25260562034E+03  0.91668974500E+02 -0.12867902025E+03  0.29794477772E+03  0.00000000000E+00 0.  1.
         22    1    1    2    0    0 -0.60675250080E+03 -0.18011442578E+03 -0.55883677845E+03  0.84432715730E+03  0.00000000000E+00 0.  1.
<mgrwt>
<rscale>  0 0.12774286E+04</rscale>
<asrwt>0</asrwt>
<pdfrwt beam="1">  1        2 0.19488437E+00 0.12774286E+04</pdfrwt>
<pdfrwt beam="2">  1       -2 0.49546111E-01 0.12774286E+04</pdfrwt>
<totfact> 0.65420095E+01</totfact>
</mgrwt>
</event>
<event>
 6    1  0.4630212E-004  0.8662958E+03  0.7818608E-02  0.9468723E-01
         -2   -1    0    0    0  501 -0.00000000000E+00  0.00000000000E+00  0.11540178368E+03  0.11540178368E+03  0.00000000000E+00 0. -1.
          2   -1    0    0  501    0  0.00000000000E+00 -0.00000000000E+00 -0.16257730102E+04  0.16257730102E+04  0.00000000000E+00 0.  1.
         23    2    1    2    0    0  0.27676573125E+03 -0.22994833654E+03 -0.29801476792E+03  0.47654690782E+03  0.93854387155E+02 0.  0.
         13    1    3    3    0    0  0.19706636348E+03 -0.15206355385E+03 -0.25705668596E+03  0.35782204491E+03  0.00000000000E+00 0.  1.
        -13    1    3    3    0    0  0.79699367767E+02 -0.77884782689E+02 -0.40958081962E+02  0.11872486292E+03  0.00000000000E+00 0. -1.
         22    1    1    2    0    0 -0.27676573125E+03  0.22994833654E+03 -0.12123564586E+04  0.12646278861E+04  0.00000000000E+00 0.  1.
<mgrwt>
<rscale>  0 0.86629580E+03</rscale>
<asrwt>0</asrwt>
<pdfrwt beam="1">  1        2 0.25011891E+00 0.86629580E+03</pdfrwt>
<pdfrwt beam="2">  1       -2 0.17754121E-01 0.86629580E+03</pdfrwt>
<totfact> 0.28548351E+02</totfact>
</mgrwt>
</event>
<event>
 6    1  0.4630212E-004  0.2711421E+04  0.7818608E-02  0.8331309E-01
          2   -1    0    0  501    0  0.00000000000E+00  0.00000000000E+00  0.23772901554E+04  0.23772901554E+04  0.00000000000E+00 0.  1.
         -2   -1    0    0    0  501 -0.00000000000E+00 -0.00000000000E+00 -0.77312846340E+03  0.77312846340E+03  0.00000000000E+00 0. -1.
         23    2    1    2    0    0  0.58308185186E+03  0.11052828871E+04  0.19674644040E+03  0.12682782423E+04  0.90475585396E+02 0.  0.
         13    1    3    3    0    0  0.16415229441E+03  0.25564838692E+03  0.77162445060E+02  0.31345831688E+03  0.00000000000E+00 0. -1.
        -13    1    3    3    0    0  0.41892955745E+03  0.84963450018E+03  0.11958399534E+03  0.95481992540E+03  0.00000000000E+00 0.  1.
         22    1    1    2    0    0 -0.58308185186E+03 -0.11052828871E+04  0.14074152516E+04  0.18821403765E+04  0.00000000000E+00 0.  1.
<mgrwt>
<rscale>  0 0.27114208E+04</rscale>
<asrwt>0</asrwt>
<pdfrwt beam="1">  1        2 0.36573694E+00 0.27114208E+04</pdfrwt>
<pdfrwt beam="2">  1       -2 0.11894284E+00 0.27114208E+04</pdfrwt>
<totfact> 0.19485557E+00</totfact>
</mgrwt>
</event>
<event>
 6    1  0.4630212E-004  0.7539681E+03  0.7818608E-02  0.9629145E-01
         -1   -1    0    0    0  501 -0.00000000000E+00  0.00000000000E+00  0.12091182985E+03  0.12091182985E+03  0.00000000000E+00 0. -1.
          1   -1    0    0  501    0  0.00000000000E+00 -0.00000000000E+00 -0.11753770442E+04  0.11753770442E+04  0.00000000000E+00 0.  1.
         23    2    1    2    0    0  0.35632237372E+03  0.10370093754E+03 -0.51022496666E+03  0.63756513403E+03  0.91870915220E+02 0.  0.
         13    1    3    3    0    0  0.34883518833E+03  0.11230156531E+03 -0.47133539986E+03  0.59703826456E+03  0.00000000000E+00 0.  1.
        -13    1    3    3    0    0  0.74871853934E+01 -0.86006277633E+01 -0.38889566804E+02  0.40526869473E+02  0.00000000000E+00 0. -1.
         22    1    1    2    0    0 -0.35632237372E+03 -0.10370093754E+03 -0.54424024768E+03  0.65872374001E+03  0.00000000000E+00 0.  1.
<mgrwt>
<rscale>  0 0.75396814E+03</rscale>
<asrwt>0</asrwt>
<pdfrwt beam="1">  1        1 0.18082724E+00 0.75396814E+03</pdfrwt>
<pdfrwt beam="2">  1       -1 0.18601820E-01 0.75396814E+03</pdfrwt>
<totfact> 0.26045881E+02</totfact>
</mgrwt>
</event>
<event>
 6    1  0.4630212E-004  0.2958184E+04  0.7818608E-02  0.8255773E-01
          4   -1    0    0  501    0  0.00000000000E+00  0.00000000000E+00  0.14943823367E+04  0.14943823367E+04  0.00000000000E+00 0.  1.
         -4   -1    0    0    0  501 -0.00000000000E+00 -0.00000000000E+00 -0.14639582266E+04  0.14639582266E+04  0.00000000000E+00 0. -1.
         23    2    1    2    0    0  0.26992276457E+03 -0.23382368481E+03  0.14488392089E+04  0.14956604183E+04  0.10165244227E+03 0.  0.
         13    1    3    3    0    0  0.40684859043E+02 -0.80715919987E+02  0.47659717586E+03  0.48509296586E+03  0.00000000000E+00 0. -1.
        -13    1    3    3    0    0  0.22923790553E+03 -0.15310776482E+03  0.97224203307E+03  0.10105674524E+04  0.00000000000E+00 0.  1.
         22    1    1    2    0    0 -0.26992276457E+03  0.23382368481E+03 -0.14184150988E+04  0.14626801451E+04  0.00000000000E+00 0. -1.
<mgrwt>
<rscale>  0 0.29581841E+04</rscale>
<asrwt>0</asrwt>
<pdfrwt beam="1">  1        4 0.22990498E+00 0.29581841E+04</pdfrwt>
<pdfrwt beam="2">  1       -4 0.22522434E+00 0.29581841E+04</pdfrwt>
<totfact> 0.13003601E-02</totfact>
</mgrwt>
</event>
<event>
 6    1  0.4630212E-004  0.4460081E+04  0.7818608E-02  0.7917663E-01
          2   -1    0    0  501    0  0.00000000000E+00  0.00000000000E+00  0.31900262562E+04  0.31900262562E+04  0.00000000000E+00 0. -1.
         -2   -1    0    0    0  501 -0.00000000000E+00 -0.00000000000E+00 -0.15589469396E+04  0.15589469396E+04  0.00000000000E+00 0.  1.
         23    2    1    2    0    0  0.66652286777E+03 -0.63616900102E+02 -0.14481060462E+04  0.15978333478E+04  0.88093377345E+02 0.  0.
         13    1    3    3    0    0  0.20444474570E+03 -0.60376664883E+02 -0.44736173458E+03  0.49555576606E+03  0.00000000000E+00 0. -1.
        -13    1    3    3    0    0  0.46207812207E+03 -0.32402352188E+01 -0.10007443116E+04  0.11022775818E+04  0.00000000000E+00 0.  1.
         22    1    1    2    0    0 -0.66652286777E+03  0.63616900102E+02  0.30791853628E+04  0.31511398480E+04  0.00000000000E+00 0. -1.
<mgrwt>
<rscale>  0 0.44600815E+04</rscale>
<asrwt>0</asrwt>
<pdfrwt beam="1">  1        2 0.49077327E+00 0.44600815E+04</pdfrwt>
<pdfrwt beam="2">  1       -2 0.23983799E+00 0.44600815E+04</pdfrwt>
<totfact> 0.74221817E-02</totfact>
</mgrwt>
</event>
<event>
 6    1  0.4645090E-004  0.1389664E+04  0.7818608E-02  0.8961334E-01
          2   -1    0    0  501    0  0.00000000000E+00  0.00000000000E+00  0.16355744125E+04  0.16355744125E+04  0.00000000000E+00 0.  1.
         -2   -1    0    0    0  501 -0.00000000000E+00 -0.00000000000E+00 -0.29518173597E+03  0.29518173597E+03  0.00000000000E+00 0. -1.
         23    2    1    2    0    0 -0.12713723588E+03  0.15537990364E+03  0.15936250481E+04  0.16075945400E+04  0.66427554060E+02 0.  0.
         13    1    3    3    0    0 -0.55561045597E+02  0.11768837306E+03  0.93210393454E+03  0.94114575265E+03  0.00000000000E+00 0. -1.
        -13    1    3    3    0    0 -0.71576190287E+02  0.37691530588E+02  0.66152111354E+03  0.66644878735E+03  0.00000000000E+00 0.  1.
         22    1    1    2    0    0  0.12713723588E+03 -0.15537990364E+03 -0.25323237154E+03  0.32316160849E+03  0.00000000000E+00 0. -1.
<mgrwt>
<rscale>  0 0.13896643E+04</rscale>
<asrwt>0</asrwt>
<pdfrwt beam="1">  1        2 0.25162683E+00 0.13896643E+04</pdfrwt>
<pdfrwt beam="2">  1       -2 0.45412576E-01 0.13896643E+04</pdfrwt>
<totfact> 0.47702086E+01</totfact>
</mgrwt>
</event>
<event>
 6    1  0.4630212E-004  0.1606532E+04  0.7818608E-02  0.8816545E-01
         -2   -1    0    0    0  501 -0.00000000000E+00  0.00000000000E+00  0.57276793298E+03  0.57276793298E+03  0.00000000000E+00 0. -1.
          2   -1    0    0  501    0  0.00000000000E+00 -0.00000000000E+00 -0.11265235078E+04  0.11265235078E+04  0.00000000000E+00 0.  1.
         23    2    1    2    0    0  0.67135849177E+03  0.18103453289E+02 -0.73884083465E+03  0.10026519982E+04  0.91516616343E+02 0.  0.
         13    1    3    3    0    0  0.26501752904E+03 -0.37511939987E+02 -0.29560091203E+03  0.39877479300E+03  0.00000000000E+00 0.  1.
        -13    1    3    3    0    0  0.40634096273E+03  0.55615393275E+02 -0.44323992262E+03  0.60387720520E+03  0.00000000000E+00 0. -1.
         22    1    1    2    0    0 -0.67135849177E+03 -0.18103453289E+02  0.18508525986E+03  0.69663944254E+03  0.00000000000E+00 0. -1.
<mgrwt>
<rscale>  0 0.16065323E+04</rscale>
<asrwt>0</asrwt>
<pdfrwt beam="1">  1        2 0.17331131E+00 0.16065323E+04</pdfrwt>
<pdfrwt beam="2">  1       -2 0.88118145E-01 0.16065323E+04</pdfrwt>
<totfact> 0.22318134E+01</totfact>
</mgrwt>
</event>
<event>
 6    1  0.4630212E-004  0.5015706E+04  0.7818608E-02  0.7826089E-01
         -2   -1    0    0    0  501 -0.00000000000E+00  0.00000000000E+00  0.15835283230E+04  0.15835283230E+04  0.00000000000E+00 0. -1.
          2   -1    0    0  501    0  0.00000000000E+00 -0.00000000000E+00 -0.39717175646E+04  0.39717175646E+04  0.00000000000E+00 0.  1.
         23    2    1    2    0    0  0.14321199815E+04 -0.59561081312E+03  0.98692014635E+03  0.18408033637E+04  0.93945551121E+02 0.  0.
         13    1    3    3    0    0  0.79326602247E+03 -0.37570202462E+03  0.58076226425E+03  0.10524769837E+04  0.00000000000E+00 0.  1.
        -13    1    3    3    0    0  0.63885395903E+03 -0.21990878851E+03  0.40615788210E+03  0.78832638001E+03  0.00000000000E+00 0. -1.
         22    1    1    2    0    0 -0.14321199815E+04  0.59561081312E+03 -0.33751093880E+04  0.37144425239E+04  0.00000000000E+00 0.  1.
<mgrwt>
<rscale>  0 0.50157062E+04</rscale>
<asrwt>0</asrwt>
<pdfrwt beam="1">  1        2 0.61103347E+00 0.50157062E+04</pdfrwt>
<pdfrwt beam="2">  1       -2 0.24361974E+00 0.50157062E+04</pdfrwt>
<totfact> 0.18362881E-02</totfact>
</mgrwt>
</event>
<event>
 6    1  0.4630212E-004  0.5203676E+04  0.7818608E-02  0.7797834E-01
          2   -1    0    0  501    0  0.00000000000E+00  0.00000000000E+00  0.31630456748E+04  0.31630456748E+04  0.00000000000E+00 0.  1.
         -2   -1    0    0    0  501 -0.00000000000E+00 -0.00000000000E+00 -0.21402033565E+04  0.21402033565E+04  0.00000000000E+00 0. -1.
         23    2    1    2    0    0 -0.19120161720E+04 -0.10977276586E+03  0.23052541597E+04  0.29983767933E+04  0.90613198008E+02 0.  0.
         13    1    3    3    0    0 -0.89671601416E+03 -0.93565161462E+02  0.11103788227E+04  0.14303129656E+04  0.00000000000E+00 0. -1.
        -13    1    3    3    0    0 -0.10153001578E+04 -0.16207604402E+02  0.11948753370E+04  0.15680638278E+04  0.00000000000E+00 0.  1.
         22    1    1    2    0    0  0.19120161720E+04  0.10977276586E+03 -0.12824118415E+04  0.23048722379E+04  0.00000000000E+00 0. -1.
<mgrwt>
<rscale>  0 0.52036760E+04</rscale>
<asrwt>0</asrwt>
<pdfrwt beam="1">  1        2 0.48662241E+00 0.52036760E+04</pdfrwt>
<pdfrwt beam="2">  1       -2 0.32926205E+00 0.52036760E+04</pdfrwt>
<totfact> 0.20581194E-02</totfact>
</mgrwt>
</event>
<event>
 6    1  0.4630212E-004  0.1207263E+04  0.7818608E-02  0.9106523E-01
          2   -1    0    0  501    0  0.00000000000E+00  0.00000000000E+00  0.66898968026E+03  0.66898968026E+03  0.00000000000E+00 0.  1.
         -2   -1    0    0    0  501 -0.00000000000E+00 -0.00000000000E+00 -0.54465867832E+03  0.54465867832E+03  0.00000000000E+00 0. -1.
         23    2    1    2    0    0 -0.52193150112E+03 -0.28937269039E+03 -0.13116382707E+02  0.60124258676E+03  0.71913578906E+02 0.  0.
         11    1    3    3    0    0 -0.28924712096E+03 -0.14792036970E+03  0.27005003326E+02  0.32599632354E+03  0.00000000000E+00 0. -1.
        -11    1    3    3    0    0 -0.23268438015E+03 -0.14145232069E+03 -0.40121386033E+02  0.27524626322E+03  0.00000000000E+00 0.  1.
         22    1    1    2    0    0  0.52193150112E+03  0.28937269039E+03  0.13744738465E+03  0.61240577182E+03  0.00000000000E+00 0. -1.
<mgrwt>
<rscale>  0 0.12072631E+04</rscale>
<asrwt>0</asrwt>
<pdfrwt beam="1">  1        2 0.10292149E+00 0.12072631E+04</pdfrwt>
<pdfrwt beam="2">  1       -2 0.83793643E-01 0.12072631E+04</pdfrwt>
<totfact> 0.53281567E+01</totfact>
</mgrwt>
</event>
<event>
 6    1  0.4630212E-004  0.5695036E+03  0.7818608E-02  0.9970778E-01
         -2   -1    0    0    0  501 -0.00000000000E+00  0.00000000000E+00  0.36348353017E+02  0.36348353017E+02  0.00000000000E+00 0. -1.
          2   -1    0    0  501    0  0.00000000000E+00 -0.00000000000E+00 -0.22307364772E+04  0.22307364772E+04  0.00000000000E+00 0.  1.
         23    2    1    2    0    0  0.80767863835E+02  0.76369192358E+02 -0.21370989164E+04  0.21420338218E+04  0.93602425139E+02 0.  0.
         11    1    3    3    0    0  0.94474119065E+02  0.77252249610E+02 -0.15580897754E+04  0.15628618037E+04  0.00000000000E+00 0. -1.
        -11    1    3    3    0    0 -0.13706255230E+02 -0.88305725226E+00 -0.57900914100E+03  0.57917201813E+03  0.00000000000E+00 0.  1.
         22    1    1    2    0    0 -0.80767863835E+02 -0.76369192358E+02 -0.57289207771E+02  0.12505100838E+03  0.00000000000E+00 0. -1.
<mgrwt>
<rscale>  0 0.56950363E+03</rscale>
<asrwt>0</asrwt>
<pdfrwt beam="1">  1        2 0.34319042E+00 0.56950363E+03</pdfrwt>
<pdfrwt beam="2">  1       -2 0.55920511E-02 0.56950363E+03</pdfrwt>
<totfact> 0.89720773E+02</totfact>
</mgrwt>
</event>
<event>
 6    1  0.4630212E-004  0.2170115E+04  0.7818608E-02  0.8530971E-01
         -2   -1    0    0    0  501 -0.00000000000E+00  0.00000000000E+00  0.47590427212E+03  0.47590427212E+03  0.00000000000E+00 0. -1.
          2   -1    0    0  501    0  0.00000000000E+00 -0.00000000000E+00 -0.24739215146E+04  0.24739215146E+04  0.00000000000E+00 0.  1.
         23    2    1    2    0    0  0.48453545130E+03  0.77829018144E+03 -0.21679970837E+03  0.94651699528E+03  0.91553802189E+02 0.  0.
         13    1    3    3    0    0  0.26493068420E+03  0.41764590123E+03 -0.70184153237E+02  0.49954197182E+03  0.00000000000E+00 0. -1.
        -13    1    3    3    0    0  0.21960476711E+03  0.36064428021E+03 -0.14661555514E+03  0.44697502345E+03  0.00000000000E+00 0.  1.
         22    1    1    2    0    0 -0.48453545130E+03 -0.77829018144E+03 -0.17812175341E+04  0.20033087915E+04  0.00000000000E+00 0.  1.
<mgrwt>
<rscale>  0 0.21701150E+04</rscale>
<asrwt>0</asrwt>
<pdfrwt beam="1">  1        2 0.38060331E+00 0.21701150E+04</pdfrwt>
<pdfrwt beam="2">  1       -2 0.73216042E-01 0.21701150E+04</pdfrwt>
<totfact> 0.55629257E+00</totfact>
</mgrwt>
</event>
<event>
 6    1  0.4630212E-004  0.2064246E+04  0.7818608E-02  0.8577159E-01
          2   -1    0    0  501    0  0.00000000000E+00  0.00000000000E+00  0.12991630189E+04  0.12991630189E+04  0.00000000000E+00 0.  1.
         -2   -1    0    0    0  501 -0.00000000000E+00 -0.00000000000E+00 -0.81997280562E+03  0.81997280562E+03  0.00000000000E+00 0. -1.
         23    2    1    2    0    0  0.16903752721E+03 -0.79465593841E+02  0.12800776099E+04  0.12967556884E+04  0.89934208454E+02 0.  0.
         11    1    3    3    0    0  0.24876368703E+02 -0.63467562067E+01  0.47041917865E+03  0.47111921917E+03  0.00000000000E+00 0.  1.
        -11    1    3    3    0    0  0.14416115851E+03 -0.73118837635E+02  0.80965843123E+03  0.82563646922E+03  0.00000000000E+00 0. -1.
         22    1    1    2    0    0 -0.16903752721E+03  0.79465593841E+02 -0.80088739662E+03  0.82238013611E+03  0.00000000000E+00 0. -1.
<mgrwt>
<rscale>  0 0.20642464E+04</rscale>
<asrwt>0</asrwt>
<pdfrwt beam="1">  1        2 0.19987123E+00 0.20642464E+04</pdfrwt>
<pdfrwt beam="2">  1       -2 0.12614966E+00 0.20642464E+04</pdfrwt>
<totfact> 0.71685251E+00</totfact>
</mgrwt>
</event>
<event>
 6    1  0.4630212E-004  0.1029477E+04  0.7818608E-02  0.9276793E-01
         -2   -1    0    0    0  501 -0.00000000000E+00  0.00000000000E+00  0.56325876136E+03  0.56325876136E+03  0.00000000000E+00 0. -1.
          2   -1    0    0  501    0  0.00000000000E+00 -0.00000000000E+00 -0.47039811491E+03  0.47039811491E+03  0.00000000000E+00 0.  1.
         23    2    1    2    0    0 -0.22198558436E+03  0.25517088152E+03  0.43104908397E+03  0.55536700839E+03  0.90771266264E+02 0.  0.
         13    1    3    3    0    0 -0.13098316994E+03  0.19658754228E+03  0.33957453229E+03  0.41365941978E+03  0.00000000000E+00 0. -1.
        -13    1    3    3    0    0 -0.91002414421E+02  0.58583339240E+02  0.91474551678E+02  0.14170758862E+03  0.00000000000E+00 0.  1.
         22    1    1    2    0    0  0.22198558436E+03 -0.25517088152E+03 -0.33818843752E+03  0.47828986787E+03  0.00000000000E+00 0.  1.
<mgrwt>
<rscale>  0 0.10294773E+04</rscale>
<asrwt>0</asrwt>
<pdfrwt beam="1">  1        2 0.72368941E-01 0.10294773E+04</pdfrwt>
<pdfrwt beam="2">  1       -2 0.86655194E-01 0.10294773E+04</pdfrwt>
<totfact> 0.76008268E+01</totfact>
</mgrwt>
</event>
<event>
 6    1  0.4630212E-004  0.1591206E+04  0.7818608E-02  0.8825969E-01
          2   -1    0    0  501    0  0.00000000000E+00  0.00000000000E+00  0.31844511694E+04  0.31844511694E+04  0.00000000000E+00 0.  1.
         -2   -1    0    0    0  501 -0.00000000000E+00 -0.00000000000E+00 -0.19877339235E+03  0.19877339235E+03  0.00000000000E+00 0. -1.
         23    2    1    2    0    0 -0.24064233030E+03 -0.42987521776E+03  0.28191191320E+04  0.28631830094E+04  0.87651758038E+02 0.  0.
         11    1    3    3    0    0 -0.11897270045E+03 -0.14745333871E+03  0.91728735066E+03  0.93664992086E+03  0.00000000000E+00 0. -1.
        -11    1    3    3    0    0 -0.12166962984E+03 -0.28242187905E+03  0.19018317813E+04  0.19265330885E+04  0.00000000000E+00 0.  1.
         22    1    1    2    0    0  0.24064233030E+03  0.42987521776E+03  0.16655864505E+03  0.52004155239E+03  0.00000000000E+00 0. -1.
<mgrwt>
<rscale>  0 0.15912060E+04</rscale>
<asrwt>0</asrwt>
<pdfrwt beam="1">  1        2 0.48991553E+00 0.15912060E+04</pdfrwt>
<pdfrwt beam="2">  1       -2 0.30580524E-01 0.15912060E+04</pdfrwt>
<totfact> 0.12702980E+01</totfact>
</mgrwt>
</event>
<event>
 6    1  0.4630212E-004  0.2336153E+04  0.7818608E-02  0.8463802E-01
         -2   -1    0    0    0  501 -0.00000000000E+00  0.00000000000E+00  0.93883139459E+03  0.93883139459E+03  0.00000000000E+00 0. -1.
          2   -1    0    0  501    0  0.00000000000E+00 -0.00000000000E+00 -0.14532983699E+04  0.14532983699E+04  0.00000000000E+00 0.  1.
         23    2    1    2    0    0  0.66697296530E+03  0.30959587408E+03 -0.11846155223E+04  0.13972420238E+04  0.90932919723E+02 0.  0.
         11    1    3    3    0    0  0.37449094760E+03  0.22214173201E+03 -0.71342418141E+03  0.83580169990E+03  0.00000000000E+00 0.  1.
        -11    1    3    3    0    0  0.29248201770E+03  0.87454142071E+02 -0.47119134085E+03  0.56144032393E+03  0.00000000000E+00 0. -1.
         22    1    1    2    0    0 -0.66697296530E+03 -0.30959587408E+03  0.67014854691E+03  0.99488774071E+03  0.00000000000E+00 0. -1.
<mgrwt>
<rscale>  0 0.23361525E+04</rscale>
<asrwt>0</asrwt>
<pdfrwt beam="1">  1        2 0.22358436E+00 0.23361525E+04</pdfrwt>
<pdfrwt beam="2">  1       -2 0.14443560E+00 0.23361525E+04</pdfrwt>
<totfact> 0.40380902E+00</totfact>
</mgrwt>
</event>
<event>
 6    1  0.4630212E-004  0.3536307E+04  0.7818608E-02  0.8105239E-01
          2   -1    0    0  501    0  0.00000000000E+00  0.00000000000E+00  0.22878416635E+04  0.22878416635E+04  0.00000000000E+00 0.  1.
         -2   -1    0    0    0  501 -0.00000000000E+00 -0.00000000000E+00 -0.13665138957E+04  0.13665138957E+04  0.00000000000E+00 0. -1.
         23    2    1    2    0    0  0.28626840040E+03 -0.13635933814E+04  0.15835514313E+04  0.21116706635E+04  0.10090267007E+03 0.  0.
         11    1    3    3    0    0  0.12459631243E+03 -0.37664768077E+03  0.43604443775E+03  0.58951036310E+03  0.00000000000E+00 0. -1.
        -11    1    3    3    0    0  0.16167208797E+03 -0.98694570059E+03  0.11475069936E+04  0.15221603004E+04  0.00000000000E+00 0.  1.
         22    1    1    2    0    0 -0.28626840040E+03  0.13635933814E+04 -0.66222366352E+03  0.15426848957E+04  0.00000000000E+00 0. -1.
<mgrwt>
<rscale>  0 0.35363074E+04</rscale>
<asrwt>0</asrwt>
<pdfrwt beam="1">  1        2 0.35197564E+00 0.35363074E+04</pdfrwt>
<pdfrwt beam="2">  1       -2 0.21023291E+00 0.35363074E+04</pdfrwt>
<totfact> 0.43064839E-01</totfact>
</mgrwt>
</event>
<event>
 6    1  0.4630212E-004  0.3251223E+04  0.7818608E-02  0.8175419E-01
          2   -1    0    0  501    0  0.00000000000E+00  0.00000000000E+00  0.21946617222E+04  0.21946617222E+04  0.00000000000E+00 0.  1.
         -2   -1    0    0    0  501 -0.00000000000E+00 -0.00000000000E+00 -0.12041092657E+04  0.12041092657E+04  0.00000000000E+00 0. -1.
         23    2    1    2    0    0 -0.36491119419E+02 -0.15782280636E+04  0.89536522607E+03  0.18172539847E+04  0.92723968817E+02 0.  0.
         11    1    3    3    0    0  0.11294858030E+02 -0.12082989258E+04  0.68067651561E+03  0.13868793699E+04  0.00000000000E+00 0. -1.
        -11    1    3    3    0    0 -0.47785977449E+02 -0.36992913785E+03  0.21468871046E+03  0.43037461481E+03  0.00000000000E+00 0.  1.
         22    1    1    2    0    0  0.36491119419E+02  0.15782280636E+04  0.95187230488E+02  0.15815170032E+04  0.00000000000E+00 0. -1.
<mgrwt>
<rscale>  0 0.32512229E+04</rscale>
<asrwt>0</asrwt>
<pdfrwt beam="1">  1        2 0.33764026E+00 0.32512229E+04</pdfrwt>
<pdfrwt beam="2">  1       -2 0.18524758E+00 0.32512229E+04</pdfrwt>
<totfact> 0.72771438E-01</totfact>
</mgrwt>
</event>
<event>
 6    1  0.4630212E-004  0.1428368E+04  0.7818608E-02  0.8933537E-01
         -2   -1    0    0    0  501 -0.00000000000E+00  0.00000000000E+00  0.22877168038E+03  0.22877168038E+03  0.00000000000E+00 0. -1.
          2   -1    0    0  501    0  0.00000000000E+00 -0.00000000000E+00 -0.22295529644E+04  0.22295529644E+04  0.00000000000E+00 0.  1.
         23    2    1    2    0    0 -0.24946635362E+03  0.62135558465E+03 -0.59145393353E+03  0.89802986333E+03  0.91234071416E+02 0.  0.
         11    1    3    3    0    0 -0.18950738023E+02  0.14076415763E+03 -0.10811505261E+03  0.17850082113E+03  0.00000000000E+00 0. -1.
        -11    1    3    3    0    0 -0.23051561560E+03  0.48059142702E+03 -0.48333888092E+03  0.71952904220E+03  0.00000000000E+00 0.  1.
         22    1    1    2    0    0  0.24946635362E+03 -0.62135558465E+03 -0.14093273504E+04  0.15602947814E+04  0.00000000000E+00 0.  1.
<mgrwt>
<rscale>  0 0.14283677E+04</rscale>
<asrwt>0</asrwt>
<pdfrwt beam="1">  1        2 0.34300813E+00 0.14283677E+04</pdfrwt>
<pdfrwt beam="2">  1       -2 0.35195645E-01 0.14283677E+04</pdfrwt>
<totfact> 0.36642701E+01</totfact>
</mgrwt>
</event>
<event>
 6    1  0.4630212E-004  0.1409906E+04  0.7818608E-02  0.8946679E-01
         -2   -1    0    0    0  501 -0.00000000000E+00  0.00000000000E+00  0.41481540200E+03  0.41481540200E+03  0.00000000000E+00 0. -1.
          2   -1    0    0  501    0  0.00000000000E+00 -0.00000000000E+00 -0.11980241024E+04  0.11980241024E+04  0.00000000000E+00 0.  1.
         23    2    1    2    0    0  0.25393150211E+03 -0.65200688579E+03 -0.32891172705E+03  0.77858539031E+03  0.91750198493E+02 0.  0.
         13    1    3    3    0    0  0.13065850139E+03 -0.22972612039E+03 -0.14827213387E+03  0.30303524557E+03  0.00000000000E+00 0.  1.
        -13    1    3    3    0    0  0.12327300072E+03 -0.42228076540E+03 -0.18063959319E+03  0.47555014474E+03  0.00000000000E+00 0. -1.
         22    1    1    2    0    0 -0.25393150211E+03  0.65200688579E+03 -0.45429697333E+03  0.83425411408E+03  0.00000000000E+00 0.  1.
<mgrwt>
<rscale>  0 0.14099062E+04</rscale>
<asrwt>0</asrwt>
<pdfrwt beam="1">  1        2 0.18431140E+00 0.14099062E+04</pdfrwt>
<pdfrwt beam="2">  1       -2 0.63817755E-01 0.14099062E+04</pdfrwt>
<totfact> 0.41951559E+01</totfact>
</mgrwt>
</event>
<event>
 6    1  0.5116011E-004  0.3057966E+04  0.7818608E-02  0.8227369E-01
          1   -1    0    0  501    0  0.00000000000E+00  0.00000000000E+00  0.25856072285E+04  0.25856072285E+04  0.00000000000E+00 0.  1.
         -1   -1    0    0    0  501 -0.00000000000E+00 -0.00000000000E+00 -0.90415477273E+03  0.90415477273E+03  0.00000000000E+00 0. -1.
         23    2    1    2    0    0  0.30300090121E+03 -0.27512346001E+02  0.25500138034E+04  0.25694548297E+04  0.83434099237E+02 0.  0.
         13    1    3    3    0    0  0.11678749010E+03 -0.24852386087E+02  0.13245644796E+04  0.13299353441E+04  0.00000000000E+00 0.  1.
        -13    1    3    3    0    0  0.18621341111E+03 -0.26599599141E+01  0.12254493238E+04  0.12395194856E+04  0.00000000000E+00 0. -1.
         22    1    1    2    0    0 -0.30300090121E+03  0.27512346001E+02 -0.86856134766E+03  0.92030717153E+03  0.00000000000E+00 0. -1.
<mgrwt>
<rscale>  0 0.30579661E+04</rscale>
<asrwt>0</asrwt>
<pdfrwt beam="1">  1        1 0.39778572E+00 0.30579661E+04</pdfrwt>
<pdfrwt beam="2">  1       -1 0.13910074E+00 0.30579661E+04</pdfrwt>
<totfact> 0.42611840E-01</totfact>
</mgrwt>
</event>
<event>
 6    1  0.4630212E-004  0.3234421E+04  0.7818608E-02  0.8179785E-01
         -2   -1    0    0    0  501 -0.00000000000E+00  0.00000000000E+00  0.19034599356E+04  0.19034599356E+04  0.00000000000E+00 0. -1.
          2   -1    0    0  501    0  0.00000000000E+00 -0.00000000000E+00 -0.13740080488E+04  0.13740080488E+04  0.00000000000E+00 0.  1.
         23    2    1    2    0    0  0.10984312888E+03 -0.15766958491E+04 -0.75937361741E+02  0.15849753091E+04  0.91350611008E+02 0.  0.
         11    1    3    3    0    0  0.24558062693E+02 -0.87740567976E+03 -0.69179623707E+02  0.88047126339E+03  0.00000000000E+00 0. -1.
        -11    1    3    3    0    0  0.85285066187E+02 -0.69929016934E+03 -0.67577380347E+01  0.70450404575E+03  0.00000000000E+00 0.  1.
         22    1    1    2    0    0 -0.10984312888E+03  0.15766958491E+04  0.60538924850E+03  0.16924926752E+04  0.00000000000E+00 0. -1.
<mgrwt>
<rscale>  0 0.32344207E+04</rscale>
<asrwt>0</asrwt>
<pdfrwt beam="1">  1        2 0.21138585E+00 0.32344207E+04</pdfrwt>
<pdfrwt beam="2">  1       -2 0.29283999E+00 0.32344207E+04</pdfrwt>
<totfact> 0.44207181E-01</totfact>
</mgrwt>
</event>
<event>
 6    1  0.4630212E-004  0.1853824E+04  0.7818608E-02  0.8678189E-01
         -2   -1    0    0    0  501 -0.00000000000E+00  0.00000000000E+00  0.97095577124E+03  0.97095577124E+03  0.00000000000E+00 0. -1.
          2   -1    0    0  501    0  0.00000000000E+00 -0.00000000000E+00 -0.88486658536E+03  0.88486658536E+03  0.00000000000E+00 0.  1.
         23    2    1    2    0    0  0.20756284800E+03  0.84732099895E+03  0.34997118764E+03  0.94441195398E+03  0.91645488234E+02 0.  0.
         13    1    3    3    0    0  0.24347353562E+02  0.13739362891E+03  0.22181673359E+02  0.14128633877E+03  0.00000000000E+00 0. -1.
        -13    1    3    3    0    0  0.18321549444E+03  0.70992737004E+03  0.32778951428E+03  0.80312561521E+03  0.00000000000E+00 0.  1.
         22    1    1    2    0    0 -0.20756284800E+03 -0.84732099895E+03 -0.26388200176E+03  0.91141040261E+03  0.00000000000E+00 0. -1.
<mgrwt>
<rscale>  0 0.18538245E+04</rscale>
<asrwt>0</asrwt>
<pdfrwt beam="1">  1        2 0.13613332E+00 0.18538245E+04</pdfrwt>
<pdfrwt beam="2">  1       -2 0.14937781E+00 0.18538245E+04</pdfrwt>
<totfact> 0.85481664E+00</totfact>
</mgrwt>
</event>
<event>
 6    1  0.4630212E-004  0.3658204E+04  0.7818608E-02  0.8077288E-01
          2   -1    0    0  501    0  0.00000000000E+00  0.00000000000E+00  0.36815121009E+04  0.36815121009E+04  0.00000000000E+00 0.  1.
         -2   -1    0    0    0  501 -0.00000000000E+00 -0.00000000000E+00 -0.90876108229E+03  0.90876108229E+03  0.00000000000E+00 0. -1.
         23    2    1    2    0    0  0.29946163099E+02  0.70941304914E+03 -0.72703280359E+03  0.10191878511E+04  0.77482458302E+02 0.  0.
         11    1    3    3    0    0  0.34751228257E+02  0.61317323652E+03 -0.66155201779E+03  0.90268496060E+03  0.00000000000E+00 0. -1.
        -11    1    3    3    0    0 -0.48050651580E+01  0.96239812621E+02 -0.65480785799E+02  0.11650289049E+03  0.00000000000E+00 0.  1.
         22    1    1    2    0    0 -0.29946163099E+02 -0.70941304914E+03  0.34997838222E+04  0.35710853321E+04  0.00000000000E+00 0.  1.
<mgrwt>
<rscale>  0 0.36582044E+04</rscale>
<asrwt>0</asrwt>
<pdfrwt beam="1">  1        2 0.56638647E+00 0.36582044E+04</pdfrwt>
<pdfrwt beam="2">  1       -2 0.13980940E+00 0.36582044E+04</pdfrwt>
<totfact> 0.17572027E-01</totfact>
</mgrwt>
</event>
<event>
 6    1  0.4630212E-004  0.1626288E+04  0.7818608E-02  0.8804559E-01
          1   -1    0    0  501    0  0.00000000000E+00  0.00000000000E+00  0.12855900203E+04  0.12855900203E+04  0.00000000000E+00 0.  1.
         -1   -1    0    0    0  501 -0.00000000000E+00 -0.00000000000E+00 -0.51431883623E+03  0.51431883623E+03  0.00000000000E+00 0. -1.
         23    2    1    2    0    0 -0.79444794456E+01 -0.32772319192E+03 -0.43392401062E+03  0.55092484438E+03  0.88105231911E+02 0.  0.
         13    1    3    3    0    0 -0.46346607233E+02 -0.14077344282E+03 -0.20288250907E+03  0.25124984118E+03  0.00000000000E+00 0.  1.
        -13    1    3    3    0    0  0.38402127788E+02 -0.18694974910E+03 -0.23104150155E+03  0.29967500320E+03  0.00000000000E+00 0. -1.
         22    1    1    2    0    0  0.79444794456E+01  0.32772319192E+03  0.12051951947E+04  0.12489840121E+04  0.00000000000E+00 0.  1.
<mgrwt>
<rscale>  0 0.16262880E+04</rscale>
<asrwt>0</asrwt>
<pdfrwt beam="1">  1        1 0.19778308E+00 0.16262880E+04</pdfrwt>
<pdfrwt beam="2">  1       -1 0.79125975E-01 0.16262880E+04</pdfrwt>
<totfact> 0.14163267E+01</totfact>
</mgrwt>
</event>
<event>
 6    1  0.4630212E-004  0.1199836E+04  0.7818608E-02  0.9113000E-01
         -2   -1    0    0    0  501 -0.00000000000E+00  0.00000000000E+00  0.29141196535E+03  0.29141196535E+03  0.00000000000E+00 0. -1.
          2   -1    0    0  501    0  0.00000000000E+00 -0.00000000000E+00 -0.12350276208E+04  0.12350276208E+04  0.00000000000E+00 0.  1.
         23    2    1    2    0    0 -0.54700941902E+03 -0.23570512224E+03 -0.42630982365E+03  0.73752797338E+03  0.86204620688E+02 0.  0.
         11    1    3    3    0    0 -0.93641546703E+02 -0.16271147540E+02 -0.96670813447E+02  0.13556819569E+03  0.00000000000E+00 0. -1.
        -11    1    3    3    0    0 -0.45336787232E+03 -0.21943397470E+03 -0.32963901020E+03  0.60195977769E+03  0.00000000000E+00 0.  1.
         22    1    1    2    0    0  0.54700941902E+03  0.23570512224E+03 -0.51730583181E+03  0.78891161278E+03  0.00000000000E+00 0.  1.
<mgrwt>
<rscale>  0 0.11998364E+04</rscale>
<asrwt>0</asrwt>
<pdfrwt beam="1">  1        2 0.19000425E+00 0.11998364E+04</pdfrwt>
<pdfrwt beam="2">  1       -2 0.44832611E-01 0.11998364E+04</pdfrwt>
<totfact> 0.84007065E+01</totfact>
</mgrwt>
</event>
<event>
 6    1  0.4630212E-004  0.4654121E+04  0.7818608E-02  0.7884197E-01
          2   -1    0    0  501    0  0.00000000000E+00  0.00000000000E+00  0.22143216200E+04  0.22143216200E+04  0.00000000000E+00 0.  1.
         -2   -1    0    0    0  501 -0.00000000000E+00 -0.00000000000E+00 -0.24455391649E+04  0.24455391649E+04  0.00000000000E+00 0. -1.
         23    2    1    2    0    0  0.11333797475E+04  0.11416914457E+04 -0.17980368502E+04  0.24142134962E+04  0.86494399879E+02 0.  0.
         11    1    3    3    0    0  0.10179923074E+04  0.99603624527E+03 -0.15622726163E+04  0.21140227689E+04  0.00000000000E+00 0. -1.
        -11    1    3    3    0    0  0.11538744002E+03  0.14565520047E+03 -0.23576423397E+03  0.30019072730E+03  0.00000000000E+00 0.  1.
         22    1    1    2    0    0 -0.11333797475E+04 -0.11416914457E+04  0.15668193054E+04  0.22456472886E+04  0.00000000000E+00 0.  1.
<mgrwt>
<rscale>  0 0.46541209E+04</rscale>
<asrwt>0</asrwt>
<pdfrwt beam="1">  1        2 0.34066486E+00 0.46541209E+04</pdfrwt>
<pdfrwt beam="2">  1       -2 0.37623679E+00 0.46541209E+04</pdfrwt>
<totfact> 0.40164341E-02</totfact>
</mgrwt>
</event>
<event>
 6    1  0.4630212E-004  0.2367886E+04  0.7818608E-02  0.8451625E-01
         -1   -1    0    0    0  501 -0.00000000000E+00  0.00000000000E+00  0.59270012903E+03  0.59270012903E+03  0.00000000000E+00 0.  1.
          1   -1    0    0  501    0  0.00000000000E+00 -0.00000000000E+00 -0.23649755766E+04  0.23649755766E+04  0.00000000000E+00 0. -1.
         23    2    1    2    0    0  0.63937457707E+03  0.33197477395E+03  0.28303335713E+03  0.77976354416E+03  0.94425649111E+02 0.  0.
         13    1    3    3    0    0  0.35662459389E+03  0.23179335755E+03  0.14314150144E+03  0.44877472189E+03  0.00000000000E+00 0. -1.
        -13    1    3    3    0    0  0.28274998318E+03  0.10018141640E+03  0.13989185569E+03  0.33098882227E+03  0.00000000000E+00 0.  1.
         22    1    1    2    0    0 -0.63937457707E+03 -0.33197477395E+03 -0.20553088047E+04  0.21779121614E+04  0.00000000000E+00 0. -1.
<mgrwt>
<rscale>  0 0.23678863E+04</rscale>
<asrwt>0</asrwt>
<pdfrwt beam="1">  1        1 0.36384238E+00 0.23678863E+04</pdfrwt>
<pdfrwt beam="2">  1       -1 0.91184639E-01 0.23678863E+04</pdfrwt>
<totfact> 0.17705223E+00</totfact>
</mgrwt>
</event>
<event>
 6    1  0.4630212E-004  0.1705749E+04  0.7818608E-02  0.8758092E-01
         -2   -1    0    0    0  501 -0.00000000000E+00  0.00000000000E+00  0.34006247250E+03  0.34006247250E+03  0.00000000000E+00 0. -1.
          2   -1    0    0  501    0  0.00000000000E+00 -0.00000000000E+00 -0.21390036765E+04  0.21390036765E+04  0.00000000000E+00 0.  1.
         23    2    1    2    0    0 -0.27749757706E+03  0.68348378298E+03 -0.28902168884E+03  0.79858647666E+03  0.10025885110E+03 0.  0.
         11    1    3    3    0    0 -0.47905396374E+02  0.83209266036E+02 -0.55819404399E+01  0.96176228950E+02  0.00000000000E+00 0. -1.
        -11    1    3    3    0    0 -0.22959218068E+03  0.60027451694E+03 -0.28343974840E+03  0.70241024771E+03  0.00000000000E+00 0.  1.
         22    1    1    2    0    0  0.27749757706E+03 -0.68348378298E+03 -0.15099195152E+04  0.16804796724E+04  0.00000000000E+00 0.  1.
<mgrwt>
<rscale>  0 0.17057490E+04</rscale>
<asrwt>0</asrwt>
<pdfrwt beam="1">  1        2 0.32907750E+00 0.17057490E+04</pdfrwt>
<pdfrwt beam="2">  1       -2 0.52317302E-01 0.17057490E+04</pdfrwt>
<totfact> 0.18332735E+01</totfact>
</mgrwt>
</event>
<event>
 6    1  0.4630212E-004  0.2136996E+04  0.7818608E-02  0.8545119E-01
         -2   -1    0    0    0  501 -0.00000000000E+00  0.00000000000E+00  0.52904566426E+03  0.52904566426E+03  0.00000000000E+00 0. -1.
          2   -1    0    0  501    0  0.00000000000E+00 -0.00000000000E+00 -0.21580137402E+04  0.21580137402E+04  0.00000000000E+00 0.  1.
         23    2    1    2    0    0  0.96209543844E+02 -0.65083154237E+03 -0.18715097177E+04  0.19858715403E+04  0.91099824931E+02 0.  0.
         11    1    3    3    0    0  0.97164443856E+02 -0.41736413892E+03 -0.11326972422E+04  0.12110478091E+04  0.00000000000E+00 0.  1.
        -11    1    3    3    0    0 -0.95490001234E+00 -0.23346740346E+03 -0.73881247553E+03  0.77482373113E+03  0.00000000000E+00 0. -1.
         22    1    1    2    0    0 -0.96209543844E+02  0.65083154237E+03  0.24254164178E+03  0.70118786418E+03  0.00000000000E+00 0. -1.
<mgrwt>
<rscale>  0 0.21369958E+04</rscale>
<asrwt>0</asrwt>
<pdfrwt beam="1">  1        2 0.33200212E+00 0.21369958E+04</pdfrwt>
<pdfrwt beam="2">  1       -2 0.81391640E-01 0.21369958E+04</pdfrwt>
<totfact> 0.66595822E+00</totfact>
</mgrwt>
</event>
<event>
 6    1  0.4630212E-004  0.1309851E+04  0.7818608E-02  0.9021790E-01
          4   -1    0    0  501    0  0.00000000000E+00  0.00000000000E+00  0.77652267442E+03  0.77652267442E+03  0.00000000000E+00 0.  1.
         -4   -1    0    0    0  501 -0.00000000000E+00 -0.00000000000E+00 -0.55236914642E+03  0.55236914642E+03  0.00000000000E+00 0. -1.
         23    2    1    2    0    0 -0.21802757025E+02  0.49684900274E+03  0.54001502445E+03  0.73973753148E+03  0.90890577646E+02 0.  0.
         13    1    3    3    0    0  0.15097698557E+02  0.35056509175E+03  0.33441536164E+03  0.48472410519E+03  0.00000000000E+00 0. -1.
        -13    1    3    3    0    0 -0.36900455582E+02  0.14628391099E+03  0.20559966281E+03  0.25501342628E+03  0.00000000000E+00 0.  1.
         22    1    1    2    0    0  0.21802757025E+02 -0.49684900274E+03 -0.31586149645E+03  0.58915428937E+03  0.00000000000E+00 0. -1.
<mgrwt>
<rscale>  0 0.13098506E+04</rscale>
<asrwt>0</asrwt>
<pdfrwt beam="1">  1        4 0.11946503E+00 0.13098506E+04</pdfrwt>
<pdfrwt beam="2">  1       -4 0.84979868E-01 0.13098506E+04</pdfrwt>
<totfact> 0.12654976E+00</totfact>
</mgrwt>
</event>
<event>
 6    1  0.4630212E-004  0.2827393E+04  0.7818608E-02  0.8294814E-01
         -2   -1    0    0    0  501 -0.00000000000E+00  0.00000000000E+00  0.95293903344E+03  0.95293903344E+03  0.00000000000E+00 0. -1.
          2   -1    0    0  501    0  0.00000000000E+00 -0.00000000000E+00 -0.20972355503E+04  0.20972355503E+04  0.00000000000E+00 0.  1.
         23    2    1    2    0    0  0.37746746914E+03 -0.67114900145E+03 -0.18498460537E+04  0.20057978216E+04  0.91497574611E+02 0.  0.
         13    1    3    3    0    0  0.27377890953E+03 -0.45420675160E+03 -0.11669620698E+04  0.12818186833E+04  0.00000000000E+00 0.  1.
        -13    1    3    3    0    0  0.10368855960E+03 -0.21694224985E+03 -0.68288398387E+03  0.72397913823E+03  0.00000000000E+00 0. -1.
         22    1    1    2    0    0 -0.37746746914E+03  0.67114900145E+03  0.70554953686E+03  0.10443767622E+04  0.00000000000E+00 0. -1.
<mgrwt>
<rscale>  0 0.28273929E+04</rscale>
<asrwt>0</asrwt>
<pdfrwt beam="1">  1        2 0.32265162E+00 0.28273929E+04</pdfrwt>
<pdfrwt beam="2">  1       -2 0.14660601E+00 0.28273929E+04</pdfrwt>
<totfact> 0.16296970E+00</totfact>
</mgrwt>
</event>
<event>
 6    1  0.4630212E-004  0.3664373E+04  0.7818608E-02  0.8075903E-01
          1   -1    0    0  501    0  0.00000000000E+00  0.00000000000E+00  0.18085006288E+04  0.18085006288E+04  0.00000000000E+00 0.  1.
         -1   -1    0    0    0  501 -0.00000000000E+00 -0.00000000000E+00 -0.18561822620E+04  0.18561822620E+04  0.00000000000E+00 0. -1.
         23    2    1    2    0    0  0.45641918276E+01  0.16742946430E+04 -0.76350282717E+03  0.18437810908E+04  0.11536359994E+03 0.  0.
         13    1    3    3    0    0 -0.36355461561E+02  0.11035823318E+04 -0.46090059156E+03  0.11965137016E+04  0.00000000000E+00 0. -1.
        -13    1    3    3    0    0  0.40919653389E+02  0.57071231119E+03 -0.30260223561E+03  0.64726738924E+03  0.00000000000E+00 0.  1.
         22    1    1    2    0    0 -0.45641918276E+01 -0.16742946430E+04  0.71582119395E+03  0.18209018000E+04  0.00000000000E+00 0.  1.
<mgrwt>
<rscale>  0 0.36643727E+04</rscale>
<asrwt>0</asrwt>
<pdfrwt beam="1">  1        1 0.27823087E+00 0.36643727E+04</pdfrwt>
<pdfrwt beam="2">  1       -1 0.28556650E+00 0.36643727E+04</pdfrwt>
<totfact> 0.13251314E-01</totfact>
</mgrwt>
</event>
<event>
 6    1  0.4630212E-004  0.1161418E+04  0.7818608E-02  0.9147315E-01
         -2   -1    0    0    0  501 -0.00000000000E+00  0.00000000000E+00  0.55655862205E+03  0.55655862205E+03  0.00000000000E+00 0. -1.
          2   -1    0    0  501    0  0.00000000000E+00 -0.00000000000E+00 -0.60590682750E+03  0.60590682750E+03  0.00000000000E+00 0.  1.
         23    2    1    2    0    0  0.84107338913E+02 -0.49908065000E+03 -0.30245581203E+03  0.59658648708E+03  0.90996586037E+02 0.  0.
         11    1    3    3    0    0  0.85720070607E+02 -0.50236294184E+03 -0.29650850730E+03  0.58960474111E+03  0.00000000000E+00 0. -1.
        -11    1    3    3    0    0 -0.16127316940E+01  0.32822918369E+01 -0.59473047344E+01  0.69817459724E+01  0.00000000000E+00 0.  1.
         22    1    1    2    0    0 -0.84107338913E+02  0.49908065000E+03  0.25310760658E+03  0.56587896247E+03  0.00000000000E+00 0.  1.
<mgrwt>
<rscale>  0 0.11614175E+04</rscale>
<asrwt>0</asrwt>
<pdfrwt beam="1">  1        2 0.93216435E-01 0.11614175E+04</pdfrwt>
<pdfrwt beam="2">  1       -2 0.85624403E-01 0.11614175E+04</pdfrwt>
<totfact> 0.57475135E+01</totfact>
</mgrwt>
</event>
<event>
 6    1  0.4630212E-004  0.1160217E+04  0.7818608E-02  0.9148409E-01
         -1   -1    0    0    0  501 -0.00000000000E+00  0.00000000000E+00  0.32153059586E+03  0.32153059586E+03  0.00000000000E+00 0. -1.
          1   -1    0    0  501    0  0.00000000000E+00 -0.00000000000E+00 -0.10466375788E+04  0.10466375788E+04  0.00000000000E+00 0.  1.
         23    2    1    2    0    0  0.28603552579E+03  0.31998018338E+03 -0.81871285361E+03  0.92888956287E+03  0.91331503731E+02 0.  0.
         13    1    3    3    0    0  0.22592609980E+03  0.27142356571E+03 -0.59155705462E+03  0.68895072644E+03  0.00000000000E+00 0. -1.
        -13    1    3    3    0    0  0.60109425985E+02  0.48556617673E+02 -0.22715579899E+03  0.23993883643E+03  0.00000000000E+00 0.  1.
         22    1    1    2    0    0 -0.28603552579E+03 -0.31998018338E+03  0.93605870653E+02  0.43927861180E+03  0.00000000000E+00 0. -1.
<mgrwt>
<rscale>  0 0.11602172E+04</rscale>
<asrwt>0</asrwt>
<pdfrwt beam="1">  1        1 0.16102116E+00 0.11602172E+04</pdfrwt>
<pdfrwt beam="2">  1       -1 0.49466246E-01 0.11602172E+04</pdfrwt>
<totfact> 0.56586333E+01</totfact>
</mgrwt>
</event>
<event>
 6    1  0.4630212E-004  0.4061829E+04  0.7818608E-02  0.7992189E-01
         -2   -1    0    0    0  501 -0.00000000000E+00  0.00000000000E+00  0.16278846425E+04  0.16278846425E+04  0.00000000000E+00 0. -1.
          2   -1    0    0  501    0  0.00000000000E+00 -0.00000000000E+00 -0.25337258141E+04  0.25337258141E+04  0.00000000000E+00 0.  1.
         23    2    1    2    0    0 -0.54661944585E+03  0.12390173303E+04 -0.20018028445E+04  0.24194598454E+04  0.11231452237E+03 0.  0.
         13    1    3    3    0    0 -0.17860945588E+03  0.28656414854E+03 -0.48257445511E+03  0.58898086020E+03  0.00000000000E+00 0. -1.
        -13    1    3    3    0    0 -0.36800998997E+03  0.95245318174E+03 -0.15192283894E+04  0.18304789852E+04  0.00000000000E+00 0.  1.
         22    1    1    2    0    0  0.54661944585E+03 -0.12390173303E+04  0.10959616729E+04  0.17421506111E+04  0.00000000000E+00 0. -1.
<mgrwt>
<rscale>  0 0.40618288E+04</rscale>
<asrwt>0</asrwt>
<pdfrwt beam="1">  1        2 0.38980397E+00 0.40618288E+04</pdfrwt>
<pdfrwt beam="2">  1       -2 0.25044379E+00 0.40618288E+04</pdfrwt>
<totfact> 0.16679209E-01</totfact>
</mgrwt>
</event>
<event>
 6    1  0.4630212E-004  0.6797915E+03  0.7818608E-02  0.9752430E-01
          2   -1    0    0  501    0  0.00000000000E+00  0.00000000000E+00  0.70235209529E+03  0.70235209529E+03  0.00000000000E+00 0.  1.
         -2   -1    0    0    0  501 -0.00000000000E+00 -0.00000000000E+00 -0.16448887342E+03  0.16448887342E+03  0.00000000000E+00 0. -1.
         23    2    1    2    0    0 -0.29273243889E+03 -0.15348406369E+03  0.32984224717E+03  0.47629985117E+03  0.93893565368E+02 0.  0.
         13    1    3    3    0    0 -0.19319438497E+03 -0.82215392530E+02  0.26394583997E+03  0.33726969563E+03  0.00000000000E+00 0.  1.
        -13    1    3    3    0    0 -0.99538053917E+02 -0.71268671161E+02  0.65896407207E+02  0.13903015554E+03  0.00000000000E+00 0. -1.
         22    1    1    2    0    0  0.29273243889E+03  0.15348406369E+03  0.20802097470E+03  0.39054111755E+03  0.00000000000E+00 0.  1.
<mgrwt>
<rscale>  0 0.67979145E+03</rscale>
<asrwt>0</asrwt>
<pdfrwt beam="1">  1        2 0.10805417E+00 0.67979145E+03</pdfrwt>
<pdfrwt beam="2">  1       -2 0.25305981E-01 0.67979145E+03</pdfrwt>
<totfact> 0.57540238E+02</totfact>
</mgrwt>
</event>
<event>
 6    1  0.4630212E-004  0.1444461E+04  0.7818608E-02  0.8922250E-01
          1   -1    0    0  501    0  0.00000000000E+00  0.00000000000E+00  0.28650989304E+03  0.28650989304E+03  0.00000000000E+00 0.  1.
         -1   -1    0    0    0  501 -0.00000000000E+00 -0.00000000000E+00 -0.18205895232E+04  0.18205895232E+04  0.00000000000E+00 0. -1.
         23    2    1    2    0    0  0.66429790379E+03 -0.24946646558E+02 -0.36995853473E+03  0.76654282848E+03  0.93832565315E+02 0.  0.
         11    1    3    3    0    0  0.50398903143E+03  0.21359446633E+02 -0.27387975272E+03  0.57399589608E+03  0.00000000000E+00 0.  1.
        -11    1    3    3    0    0  0.16030887236E+03 -0.46306093190E+02 -0.96078782010E+02  0.19254693240E+03  0.00000000000E+00 0. -1.
         22    1    1    2    0    0 -0.66429790379E+03  0.24946646558E+02 -0.11641210954E+04  0.13405565878E+04  0.00000000000E+00 0. -1.
<mgrwt>
<rscale>  0 0.14444610E+04</rscale>
<asrwt>0</asrwt>
<pdfrwt beam="1">  1        1 0.44078445E-01 0.14444610E+04</pdfrwt>
<pdfrwt beam="2">  1       -1 0.28009070E+00 0.14444610E+04</pdfrwt>
<totfact> 0.40291525E+00</totfact>
</mgrwt>
</event>
<event>
 6    1  0.4630212E-004  0.2455243E+04  0.7818608E-02  0.8419106E-01
          2   -1    0    0  501    0  0.00000000000E+00  0.00000000000E+00  0.28542022718E+04  0.28542022718E+04  0.00000000000E+00 0.  1.
         -2   -1    0    0    0  501 -0.00000000000E+00 -0.00000000000E+00 -0.52801253050E+03  0.52801253050E+03  0.00000000000E+00 0. -1.
         23    2    1    2    0    0 -0.11890046211E+04 -0.14421218278E+03  0.80596808006E+03  0.14468587519E+04  0.96366795421E+02 0.  0.
         13    1    3    3    0    0 -0.54016213224E+03 -0.43140496610E+02  0.31339867974E+03  0.62598319787E+03  0.00000000000E+00 0.  1.
        -13    1    3    3    0    0 -0.64884248882E+03 -0.10107168617E+03  0.49256940032E+03  0.82087555401E+03  0.00000000000E+00 0. -1.
         22    1    1    2    0    0  0.11890046211E+04  0.14421218278E+03  0.15202216612E+04  0.19353560504E+04  0.00000000000E+00 0.  1.
<mgrwt>
<rscale>  0 0.24552430E+04</rscale>
<asrwt>0</asrwt>
<pdfrwt beam="1">  1        2 0.43910803E+00 0.24552430E+04</pdfrwt>
<pdfrwt beam="2">  1       -2 0.81232699E-01 0.24552430E+04</pdfrwt>
<totfact> 0.25624876E+00</totfact>
</mgrwt>
</event>
<event>
 6    1  0.4630212E-004  0.1486091E+04  0.7818608E-02  0.8893755E-01
          2   -1    0    0  501    0  0.00000000000E+00  0.00000000000E+00  0.92322883978E+03  0.92322883978E+03  0.00000000000E+00 0. -1.
         -2   -1    0    0    0  501 -0.00000000000E+00 -0.00000000000E+00 -0.59802818480E+03  0.59802818480E+03  0.00000000000E+00 0.  1.
         23    2    1    2    0    0 -0.19956891162E+03 -0.17588708979E+02 -0.56718003729E+03  0.60666399316E+03  0.78809217278E+02 0.  0.
         11    1    3    3    0    0 -0.14238880319E+03  0.76297977888E+01 -0.29847194330E+03  0.33078434973E+03  0.00000000000E+00 0. -1.
        -11    1    3    3    0    0 -0.57180108428E+02 -0.25218506767E+02 -0.26870809400E+03  0.27587964344E+03  0.00000000000E+00 0.  1.
         22    1    1    2    0    0  0.19956891162E+03  0.17588708979E+02  0.89238069228E+03  0.91459303142E+03  0.00000000000E+00 0. -1.
<mgrwt>
<rscale>  0 0.14860913E+04</rscale>
<asrwt>0</asrwt>
<pdfrwt beam="1">  1        2 0.14203521E+00 0.14860913E+04</pdfrwt>
<pdfrwt beam="2">  1       -2 0.92004336E-01 0.14860913E+04</pdfrwt>
<totfact> 0.27480315E+01</totfact>
</mgrwt>
</event>
<event>
 6    1  0.4630212E-004  0.2420693E+04  0.7818608E-02  0.8431797E-01
         -2   -1    0    0    0  501 -0.00000000000E+00  0.00000000000E+00  0.59269773783E+03  0.59269773783E+03  0.00000000000E+00 0. -1.
          2   -1    0    0  501    0  0.00000000000E+00 -0.00000000000E+00 -0.24716463880E+04  0.24716463880E+04  0.00000000000E+00 0.  1.
         23    2    1    2    0    0  0.11954337141E+04 -0.20498108866E+02 -0.71691751683E+03  0.13970714151E+04  0.91410478697E+02 0.  0.
         11    1    3    3    0    0  0.83116909079E+03 -0.45692263646E+02 -0.53056236051E+03  0.98713031502E+03  0.00000000000E+00 0.  1.
        -11    1    3    3    0    0  0.36426462329E+03  0.25194154779E+02 -0.18635515632E+03  0.40994110004E+03  0.00000000000E+00 0. -1.
         22    1    1    2    0    0 -0.11954337141E+04  0.20498108866E+02 -0.11620311333E+04  0.16672727108E+04  0.00000000000E+00 0.  1.
<mgrwt>
<rscale>  0 0.24206935E+04</rscale>
<asrwt>0</asrwt>
<pdfrwt beam="1">  1        2 0.38025329E+00 0.24206935E+04</pdfrwt>
<pdfrwt beam="2">  1       -2 0.91184267E-01 0.24206935E+04</pdfrwt>
<totfact> 0.33272044E+00</totfact>
</mgrwt>
</event>
<event>
 6    1  0.4630212E-004  0.2073892E+04  0.7818608E-02  0.8572832E-01
         -2   -1    0    0    0  501 -0.00000000000E+00  0.00000000000E+00  0.27083073419E+03  0.27083073419E+03  0.00000000000E+00 0. -1.
          2   -1    0    0  501    0  0.00000000000E+00 -0.00000000000E+00 -0.39702185192E+04  0.39702185192E+04  0.00000000000E+00 0.  1.
         23    2    1    2    0    0  0.45000758388E+03  0.87550551946E+03 -0.12006233163E+04  0.15553760398E+04  0.93174767815E+02 0.  0.
         13    1    3    3    0    0  0.55423605780E+02  0.18637368965E+03 -0.22261309558E+03  0.29557320344E+03  0.00000000000E+00 0.  1.
        -13    1    3    3    0    0  0.39458397810E+03  0.68913182982E+03 -0.97801022070E+03  0.12598028363E+04  0.00000000000E+00 0. -1.
         22    1    1    2    0    0 -0.45000758388E+03 -0.87550551946E+03 -0.24987644687E+04  0.26856732136E+04  0.00000000000E+00 0.  1.
<mgrwt>
<rscale>  0 0.20738922E+04</rscale>
<asrwt>0</asrwt>
<pdfrwt beam="1">  1        2 0.61080287E+00 0.20738922E+04</pdfrwt>
<pdfrwt beam="2">  1       -2 0.41666265E-01 0.20738922E+04</pdfrwt>
<totfact> 0.18388481E+00</totfact>
</mgrwt>
</event>
<event>
 6    1  0.4630212E-004  0.9840891E+03  0.7818608E-02  0.9326170E-01
          2   -1    0    0  501    0  0.00000000000E+00  0.00000000000E+00  0.31298577584E+04  0.31298577584E+04  0.00000000000E+00 0.  1.
         -2   -1    0    0    0  501 -0.00000000000E+00 -0.00000000000E+00 -0.77354270271E+02  0.77354270271E+02  0.00000000000E+00 0. -1.
         23    2    1    2    0    0 -0.28061129125E+03 -0.16921268149E+03  0.27168654818E+04  0.27381400730E+04  0.93152479756E+02 0.  0.
         11    1    3    3    0    0 -0.16098051011E+03 -0.12659283823E+03  0.19628509365E+04  0.19735055790E+04  0.00000000000E+00 0.  1.
        -11    1    3    3    0    0 -0.11963078114E+03 -0.42619843264E+02  0.75401454532E+03  0.76463449398E+03  0.00000000000E+00 0. -1.
         22    1    1    2    0    0  0.28061129125E+03  0.16921268149E+03  0.33563800631E+03  0.46907195571E+03  0.00000000000E+00 0. -1.
<mgrwt>
<rscale>  0 0.98408915E+03</rscale>
<asrwt>0</asrwt>
<pdfrwt beam="1">  1        2 0.48151648E+00 0.98408915E+03</pdfrwt>
<pdfrwt beam="2">  1       -2 0.11900659E-01 0.98408915E+03</pdfrwt>
<totfact> 0.76604890E+01</totfact>
</mgrwt>
</event>
<event>
 6    1  0.4630212E-004  0.1852123E+04  0.7818608E-02  0.8679062E-01
          2   -1    0    0  501    0  0.00000000000E+00  0.00000000000E+00  0.21779224062E+04  0.21779224062E+04  0.00000000000E+00 0.  1.
         -2   -1    0    0    0  501 -0.00000000000E+00 -0.00000000000E+00 -0.39376510965E+03  0.39376510965E+03  0.00000000000E+00 0. -1.
         23    2    1    2    0    0  0.61525377099E+02 -0.19524026983E+03  0.21451157352E+04  0.21567235062E+04  0.89613781383E+02 0.  0.
         13    1    3    3    0    0  0.66799349774E+02 -0.65858492387E+02  0.86038346730E+03  0.86548206506E+03  0.00000000000E+00 0. -1.
        -13    1    3    3    0    0 -0.52739726749E+01 -0.12938177745E+03  0.12847322679E+04  0.12912414411E+04  0.00000000000E+00 0.  1.
         22    1    1    2    0    0 -0.61525377099E+02  0.19524026983E+03 -0.36095843857E+03  0.41496400973E+03  0.00000000000E+00 0. -1.
<mgrwt>
<rscale>  0 0.18521229E+04</rscale>
<asrwt>0</asrwt>
<pdfrwt beam="1">  1        2 0.33506498E+00 0.18521229E+04</pdfrwt>
<pdfrwt beam="2">  1       -2 0.60579249E-01 0.18521229E+04</pdfrwt>
<totfact> 0.12679502E+01</totfact>
</mgrwt>
</event>
<event>
 6    1  0.4630212E-004  0.1023165E+04  0.7818608E-02  0.9283497E-01
          2   -1    0    0  501    0  0.00000000000E+00  0.00000000000E+00  0.26155992478E+04  0.26155992478E+04  0.00000000000E+00 0.  1.
         -2   -1    0    0    0  501 -0.00000000000E+00 -0.00000000000E+00 -0.10005987923E+03  0.10005987923E+03  0.00000000000E+00 0. -1.
         23    2    1    2    0    0  0.37358976309E+03  0.54349192719E+02  0.36537710868E+03  0.53260601506E+03  0.87439063912E+02 0.  0.
         11    1    3    3    0    0  0.30319248672E+03  0.12216949050E+02  0.26414202363E+03  0.40230081592E+03  0.00000000000E+00 0. -1.
        -11    1    3    3    0    0  0.70397276374E+02  0.42132243669E+02  0.10123508505E+03  0.13030519914E+03  0.00000000000E+00 0.  1.
         22    1    1    2    0    0 -0.37358976309E+03 -0.54349192719E+02  0.21501622599E+04  0.21830531120E+04  0.00000000000E+00 0.  1.
<mgrwt>
<rscale>  0 0.10231648E+04</rscale>
<asrwt>0</asrwt>
<pdfrwt beam="1">  1        2 0.40239983E+00 0.10231648E+04</pdfrwt>
<pdfrwt beam="2">  1       -2 0.15393830E-01 0.10231648E+04</pdfrwt>
<totfact> 0.10122839E+02</totfact>
</mgrwt>
</event>
<event>
 6    1  0.4630212E-004  0.3546911E+04  0.7818608E-02  0.8102762E-01
         -2   -1    0    0    0  501 -0.00000000000E+00  0.00000000000E+00  0.81730485951E+03  0.81730485951E+03  0.00000000000E+00 0. -1.
          2   -1    0    0  501    0  0.00000000000E+00 -0.00000000000E+00 -0.38481890521E+04  0.38481890521E+04  0.00000000000E+00 0.  1.
         23    2    1    2    0    0 -0.12410565786E+04  0.99192363161E+03 -0.25495010042E+04  0.30054144869E+04  0.91798394475E+02 0.  0.
         11    1    3    3    0    0 -0.49438465345E+03  0.45000343102E+03 -0.10434901579E+04  0.12392703430E+04  0.00000000000E+00 0.  1.
        -11    1    3    3    0    0 -0.74667192520E+03  0.54192020059E+03 -0.15060108463E+04  0.17661441438E+04  0.00000000000E+00 0. -1.
         22    1    1    2    0    0  0.12410565786E+04 -0.99192363161E+03 -0.48138318840E+03  0.16600794247E+04  0.00000000000E+00 0. -1.
<mgrwt>
<rscale>  0 0.35469106E+04</rscale>
<asrwt>0</asrwt>
<pdfrwt beam="1">  1        2 0.59202910E+00 0.35469106E+04</pdfrwt>
<pdfrwt beam="2">  1       -2 0.12573921E+00 0.35469106E+04</pdfrwt>
<totfact> 0.17401628E-01</totfact>
</mgrwt>
</event>
<event>
 6    1  0.4630212E-004  0.9891776E+03  0.7818608E-02  0.9320495E-01
          2   -1    0    0  501    0  0.00000000000E+00  0.00000000000E+00  0.12753911009E+04  0.12753911009E+04  0.00000000000E+00 0.  1.
         -2   -1    0    0    0  501 -0.00000000000E+00 -0.00000000000E+00 -0.19179849143E+03  0.19179849143E+03  0.00000000000E+00 0. -1.
         23    2    1    2    0    0 -0.19256777863E+03 -0.42164618649E+03  0.31109001508E+03  0.56628553845E+03  0.95049763945E+02 0.  0.
         13    1    3    3    0    0 -0.24658749140E+02 -0.16090254022E+03  0.98014979837E+02  0.19001215127E+03  0.00000000000E+00 0. -1.
        -13    1    3    3    0    0 -0.16790902949E+03 -0.26074364627E+03  0.21307503524E+03  0.37627338718E+03  0.00000000000E+00 0.  1.
         22    1    1    2    0    0  0.19256777863E+03  0.42164618649E+03  0.77250259443E+03  0.90090405391E+03  0.00000000000E+00 0.  1.
<mgrwt>
<rscale>  0 0.98917762E+03</rscale>
<asrwt>0</asrwt>
<pdfrwt beam="1">  1        2 0.19621401E+00 0.98917762E+03</pdfrwt>
<pdfrwt beam="2">  1       -2 0.29507461E-01 0.98917762E+03</pdfrwt>
<totfact> 0.18028011E+02</totfact>
</mgrwt>
</event>
<event>
 6    1  0.4630212E-004  0.1858141E+04  0.7818608E-02  0.8675977E-01
         -2   -1    0    0    0  501 -0.00000000000E+00  0.00000000000E+00  0.29512025212E+03  0.29512025212E+03  0.00000000000E+00 0. -1.
          2   -1    0    0  501    0  0.00000000000E+00 -0.00000000000E+00 -0.29248143298E+04  0.29248143298E+04  0.00000000000E+00 0.  1.
         23    2    1    2    0    0  0.33316907268E+03 -0.71852030549E+03 -0.21521839532E+04  0.22951162326E+04  0.91595261978E+02 0.  0.
         13    1    3    3    0    0  0.31711962365E+03 -0.71136643677E+03 -0.21183353400E+04  0.22569784394E+04  0.00000000000E+00 0. -1.
        -13    1    3    3    0    0  0.16049449031E+02 -0.71538687165E+01 -0.33848613204E+02  0.38137793167E+02  0.00000000000E+00 0.  1.
         22    1    1    2    0    0 -0.33316907268E+03  0.71852030549E+03 -0.47751012447E+03  0.92481834939E+03  0.00000000000E+00 0. -1.
<mgrwt>
<rscale>  0 0.18581409E+04</rscale>
<asrwt>0</asrwt>
<pdfrwt beam="1">  1        2 0.44997143E+00 0.18581409E+04</pdfrwt>
<pdfrwt beam="2">  1       -2 0.45403116E-01 0.18581409E+04</pdfrwt>
<totfact> 0.84081708E+00</totfact>
</mgrwt>
</event>
<event>
 6    1  0.4630212E-004  0.1827080E+04  0.7818608E-02  0.8692030E-01
         -2   -1    0    0    0  501 -0.00000000000E+00  0.00000000000E+00  0.51917387207E+03  0.51917387207E+03  0.00000000000E+00 0. -1.
          2   -1    0    0  501    0  0.00000000000E+00 -0.00000000000E+00 -0.16074682527E+04  0.16074682527E+04  0.00000000000E+00 0.  1.
         23    2    1    2    0    0 -0.45258458766E+03 -0.68724448490E+03 -0.10012246488E+04  0.12991646754E+04  0.90775907329E+02 0.  0.
         11    1    3    3    0    0 -0.19923151852E+03 -0.34169672247E+03 -0.41815883704E+03  0.57559244359E+03  0.00000000000E+00 0. -1.
        -11    1    3    3    0    0 -0.25335306913E+03 -0.34554776243E+03 -0.58306581181E+03  0.72357223182E+03  0.00000000000E+00 0.  1.
         22    1    1    2    0    0  0.45258458766E+03  0.68724448490E+03 -0.87069731765E+02  0.82747744936E+03  0.00000000000E+00 0. -1.
<mgrwt>
<rscale>  0 0.18270802E+04</rscale>
<asrwt>0</asrwt>
<pdfrwt beam="1">  1        2 0.24730281E+00 0.18270802E+04</pdfrwt>
<pdfrwt beam="2">  1       -2 0.79872903E-01 0.18270802E+04</pdfrwt>
<totfact> 0.14433371E+01</totfact>
</mgrwt>
</event>
<event>
 6    1  0.4630212E-004  0.2431750E+03  0.7818608E-02  0.1117696E+00
         -2   -1    0    0    0  501 -0.00000000000E+00  0.00000000000E+00  0.64494218904E+02  0.64494218904E+02  0.00000000000E+00 0. -1.
          2   -1    0    0  501    0  0.00000000000E+00 -0.00000000000E+00 -0.22922238416E+03  0.22922238416E+03  0.00000000000E+00 0.  1.
         23    2    1    2    0    0 -0.42652840869E+02 -0.41790342955E+02  0.93903508174E+01  0.10964336971E+03  0.91475637381E+02 0.  0.
         11    1    3    3    0    0 -0.71060600469E+02 -0.23461658072E+02  0.11328666624E+01  0.74842111978E+02  0.00000000000E+00 0. -1.
        -11    1    3    3    0    0  0.28407759601E+02 -0.18328684883E+02  0.82574841550E+01  0.34801257731E+02  0.00000000000E+00 0.  1.
         22    1    1    2    0    0  0.42652840869E+02  0.41790342955E+02 -0.17411851608E+03  0.18407323336E+03  0.00000000000E+00 0.  1.
<mgrwt>
<rscale>  0 0.24317499E+03</rscale>
<asrwt>0</asrwt>
<pdfrwt beam="1">  1        2 0.35264982E-01 0.24317499E+03</pdfrwt>
<pdfrwt beam="2">  1       -2 0.99221876E-02 0.24317499E+03</pdfrwt>
<totfact> 0.96955069E+03</totfact>
</mgrwt>
</event>
<event>
 6    1  0.4630212E-004  0.1795704E+04  0.7818608E-02  0.8708587E-01
          2   -1    0    0  501    0  0.00000000000E+00  0.00000000000E+00  0.79727267793E+03  0.79727267793E+03  0.00000000000E+00 0.  1.
         -2   -1    0    0    0  501 -0.00000000000E+00 -0.00000000000E+00 -0.10111202001E+04  0.10111202001E+04  0.00000000000E+00 0. -1.
         23    2    1    2    0    0 -0.74982206493E+03 -0.25784750388E+03  0.31192010532E+03  0.85699913069E+03  0.91841676744E+02 0.  0.
         13    1    3    3    0    0 -0.52604477712E+03 -0.18877062625E+03  0.26331419004E+03  0.61781212318E+03  0.00000000000E+00 0.  1.
        -13    1    3    3    0    0 -0.22377728780E+03 -0.69076877635E+02  0.48605915285E+02  0.23918700751E+03  0.00000000000E+00 0. -1.
         22    1    1    2    0    0  0.74982206493E+03  0.25784750388E+03 -0.52576762745E+03  0.95139374729E+03  0.00000000000E+00 0. -1.
<mgrwt>
<rscale>  0 0.17957043E+04</rscale>
<asrwt>0</asrwt>
<pdfrwt beam="1">  1        2 0.12265734E+00 0.17957043E+04</pdfrwt>
<pdfrwt beam="2">  1       -2 0.15555695E+00 0.17957043E+04</pdfrwt>
<totfact> 0.88810377E+00</totfact>
</mgrwt>
</event>
<event>
 6    1  0.4630212E-004  0.2141508E+04  0.7818608E-02  0.8543176E-01
         -2   -1    0    0    0  501 -0.00000000000E+00  0.00000000000E+00  0.41197412571E+03  0.41197412571E+03  0.00000000000E+00 0. -1.
          2   -1    0    0  501    0  0.00000000000E+00 -0.00000000000E+00 -0.27829767007E+04  0.27829767007E+04  0.00000000000E+00 0.  1.
         23    2    1    2    0    0  0.10001236895E+04 -0.37502858164E+03 -0.12443266692E+04  0.16424391749E+04  0.91453552181E+02 0.  0.
         11    1    3    3    0    0  0.35771804438E+03 -0.13884517555E+03 -0.38135942608E+03  0.54099463390E+03  0.00000000000E+00 0. -1.
        -11    1    3    3    0    0  0.64240564514E+03 -0.23618340608E+03 -0.86296724311E+03  0.11014445410E+04  0.00000000000E+00 0.  1.
         22    1    1    2    0    0 -0.10001236895E+04  0.37502858164E+03 -0.11266759058E+04  0.15525116515E+04  0.00000000000E+00 0.  1.
<mgrwt>
<rscale>  0 0.21415082E+04</rscale>
<asrwt>0</asrwt>
<pdfrwt beam="1">  1        2 0.42815028E+00 0.21415082E+04</pdfrwt>
<pdfrwt beam="2">  1       -2 0.63380632E-01 0.21415082E+04</pdfrwt>
<totfact> 0.50162100E+00</totfact>
</mgrwt>
</event>
<event>
 6    1  0.4630212E-004  0.3425412E+04  0.7818608E-02  0.8131697E-01
         -2   -1    0    0    0  501 -0.00000000000E+00  0.00000000000E+00  0.13280436474E+04  0.13280436474E+04  0.00000000000E+00 0. -1.
          2   -1    0    0  501    0  0.00000000000E+00 -0.00000000000E+00 -0.22087845781E+04  0.22087845781E+04  0.00000000000E+00 0.  1.
         23    2    1    2    0    0  0.36379473207E+03  0.10581469398E+04  0.89644689581E+03  0.14367286745E+04  0.92469960981E+02 0.  0.
         11    1    3    3    0    0  0.11690722992E+03  0.42129100765E+03  0.30351167857E+03  0.53223373865E+03  0.00000000000E+00 0. -1.
        -11    1    3    3    0    0  0.24688750215E+03  0.63685593217E+03  0.59293521724E+03  0.90449493581E+03  0.00000000000E+00 0.  1.
         22    1    1    2    0    0 -0.36379473207E+03 -0.10581469398E+04 -0.17771878265E+04  0.21000995510E+04  0.00000000000E+00 0.  1.
<mgrwt>
<rscale>  0 0.34254123E+04</rscale>
<asrwt>0</asrwt>
<pdfrwt beam="1">  1        2 0.33981301E+00 0.34254123E+04</pdfrwt>
<pdfrwt beam="2">  1       -2 0.20431441E+00 0.34254123E+04</pdfrwt>
<totfact> 0.52604932E-01</totfact>
</mgrwt>
</event>
<event>
 6    1  0.4630212E-004  0.2073024E+04  0.7818608E-02  0.8573220E-01
         -1   -1    0    0    0  501 -0.00000000000E+00  0.00000000000E+00  0.15645427311E+04  0.15645427311E+04  0.00000000000E+00 0. -1.
          1   -1    0    0  501    0  0.00000000000E+00 -0.00000000000E+00 -0.68669082416E+03  0.68669082416E+03  0.00000000000E+00 0.  1.
         23    2    1    2    0    0 -0.45564521206E+03  0.21102772192E+03  0.14219512798E+04  0.15108354284E+04  0.92374190662E+02 0.  0.
         11    1    3    3    0    0 -0.27250934088E+03  0.78090695316E+02  0.83223433817E+03  0.87918911003E+03  0.00000000000E+00 0. -1.
        -11    1    3    3    0    0 -0.18313587118E+03  0.13293702660E+03  0.58971694158E+03  0.63164631839E+03  0.00000000000E+00 0.  1.
         22    1    1    2    0    0  0.45564521206E+03 -0.21102772192E+03 -0.54409937283E+03  0.74039812682E+03  0.00000000000E+00 0.  1.
<mgrwt>
<rscale>  0 0.20730240E+04</rscale>
<asrwt>0</asrwt>
<pdfrwt beam="1">  1        1 0.10564474E+00 0.20730240E+04</pdfrwt>
<pdfrwt beam="2">  1       -1 0.24069888E+00 0.20730240E+04</pdfrwt>
<totfact> 0.20741232E+00</totfact>
</mgrwt>
</event>
<event>
 6    1  0.4630212E-004  0.3292064E+03  0.7818608E-02  0.1071489E+00
         -2   -1    0    0    0  501 -0.00000000000E+00  0.00000000000E+00  0.13657773200E+03  0.13657773200E+03  0.00000000000E+00 0. -1.
          2   -1    0    0  501    0  0.00000000000E+00 -0.00000000000E+00 -0.19837946012E+03  0.19837946012E+03  0.00000000000E+00 0.  1.
         23    2    1    2    0    0  0.58931888689E+02 -0.12271785440E+03  0.37450369232E+02  0.16648280795E+03  0.88211994062E+02 0.  0.
         13    1    3    3    0    0  0.78479808205E+02 -0.67088738704E+02  0.23208042645E+02  0.10582340195E+03  0.00000000000E+00 0.  1.
        -13    1    3    3    0    0 -0.19547919516E+02 -0.55629115694E+02  0.14242326587E+02  0.60659406005E+02  0.00000000000E+00 0. -1.
         22    1    1    2    0    0 -0.58931888689E+02  0.12271785440E+03 -0.99252097349E+02  0.16847438417E+03  0.00000000000E+00 0.  1.
<mgrwt>
<rscale>  0 0.32920642E+03</rscale>
<asrwt>0</asrwt>
<pdfrwt beam="1">  1        2 0.30519917E-01 0.32920642E+03</pdfrwt>
<pdfrwt beam="2">  1       -2 0.21011959E-01 0.32920642E+03</pdfrwt>
<totfact> 0.33263676E+03</totfact>
</mgrwt>
</event>
<event>
 6    1  0.4630212E-004  0.1432726E+04  0.7818608E-02  0.8930465E-01
         -2   -1    0    0    0  501 -0.00000000000E+00  0.00000000000E+00  0.44467571540E+03  0.44467571540E+03  0.00000000000E+00 0. -1.
          2   -1    0    0  501    0  0.00000000000E+00 -0.00000000000E+00 -0.11540447949E+04  0.11540447949E+04  0.00000000000E+00 0.  1.
         23    2    1    2    0    0 -0.40132373844E+03 -0.13963761051E+03 -0.99561270104E+03  0.10863780309E+04  0.91723334763E+02 0.  0.
         13    1    3    3    0    0 -0.23672232346E+03 -0.38235706879E+02 -0.59697756872E+03  0.64333633914E+03  0.00000000000E+00 0. -1.
        -13    1    3    3    0    0 -0.16460141498E+03 -0.10140190363E+03 -0.39863513232E+03  0.44304169171E+03  0.00000000000E+00 0.  1.
         22    1    1    2    0    0  0.40132373844E+03  0.13963761051E+03  0.28624362159E+03  0.51234247941E+03  0.00000000000E+00 0. -1.
<mgrwt>
<rscale>  0 0.14327256E+04</rscale>
<asrwt>0</asrwt>
<pdfrwt beam="1">  1        2 0.17754536E+00 0.14327256E+04</pdfrwt>
<pdfrwt beam="2">  1       -2 0.68411647E-01 0.14327256E+04</pdfrwt>
<totfact> 0.38314435E+01</totfact>
</mgrwt>
</event>
<event>
 6    1  0.4630212E-004  0.2466201E+04  0.7818608E-02  0.8415126E-01
          2   -1    0    0  501    0  0.00000000000E+00  0.00000000000E+00  0.85609387372E+03  0.85609387372E+03  0.00000000000E+00 0.  1.
         -2   -1    0    0    0  501 -0.00000000000E+00 -0.00000000000E+00 -0.17761332503E+04  0.17761332503E+04  0.00000000000E+00 0. -1.
         23    2    1    2    0    0  0.44275867428E+03 -0.66173800546E+03  0.54196862022E+03  0.96747494599E+03  0.91352910721E+02 0.  0.
         13    1    3    3    0    0  0.22340533864E+03 -0.25315047877E+03  0.23343366216E+03  0.41047093059E+03  0.00000000000E+00 0. -1.
        -13    1    3    3    0    0  0.21935333565E+03 -0.40858752669E+03  0.30853495806E+03  0.55700401540E+03  0.00000000000E+00 0.  1.
         22    1    1    2    0    0 -0.44275867428E+03  0.66173800546E+03 -0.14620079968E+04  0.16647521780E+04  0.00000000000E+00 0. -1.
<mgrwt>
<rscale>  0 0.24662010E+04</rscale>
<asrwt>0</asrwt>
<pdfrwt beam="1">  1        2 0.13170675E+00 0.24662010E+04</pdfrwt>
<pdfrwt beam="2">  1       -2 0.27325127E+00 0.24662010E+04</pdfrwt>
<totfact> 0.13014814E+00</totfact>
</mgrwt>
</event>
<event>
 6    1  0.4630212E-004  0.1779797E+04  0.7818608E-02  0.8717118E-01
          2   -1    0    0  501    0  0.00000000000E+00  0.00000000000E+00  0.12930789259E+04  0.12930789259E+04  0.00000000000E+00 0.  1.
         -2   -1    0    0    0  501 -0.00000000000E+00 -0.00000000000E+00 -0.61242925798E+03  0.61242925798E+03  0.00000000000E+00 0. -1.
         23    2    1    2    0    0 -0.88713660942E+03 -0.22967791323E+02  0.32453013487E+03  0.94928644962E+03  0.91027862660E+02 0.  0.
         11    1    3    3    0    0 -0.21953140644E+03  0.30540632969E+02  0.64584210300E+02  0.23086335546E+03  0.00000000000E+00 0. -1.
        -11    1    3    3    0    0 -0.66760520298E+03 -0.53508424292E+02  0.25994592457E+03  0.71842309416E+03  0.00000000000E+00 0.  1.
         22    1    1    2    0    0  0.88713660942E+03  0.22967791323E+02  0.35611953302E+03  0.95622173423E+03  0.00000000000E+00 0.  1.
<mgrwt>
<rscale>  0 0.17797970E+04</rscale>
<asrwt>0</asrwt>
<pdfrwt beam="1">  1        2 0.19893522E+00 0.17797970E+04</pdfrwt>
<pdfrwt beam="2">  1       -2 0.94219886E-01 0.17797970E+04</pdfrwt>
<totfact> 0.14993576E+01</totfact>
</mgrwt>
</event>
<event>
 6    1  0.4630212E-004  0.2407565E+04  0.7818608E-02  0.8436677E-01
         -2   -1    0    0    0  501 -0.00000000000E+00  0.00000000000E+00  0.55682787598E+03  0.55682787598E+03  0.00000000000E+00 0.  1.
          2   -1    0    0  501    0  0.00000000000E+00 -0.00000000000E+00 -0.26024069144E+04  0.26024069144E+04  0.00000000000E+00 0. -1.
         23    2    1    2    0    0 -0.10628333076E+04 -0.41670336138E+03 -0.15185472144E+04  0.19018490600E+04  0.88248930683E+02 0.  0.
         13    1    3    3    0    0 -0.81009152809E+03 -0.35722482341E+03 -0.11764969902E+04  0.14724140132E+04  0.00000000000E+00 0. -1.
        -13    1    3    3    0    0 -0.25274177955E+03 -0.59478537962E+02 -0.34205022417E+03  0.42943504684E+03  0.00000000000E+00 0.  1.
         22    1    1    2    0    0  0.10628333076E+04  0.41670336138E+03 -0.52703182402E+03  0.12573857303E+04  0.00000000000E+00 0. -1.
<mgrwt>
<rscale>  0 0.24075653E+04</rscale>
<asrwt>0</asrwt>
<pdfrwt beam="1">  1        2 0.40037029E+00 0.24075653E+04</pdfrwt>
<pdfrwt beam="2">  1       -2 0.85665827E-01 0.24075653E+04</pdfrwt>
<totfact> 0.32263970E+00</totfact>
</mgrwt>
</event>
<event>
 6    1  0.4630212E-004  0.2466556E+04  0.7818608E-02  0.8414998E-01
          2   -1    0    0  501    0  0.00000000000E+00  0.00000000000E+00  0.84634395425E+03  0.84634395425E+03  0.00000000000E+00 0.  1.
         -2   -1    0    0    0  501 -0.00000000000E+00 -0.00000000000E+00 -0.17971115323E+04  0.17971115323E+04  0.00000000000E+00 0. -1.
         23    2    1    2    0    0  0.24186725823E+03 -0.10401429767E+04  0.18191521960E+03  0.10867385879E+04  0.86662729754E+02 0.  0.
         11    1    3    3    0    0  0.72682352479E+02 -0.34978528380E+03  0.20439980280E+02  0.35784111267E+03  0.00000000000E+00 0. -1.
        -11    1    3    3    0    0  0.16918490575E+03 -0.69035769287E+03  0.16147523932E+03  0.72889747520E+03  0.00000000000E+00 0.  1.
         22    1    1    2    0    0 -0.24186725823E+03  0.10401429767E+04 -0.11326827976E+04  0.15567168987E+04  0.00000000000E+00 0. -1.
<mgrwt>
<rscale>  0 0.24665559E+04</rscale>
<asrwt>0</asrwt>
<pdfrwt beam="1">  1        2 0.13020676E+00 0.24665559E+04</pdfrwt>
<pdfrwt beam="2">  1       -2 0.27647869E+00 0.24665559E+04</pdfrwt>
<totfact> 0.12634178E+00</totfact>
</mgrwt>
</event>
<event>
 6    1  0.4630212E-004  0.2670572E+04  0.7818608E-02  0.8344617E-01
         -2   -1    0    0    0  501 -0.00000000000E+00  0.00000000000E+00  0.39837532229E+03  0.39837532229E+03  0.00000000000E+00 0. -1.
          2   -1    0    0  501    0  0.00000000000E+00 -0.00000000000E+00 -0.44756507314E+04  0.44756507314E+04  0.00000000000E+00 0.  1.
         23    2    1    2    0    0  0.11513385563E+04  0.62083729643E+03 -0.25167431483E+04  0.28377843301E+04  0.89467366515E+02 0.  0.
         11    1    3    3    0    0  0.57304241438E+03  0.33230829170E+03 -0.13598729562E+04  0.15126337516E+04  0.00000000000E+00 0. -1.
        -11    1    3    3    0    0  0.57829614194E+03  0.28852900473E+03 -0.11568701921E+04  0.13251505785E+04  0.00000000000E+00 0.  1.
         22    1    1    2    0    0 -0.11513385563E+04 -0.62083729643E+03 -0.15605322608E+04  0.20362417236E+04  0.00000000000E+00 0.  1.
<mgrwt>
<rscale>  0 0.26705721E+04</rscale>
<asrwt>0</asrwt>
<pdfrwt beam="1">  1        2 0.68856167E+00 0.26705721E+04</pdfrwt>
<pdfrwt beam="2">  1       -2 0.61288509E-01 0.26705721E+04</pdfrwt>
<totfact> 0.28388413E-01</totfact>
</mgrwt>
</event>
<event>
 6    1  0.4630212E-004  0.2117551E+04  0.7818608E-02  0.8553551E-01
          2   -1    0    0  501    0  0.00000000000E+00  0.00000000000E+00  0.15143129450E+04  0.15143129450E+04  0.00000000000E+00 0.  1.
         -2   -1    0    0    0  501 -0.00000000000E+00 -0.00000000000E+00 -0.74027331947E+03  0.74027331947E+03  0.00000000000E+00 0. -1.
         23    2    1    2    0    0  0.85317498702E+03 -0.18599714597E+03 -0.24620614365E+03  0.91167750871E+03  0.89643281502E+02 0.  0.
         13    1    3    3    0    0  0.40308126767E+03 -0.13157068694E+03 -0.13307345806E+03  0.44440285693E+03  0.00000000000E+00 0.  1.
        -13    1    3    3    0    0  0.45009371935E+03 -0.54426459038E+02 -0.11313268559E+03  0.46727465178E+03  0.00000000000E+00 0. -1.
         22    1    1    2    0    0 -0.85317498702E+03  0.18599714597E+03  0.10202457692E+04  0.13429087558E+04  0.00000000000E+00 0. -1.
<mgrwt>
<rscale>  0 0.21175509E+04</rscale>
<asrwt>0</asrwt>
<pdfrwt beam="1">  1        2 0.23297122E+00 0.21175509E+04</pdfrwt>
<pdfrwt beam="2">  1       -2 0.11388820E+00 0.21175509E+04</pdfrwt>
<totfact> 0.69241284E+00</totfact>
</mgrwt>
</event>
<event>
 6    1  0.4630212E-004  0.2376458E+04  0.7818608E-02  0.8448370E-01
          2   -1    0    0  501    0  0.00000000000E+00  0.00000000000E+00  0.18240041766E+04  0.18240041766E+04  0.00000000000E+00 0.  1.
         -2   -1    0    0    0  501 -0.00000000000E+00 -0.00000000000E+00 -0.77405949513E+03  0.77405949513E+03  0.00000000000E+00 0. -1.
         23    2    1    2    0    0 -0.57754242442E+03  0.75943988629E+03  0.12968033752E+04  0.16125468492E+04  0.91127131449E+02 0.  0.
         13    1    3    3    0    0 -0.16327461784E+03  0.21144603163E+03  0.29684031573E+03  0.39935222319E+03  0.00000000000E+00 0. -1.
        -13    1    3    3    0    0 -0.41426780658E+03  0.54799385466E+03  0.99996305943E+03  0.12131946260E+04  0.00000000000E+00 0.  1.
         22    1    1    2    0    0  0.57754242442E+03 -0.75943988629E+03 -0.24685869369E+03  0.98551682256E+03  0.00000000000E+00 0. -1.
<mgrwt>
<rscale>  0 0.23764577E+04</rscale>
<asrwt>0</asrwt>
<pdfrwt beam="1">  1        2 0.28061603E+00 0.23764577E+04</pdfrwt>
<pdfrwt beam="2">  1       -2 0.11908608E+00 0.23764577E+04</pdfrwt>
<totfact> 0.40804898E+00</totfact>
</mgrwt>
</event>
<event>
 6    1  0.4630212E-004  0.3990904E+04  0.7818608E-02  0.8006384E-01
          2   -1    0    0  501    0  0.00000000000E+00  0.00000000000E+00  0.29080288358E+04  0.29080288358E+04  0.00000000000E+00 0. -1.
         -2   -1    0    0    0  501 -0.00000000000E+00 -0.00000000000E+00 -0.13692536795E+04  0.13692536795E+04  0.00000000000E+00 0.  1.
         23    2    1    2    0    0  0.92595640958E+03  0.16102503897E+04 -0.85330573009E+01  0.18597498272E+04  0.91076982196E+02 0.  0.
         13    1    3    3    0    0  0.89771369854E+03  0.15230957625E+04 -0.30696792316E+01  0.17679705906E+04  0.00000000000E+00 0.  1.
        -13    1    3    3    0    0  0.28242711036E+02  0.87154627168E+02 -0.54633780693E+01  0.91779236560E+02  0.00000000000E+00 0. -1.
         22    1    1    2    0    0 -0.92595640958E+03 -0.16102503897E+04  0.15473082136E+04  0.24175326881E+04  0.00000000000E+00 0. -1.
<mgrwt>
<rscale>  0 0.39909043E+04</rscale>
<asrwt>0</asrwt>
<pdfrwt beam="1">  1        2 0.44738905E+00 0.39909043E+04</pdfrwt>
<pdfrwt beam="2">  1       -2 0.21065441E+00 0.39909043E+04</pdfrwt>
<totfact> 0.17775013E-01</totfact>
</mgrwt>
</event>
<event>
 6    1  0.4630212E-004  0.2798767E+04  0.7818608E-02  0.8303651E-01
          1   -1    0    0  501    0  0.00000000000E+00  0.00000000000E+00  0.14958687744E+04  0.14958687744E+04  0.00000000000E+00 0.  1.
         -1   -1    0    0    0  501 -0.00000000000E+00 -0.00000000000E+00 -0.13091220473E+04  0.13091220473E+04  0.00000000000E+00 0. -1.
         23    2    1    2    0    0  0.11013178214E+04 -0.59011179179E+02  0.95431699121E+03  0.14612842416E+04  0.90815482714E+02 0.  0.
         13    1    3    3    0    0  0.72089540834E+03 -0.81021995215E+02  0.61468210480E+03  0.95083586567E+03  0.00000000000E+00 0.  1.
        -13    1    3    3    0    0  0.38042241309E+03  0.22010816036E+02  0.33963488640E+03  0.51044837591E+03  0.00000000000E+00 0. -1.
         22    1    1    2    0    0 -0.11013178214E+04  0.59011179179E+02 -0.76757026416E+03  0.13437065801E+04  0.00000000000E+00 0. -1.
<mgrwt>
<rscale>  0 0.27987674E+04</rscale>
<asrwt>0</asrwt>
<pdfrwt beam="1">  1        1 0.23013366E+00 0.27987674E+04</pdfrwt>
<pdfrwt beam="2">  1       -1 0.20140339E+00 0.27987674E+04</pdfrwt>
<totfact> 0.83921611E-01</totfact>
</mgrwt>
</event>
<event>
 6    1  0.4630212E-004  0.2960919E+04  0.7818608E-02  0.8254979E-01
         -2   -1    0    0    0  501 -0.00000000000E+00  0.00000000000E+00  0.83446922358E+03  0.83446922358E+03  0.00000000000E+00 0. -1.
          2   -1    0    0  501    0  0.00000000000E+00 -0.00000000000E+00 -0.26265330380E+04  0.26265330380E+04  0.00000000000E+00 0.  1.
         23    2    1    2    0    0  0.36018083951E+03  0.51401947469E+03  0.66831006841E+03  0.92183194417E+03  0.95862027130E+02 0.  0.
         13    1    3    3    0    0  0.26153724347E+03  0.41863717705E+03  0.47726015928E+03  0.68661202681E+03  0.00000000000E+00 0. -1.
        -13    1    3    3    0    0  0.98643596035E+02  0.95382297641E+02  0.19104990913E+03  0.23521991736E+03  0.00000000000E+00 0.  1.
         22    1    1    2    0    0 -0.36018083951E+03 -0.51401947469E+03 -0.24603738828E+04  0.25391703174E+04  0.00000000000E+00 0.  1.
<mgrwt>
<rscale>  0 0.29609194E+04</rscale>
<asrwt>0</asrwt>
<pdfrwt beam="1">  1        2 0.40408200E+00 0.29609194E+04</pdfrwt>
<pdfrwt beam="2">  1       -2 0.12837988E+00 0.29609194E+04</pdfrwt>
<totfact> 0.11298691E+00</totfact>
</mgrwt>
</event>
<event>
 6    1  0.4630212E-004  0.1145965E+04  0.7818608E-02  0.9161514E-01
         -2   -1    0    0    0  501 -0.00000000000E+00  0.00000000000E+00  0.48199111913E+03  0.48199111913E+03  0.00000000000E+00 0. -1.
          2   -1    0    0  501    0  0.00000000000E+00 -0.00000000000E+00 -0.68115148469E+03  0.68115148469E+03  0.00000000000E+00 0.  1.
         23    2    1    2    0    0  0.34164702003E+03  0.35108132369E+03  0.19388249154E+03  0.53507933499E+03  0.93480971679E+02 0.  0.
         13    1    3    3    0    0  0.29863209416E+03  0.25903102343E+03  0.13551252341E+03  0.41790171424E+03  0.00000000000E+00 0.  1.
        -13    1    3    3    0    0  0.43014925872E+02  0.92050300253E+02  0.58369968129E+02  0.11717762075E+03  0.00000000000E+00 0. -1.
         22    1    1    2    0    0 -0.34164702003E+03 -0.35108132369E+03 -0.39304285710E+03  0.62806326883E+03  0.00000000000E+00 0.  1.
<mgrwt>
<rscale>  0 0.11459650E+04</rscale>
<asrwt>0</asrwt>
<pdfrwt beam="1">  1        2 0.10479254E+00 0.11459650E+04</pdfrwt>
<pdfrwt beam="2">  1       -2 0.74152480E-01 0.11459650E+04</pdfrwt>
<totfact> 0.68801892E+01</totfact>
</mgrwt>
</event>
<event>
 6    1  0.4630212E-004  0.3362348E+04  0.7818608E-02  0.8147210E-01
         -2   -1    0    0    0  501 -0.00000000000E+00  0.00000000000E+00  0.30018573688E+04  0.30018573688E+04  0.00000000000E+00 0. -1.
          2   -1    0    0  501    0  0.00000000000E+00 -0.00000000000E+00 -0.94153237563E+03  0.94153237563E+03  0.00000000000E+00 0.  1.
         23    2    1    2    0    0  0.65173191240E+03  0.85332087537E+03 -0.48421700371E+03  0.11815778435E+04  0.93536579415E+02 0.  0.
         11    1    3    3    0    0  0.43423236901E+03  0.56837040581E+03 -0.37033301570E+03  0.80544969490E+03  0.00000000000E+00 0. -1.
        -11    1    3    3    0    0  0.21749954339E+03  0.28495046956E+03 -0.11388398801E+03  0.37612814865E+03  0.00000000000E+00 0.  1.
         22    1    1    2    0    0 -0.65173191240E+03 -0.85332087537E+03  0.25445419969E+04  0.27618119009E+04  0.00000000000E+00 0. -1.
<mgrwt>
<rscale>  0 0.33623479E+04</rscale>
<asrwt>0</asrwt>
<pdfrwt beam="1">  1        2 0.14485114E+00 0.33623479E+04</pdfrwt>
<pdfrwt beam="2">  1       -2 0.46182421E+00 0.33623479E+04</pdfrwt>
<totfact> 0.66193407E-02</totfact>
</mgrwt>
</event>
<event>
 6    1  0.4630212E-004  0.2873787E+04  0.7818608E-02  0.8280720E-01
          2   -1    0    0  501    0  0.00000000000E+00  0.00000000000E+00  0.38670173628E+04  0.38670173628E+04  0.00000000000E+00 0.  1.
         -2   -1    0    0    0  501 -0.00000000000E+00 -0.00000000000E+00 -0.53391616193E+03  0.53391616193E+03  0.00000000000E+00 0. -1.
         23    2    1    2    0    0 -0.60776536853E+02  0.76994074236E+03  0.35211652481E+04  0.36060306250E+04  0.91376308229E+02 0.  0.
         13    1    3    3    0    0  0.18857139017E+02  0.30734219106E+03  0.13386850743E+04  0.13736420721E+04  0.00000000000E+00 0. -1.
        -13    1    3    3    0    0 -0.79633675870E+02  0.46259855131E+03  0.21824801738E+04  0.22323885529E+04  0.00000000000E+00 0.  1.
         22    1    1    2    0    0  0.60776536853E+02 -0.76994074236E+03 -0.18806404722E+03  0.79490289975E+03  0.00000000000E+00 0. -1.
<mgrwt>
<rscale>  0 0.28737871E+04</rscale>
<asrwt>0</asrwt>
<pdfrwt beam="1">  1        2 0.59492573E+00 0.28737871E+04</pdfrwt>
<pdfrwt beam="2">  1       -2 0.82140950E-01 0.28737871E+04</pdfrwt>
<totfact> 0.49129731E-01</totfact>
</mgrwt>
</event>
<event>
 6    1  0.4630212E-004  0.2311515E+04  0.7818608E-02  0.8473395E-01
          2   -1    0    0  501    0  0.00000000000E+00  0.00000000000E+00  0.13597016607E+04  0.13597016607E+04  0.00000000000E+00 0.  1.
         -2   -1    0    0    0  501 -0.00000000000E+00 -0.00000000000E+00 -0.98240312330E+03  0.98240312330E+03  0.00000000000E+00 0. -1.
         23    2    1    2    0    0  0.16696712119E+03  0.17450700251E+03  0.13323950481E+04  0.13569448689E+04  0.87704614054E+02 0.  0.
         13    1    3    3    0    0  0.16510190324E+03  0.12924654475E+03  0.11536465982E+04  0.11725458547E+04  0.00000000000E+00 0. -1.
        -13    1    3    3    0    0  0.18652179543E+01  0.45260457761E+02  0.17874844995E+03  0.18439901419E+03  0.00000000000E+00 0.  1.
         22    1    1    2    0    0 -0.16696712119E+03 -0.17450700251E+03 -0.95509651076E+03  0.98515991512E+03  0.00000000000E+00 0. -1.
<mgrwt>
<rscale>  0 0.23115148E+04</rscale>
<asrwt>0</asrwt>
<pdfrwt beam="1">  1        2 0.20918487E+00 0.23115148E+04</pdfrwt>
<pdfrwt beam="2">  1       -2 0.15113894E+00 0.23115148E+04</pdfrwt>
<totfact> 0.40604841E+00</totfact>
</mgrwt>
</event>
<event>
 6    1  0.4630212E-004  0.3701237E+04  0.7818608E-02  0.8067688E-01
         -2   -1    0    0    0  501 -0.00000000000E+00  0.00000000000E+00  0.13821104770E+04  0.13821104770E+04  0.00000000000E+00 0. -1.
          2   -1    0    0  501    0  0.00000000000E+00 -0.00000000000E+00 -0.24779409620E+04  0.24779409620E+04  0.00000000000E+00 0.  1.
         23    2    1    2    0    0  0.12594212447E+04  0.11103838606E+04 -0.13570940545E+04  0.21608301932E+04  0.91589636722E+02 0.  0.
         13    1    3    3    0    0  0.75479404421E+03  0.72409962298E+03 -0.85209846192E+03  0.13491130798E+04  0.00000000000E+00 0.  1.
        -13    1    3    3    0    0  0.50462720046E+03  0.38628423759E+03 -0.50499559262E+03  0.81171711342E+03  0.00000000000E+00 0. -1.
         22    1    1    2    0    0 -0.12594212447E+04 -0.11103838606E+04  0.26126356955E+03  0.16992212458E+04  0.00000000000E+00 0. -1.
<mgrwt>
<rscale>  0 0.37012366E+04</rscale>
<asrwt>0</asrwt>
<pdfrwt beam="1">  1        2 0.38122168E+00 0.37012366E+04</pdfrwt>
<pdfrwt beam="2">  1       -2 0.21263238E+00 0.37012366E+04</pdfrwt>
<totfact> 0.31913016E-01</totfact>
</mgrwt>
</event>
<event>
 6    1  0.4630212E-004  0.1069638E+04  0.7818608E-02  0.9235300E-01
         -2   -1    0    0    0  501 -0.00000000000E+00  0.00000000000E+00  0.10278692321E+03  0.10278692321E+03  0.00000000000E+00 0. -1.
          2   -1    0    0  501    0  0.00000000000E+00 -0.00000000000E+00 -0.27827627060E+04  0.27827627060E+04  0.00000000000E+00 0.  1.
         23    2    1    2    0    0 -0.43860547738E+03 -0.27533741373E+03 -0.10262314750E+04  0.11526169439E+04  0.84789875318E+02 0.  0.
         11    1    3    3    0    0 -0.10218953413E+03 -0.10765739096E+03 -0.26966933204E+03  0.30782196698E+03  0.00000000000E+00 0. -1.
        -11    1    3    3    0    0 -0.33641594325E+03 -0.16768002277E+03 -0.75656214293E+03  0.84479497692E+03  0.00000000000E+00 0.  1.
         22    1    1    2    0    0  0.43860547738E+03  0.27533741373E+03 -0.16537443078E+04  0.17329326853E+04  0.00000000000E+00 0.  1.
<mgrwt>
<rscale>  0 0.10696385E+04</rscale>
<asrwt>0</asrwt>
<pdfrwt beam="1">  1        2 0.42811727E+00 0.10696385E+04</pdfrwt>
<pdfrwt beam="2">  1       -2 0.15813375E-01 0.10696385E+04</pdfrwt>
<totfact> 0.76789171E+01</totfact>
</mgrwt>
</event>
<event>
 6    1  0.4630212E-004  0.2435262E+04  0.7818608E-02  0.8426419E-01
          2   -1    0    0  501    0  0.00000000000E+00  0.00000000000E+00  0.18731831495E+04  0.18731831495E+04  0.00000000000E+00 0.  1.
         -2   -1    0    0    0  501 -0.00000000000E+00 -0.00000000000E+00 -0.79150011953E+03  0.79150011953E+03  0.00000000000E+00 0. -1.
         23    2    1    2    0    0 -0.88158893940E+03 -0.15684006974E+03 -0.35811325583E+03  0.96915644525E+03  0.96027318130E+02 0.  0.
         13    1    3    3    0    0 -0.80686853081E+03 -0.12222730670E+03 -0.34397151355E+03  0.88560303898E+03  0.00000000000E+00 0.  1.
        -13    1    3    3    0    0 -0.74720408587E+02 -0.34612763042E+02 -0.14141742274E+02  0.83553406271E+02  0.00000000000E+00 0. -1.
         22    1    1    2    0    0  0.88158893940E+03  0.15684006974E+03  0.14397962858E+04  0.16955268237E+04  0.00000000000E+00 0.  1.
<mgrwt>
<rscale>  0 0.24352615E+04</rscale>
<asrwt>0</asrwt>
<pdfrwt beam="1">  1        2 0.28818202E+00 0.24352615E+04</pdfrwt>
<pdfrwt beam="2">  1       -2 0.12176925E+00 0.24352615E+04</pdfrwt>
<totfact> 0.36076267E+00</totfact>
</mgrwt>
</event>
<event>
 6    1  0.4630212E-004  0.3648861E+04  0.7818608E-02  0.8079390E-01
         -2   -1    0    0    0  501 -0.00000000000E+00  0.00000000000E+00  0.93786010745E+03  0.93786010745E+03  0.00000000000E+00 0. -1.
          2   -1    0    0  501    0  0.00000000000E+00 -0.00000000000E+00 -0.35490863807E+04  0.35490863807E+04  0.00000000000E+00 0.  1.
         23    2    1    2    0    0 -0.49261077728E+03 -0.79496156488E+03 -0.32310803884E+04  0.33649623565E+04  0.91988678701E+02 0.  0.
         11    1    3    3    0    0 -0.18335888956E+03 -0.29112036692E+03 -0.13513662705E+04  0.13944756532E+04  0.00000000000E+00 0. -1.
        -11    1    3    3    0    0 -0.30925188772E+03 -0.50384119796E+03 -0.18797141179E+04  0.19704867033E+04  0.00000000000E+00 0.  1.
         22    1    1    2    0    0  0.49261077728E+03  0.79496156488E+03  0.61985411515E+03  0.11219841316E+04  0.00000000000E+00 0. -1.
<mgrwt>
<rscale>  0 0.36488609E+04</rscale>
<asrwt>0</asrwt>
<pdfrwt beam="1">  1        2 0.54601329E+00 0.36488609E+04</pdfrwt>
<pdfrwt beam="2">  1       -2 0.14428617E+00 0.36488609E+04</pdfrwt>
<totfact> 0.20192584E-01</totfact>
</mgrwt>
</event>
<event>
 6    1  0.4630212E-004  0.1127027E+04  0.7818608E-02  0.9179243E-01
          2   -1    0    0  501    0  0.00000000000E+00  0.00000000000E+00  0.37659261443E+03  0.37659261443E+03  0.00000000000E+00 0.  1.
         -2   -1    0    0    0  501 -0.00000000000E+00 -0.00000000000E+00 -0.84321228626E+03  0.84321228626E+03  0.00000000000E+00 0. -1.
         23    2    1    2    0    0  0.21779257932E+03  0.38809289979E+03  0.13266281441E+03  0.47335382742E+03  0.91731767303E+02 0.  0.
         13    1    3    3    0    0  0.50073496644E+02  0.28836690348E+02  0.20563247883E+02  0.61333163458E+02  0.00000000000E+00 0.  1.
        -13    1    3    3    0    0  0.16771908268E+03  0.35925620944E+03  0.11209956653E+03  0.41202066396E+03  0.00000000000E+00 0. -1.
         22    1    1    2    0    0 -0.21779257932E+03 -0.38809289979E+03 -0.59928248624E+03  0.74645107327E+03  0.00000000000E+00 0. -1.
<mgrwt>
<rscale>  0 0.11270271E+04</rscale>
<asrwt>0</asrwt>
<pdfrwt beam="1">  1        2 0.57937326E-01 0.11270271E+04</pdfrwt>
<pdfrwt beam="2">  1       -2 0.12972496E+00 0.11270271E+04</pdfrwt>
<totfact> 0.36814177E+01</totfact>
</mgrwt>
</event>
<event>
 6    1  0.4630212E-004  0.1949337E+04  0.7818608E-02  0.8630680E-01
          2   -1    0    0  501    0  0.00000000000E+00  0.00000000000E+00  0.19048827152E+04  0.19048827152E+04  0.00000000000E+00 0.  1.
         -2   -1    0    0    0  501 -0.00000000000E+00 -0.00000000000E+00 -0.49870723179E+03  0.49870723179E+03  0.00000000000E+00 0. -1.
         23    2    1    2    0    0  0.44171400838E+03 -0.62423359829E+03  0.14456473605E+04  0.16378635732E+04  0.89005297903E+02 0.  0.
         13    1    3    3    0    0  0.31348906613E+03 -0.50722534916E+03  0.11205980164E+04  0.12693671115E+04  0.00000000000E+00 0.  1.
        -13    1    3    3    0    0  0.12822494225E+03 -0.11700824912E+03  0.32504934411E+03  0.36849646170E+03  0.00000000000E+00 0. -1.
         22    1    1    2    0    0 -0.44171400838E+03  0.62423359829E+03 -0.39471877102E+02  0.76572637378E+03  0.00000000000E+00 0. -1.
<mgrwt>
<rscale>  0 0.19493371E+04</rscale>
<asrwt>0</asrwt>
<pdfrwt beam="1">  1        2 0.29305888E+00 0.19493371E+04</pdfrwt>
<pdfrwt beam="2">  1       -2 0.76724191E-01 0.19493371E+04</pdfrwt>
<totfact> 0.10685547E+01</totfact>
</mgrwt>
</event>
<event>
 6    1  0.4630212E-004  0.5536486E+04  0.7818608E-02  0.7750689E-01
         -2   -1    0    0    0  501 -0.00000000000E+00  0.00000000000E+00  0.21926480170E+04  0.21926480170E+04  0.00000000000E+00 0. -1.
          2   -1    0    0  501    0  0.00000000000E+00 -0.00000000000E+00 -0.34949382661E+04  0.34949382661E+04  0.00000000000E+00 0.  1.
         23    2    1    2    0    0  0.18868682157E+04  0.16019505422E+04 -0.19230206469E+04  0.31357588145E+04  0.91965926219E+02 0.  0.
         13    1    3    3    0    0  0.11716834984E+04  0.93947063116E+03 -0.11463460585E+04  0.18893270159E+04  0.00000000000E+00 0.  1.
        -13    1    3    3    0    0  0.71518471726E+03  0.66247991102E+03 -0.77667458837E+03  0.12464317986E+04  0.00000000000E+00 0. -1.
         22    1    1    2    0    0 -0.18868682157E+04 -0.16019505422E+04  0.62073039781E+03  0.25518274686E+04  0.00000000000E+00 0. -1.
<mgrwt>
<rscale>  0 0.55364861E+04</rscale>
<asrwt>0</asrwt>
<pdfrwt beam="1">  1        2 0.53768281E+00 0.55364861E+04</pdfrwt>
<pdfrwt beam="2">  1       -2 0.33733047E+00 0.55364861E+04</pdfrwt>
<totfact> 0.10665767E-02</totfact>
</mgrwt>
</event>
<event>
 6    1  0.4630212E-004  0.1448764E+04  0.7818608E-02  0.8919258E-01
         -4   -1    0    0    0  501 -0.00000000000E+00  0.00000000000E+00  0.21544457173E+04  0.21544457173E+04  0.00000000000E+00 0. -1.
          4   -1    0    0  501    0  0.00000000000E+00 -0.00000000000E+00 -0.24355654538E+03  0.24355654538E+03  0.00000000000E+00 0.  1.
         23    2    1    2    0    0  0.34311380556E+03  0.40055069507E+03  0.17742170058E+04  0.18531653845E+04  0.90598100196E+02 0.  0.
         11    1    3    3    0    0  0.20556080370E+03  0.24995037999E+03  0.12338962284E+04  0.12756293893E+04  0.00000000000E+00 0.  1.
        -11    1    3    3    0    0  0.13755300185E+03  0.15060031508E+03  0.54032077736E+03  0.57753599513E+03  0.00000000000E+00 0. -1.
         22    1    1    2    0    0 -0.34311380556E+03 -0.40055069507E+03  0.13667216618E+03  0.54483687824E+03  0.00000000000E+00 0.  1.
<mgrwt>
<rscale>  0 0.14487641E+04</rscale>
<asrwt>0</asrwt>
<pdfrwt beam="1">  1        4 0.37470239E-01 0.14487641E+04</pdfrwt>
<pdfrwt beam="2">  1       -4 0.33145317E+00 0.14487641E+04</pdfrwt>
<totfact> 0.26631591E-01</totfact>
</mgrwt>
</event>
<event>
 6    1  0.4693218E-004  0.2287740E+04  0.7818608E-02  0.8482771E-01
          2   -1    0    0  501    0  0.00000000000E+00  0.00000000000E+00  0.18748114308E+04  0.18748114308E+04  0.00000000000E+00 0.  1.
         -2   -1    0    0    0  501 -0.00000000000E+00 -0.00000000000E+00 -0.69790381757E+03  0.69790381757E+03  0.00000000000E+00 0. -1.
         23    2    1    2    0    0 -0.38697186269E+03  0.17240693867E+03 -0.60321922538E+03  0.74287292277E+03  0.92278765148E+02 0.  0.
         11    1    3    3    0    0 -0.27785734658E+03  0.88227525514E+02 -0.35907745190E+03  0.46252072145E+03  0.00000000000E+00 0. -1.
        -11    1    3    3    0    0 -0.10911451611E+03  0.84179413153E+02 -0.24414177349E+03  0.28035220132E+03  0.00000000000E+00 0.  1.
         22    1    1    2    0    0  0.38697186269E+03 -0.17240693867E+03  0.17801268386E+04  0.18298423256E+04  0.00000000000E+00 0.  1.
<mgrwt>
<rscale>  0 0.22877395E+04</rscale>
<asrwt>0</asrwt>
<pdfrwt beam="1">  1        2 0.28843253E+00 0.22877395E+04</pdfrwt>
<pdfrwt beam="2">  1       -2 0.10736982E+00 0.22877395E+04</pdfrwt>
<totfact> 0.49576726E+00</totfact>
</mgrwt>
</event>
<event>
 6    1  0.4630212E-004  0.2419461E+04  0.7818608E-02  0.8432253E-01
         -2   -1    0    0    0  501 -0.00000000000E+00  0.00000000000E+00  0.10186599399E+04  0.10186599399E+04  0.00000000000E+00 0. -1.
          2   -1    0    0  501    0  0.00000000000E+00 -0.00000000000E+00 -0.14366401958E+04  0.14366401958E+04  0.00000000000E+00 0.  1.
         23    2    1    2    0    0 -0.68808896510E+03 -0.53335970208E+03  0.64053022008E+03  0.10847588472E+04  0.92107535607E+02 0.  0.
         11    1    3    3    0    0 -0.26230693396E+03 -0.17797321143E+03  0.18473424040E+03  0.36688708231E+03  0.00000000000E+00 0. -1.
        -11    1    3    3    0    0 -0.42578203114E+03 -0.35538649065E+03  0.45579597967E+03  0.71787176492E+03  0.00000000000E+00 0.  1.
         22    1    1    2    0    0  0.68808896510E+03  0.53335970208E+03 -0.10585104759E+04  0.13705412885E+04  0.00000000000E+00 0.  1.
<mgrwt>
<rscale>  0 0.24194609E+04</rscale>
<asrwt>0</asrwt>
<pdfrwt beam="1">  1        2 0.22102157E+00 0.24194609E+04</pdfrwt>
<pdfrwt beam="2">  1       -2 0.15671691E+00 0.24194609E+04</pdfrwt>
<totfact> 0.32996029E+00</totfact>
</mgrwt>
</event>
<event>
 6    1  0.4630212E-004  0.3871752E+04  0.7818608E-02  0.8030930E-01
         -2   -1    0    0    0  501 -0.00000000000E+00  0.00000000000E+00  0.19420860996E+04  0.19420860996E+04  0.00000000000E+00 0. -1.
          2   -1    0    0  501    0  0.00000000000E+00 -0.00000000000E+00 -0.19296860049E+04  0.19296860049E+04  0.00000000000E+00 0.  1.
         23    2    1    2    0    0 -0.14346302659E+03 -0.18712386287E+04 -0.46450732885E+03  0.19353949883E+04  0.88718976707E+02 0.  0.
         11    1    3    3    0    0 -0.10818651232E+03 -0.85075540368E+03 -0.22323274538E+03  0.88618391824E+03  0.00000000000E+00 0. -1.
        -11    1    3    3    0    0 -0.35276514269E+02 -0.10204832250E+04 -0.24127458347E+03  0.10492110701E+04  0.00000000000E+00 0.  1.
         22    1    1    2    0    0  0.14346302659E+03  0.18712386287E+04  0.47690742362E+03  0.19363771162E+04  0.00000000000E+00 0.  1.
<mgrwt>
<rscale>  0 0.38717522E+04</rscale>
<asrwt>0</asrwt>
<pdfrwt beam="1">  1        2 0.29687477E+00 0.38717522E+04</pdfrwt>
<pdfrwt beam="2">  1       -2 0.29878248E+00 0.38717522E+04</pdfrwt>
<totfact> 0.18842297E-01</totfact>
</mgrwt>
</event>
<event>
 6    1  0.4630212E-004  0.9039951E+03  0.7818608E-02  0.9420601E-01
          2   -1    0    0  501    0  0.00000000000E+00  0.00000000000E+00  0.17199512369E+04  0.17199512369E+04  0.00000000000E+00 0. -1.
         -2   -1    0    0    0  501 -0.00000000000E+00 -0.00000000000E+00 -0.11878346934E+03  0.11878346934E+03  0.00000000000E+00 0.  1.
         23    2    1    2    0    0  0.18139249522E+03  0.36495341353E+03  0.11820986456E+04  0.12541723397E+04  0.97451621082E+02 0.  0.
         11    1    3    3    0    0  0.89869662629E+02  0.25006494808E+03  0.65119591674E+03  0.70332436080E+03  0.00000000000E+00 0.  1.
        -11    1    3    3    0    0  0.91522832591E+02  0.11488846544E+03  0.53090272888E+03  0.55084797894E+03  0.00000000000E+00 0. -1.
         22    1    1    2    0    0 -0.18139249522E+03 -0.36495341353E+03  0.41906912199E+03  0.58456236653E+03  0.00000000000E+00 0.  1.
<mgrwt>
<rscale>  0 0.90399508E+03</rscale>
<asrwt>0</asrwt>
<pdfrwt beam="1">  1        2 0.26460786E+00 0.90399508E+03</pdfrwt>
<pdfrwt beam="2">  1       -2 0.18274381E-01 0.90399508E+03</pdfrwt>
<totfact> 0.24038773E+02</totfact>
</mgrwt>
</event>
<event>
 6    1  0.4630212E-004  0.2749604E+04  0.7818608E-02  0.8319087E-01
         -2   -1    0    0    0  501 -0.00000000000E+00  0.00000000000E+00  0.73381173450E+03  0.73381173450E+03  0.00000000000E+00 0. -1.
          2   -1    0    0  501    0  0.00000000000E+00 -0.00000000000E+00 -0.25757031425E+04  0.25757031425E+04  0.00000000000E+00 0.  1.
         23    2    1    2    0    0 -0.25628259671E+03 -0.12536756988E+04 -0.15221939351E+04  0.19905797000E+04  0.89160746640E+02 0.  0.
         13    1    3    3    0    0 -0.25738637383E+02 -0.30392021613E+03 -0.38239194407E+03  0.48913553757E+03  0.00000000000E+00 0.  1.
        -13    1    3    3    0    0 -0.23054395933E+03 -0.94975548264E+03 -0.11398019911E+04  0.15014441624E+04  0.00000000000E+00 0. -1.
         22    1    1    2    0    0  0.25628259671E+03  0.12536756988E+04 -0.31969747288E+03  0.13189351770E+04  0.00000000000E+00 0. -1.
<mgrwt>
<rscale>  0 0.27496045E+04</rscale>
<asrwt>0</asrwt>
<pdfrwt beam="1">  1        2 0.39626202E+00 0.27496045E+04</pdfrwt>
<pdfrwt beam="2">  1       -2 0.11289411E+00 0.27496045E+04</pdfrwt>
<totfact> 0.16944672E+00</totfact>
</mgrwt>
</event>
<event>
 6    1  0.4630212E-004  0.1741516E+04  0.7818608E-02  0.8738034E-01
         -2   -1    0    0    0  501 -0.00000000000E+00  0.00000000000E+00  0.17773804775E+03  0.17773804775E+03  0.00000000000E+00 0. -1.
          2   -1    0    0  501    0  0.00000000000E+00 -0.00000000000E+00 -0.42659381304E+04  0.42659381304E+04  0.00000000000E+00 0.  1.
         23    2    1    2    0    0 -0.39282136909E+03  0.56257083017E+03 -0.69188283279E+03  0.97874249499E+03  0.91871922841E+02 0.  0.
         13    1    3    3    0    0 -0.38620579436E+02  0.51873882865E+02 -0.31644594433E+02  0.71998814131E+02  0.00000000000E+00 0.  1.
        -13    1    3    3    0    0 -0.35420078965E+03  0.51069694731E+03 -0.66023823836E+03  0.90674368086E+03  0.00000000000E+00 0. -1.
         22    1    1    2    0    0  0.39282136909E+03 -0.56257083017E+03 -0.33963172499E+04  0.34649336832E+04  0.00000000000E+00 0.  1.
<mgrwt>
<rscale>  0 0.17415160E+04</rscale>
<asrwt>0</asrwt>
<pdfrwt beam="1">  1        2 0.65629817E+00 0.17415160E+04</pdfrwt>
<pdfrwt beam="2">  1       -2 0.27344315E-01 0.17415160E+04</pdfrwt>
<totfact> 0.23989375E+00</totfact>
</mgrwt>
</event>
<event>
 6    1  0.4630212E-004  0.7517640E+03  0.7818608E-02  0.9632587E-01
          2   -1    0    0  501    0  0.00000000000E+00  0.00000000000E+00  0.84189337666E+03  0.84189337666E+03  0.00000000000E+00 0.  1.
         -2   -1    0    0    0  501 -0.00000000000E+00 -0.00000000000E+00 -0.16782088534E+03  0.16782088534E+03  0.00000000000E+00 0. -1.
         23    2    1    2    0    0 -0.54083073986E+01  0.35719412321E+03  0.21071762542E+03  0.42463766599E+03  0.91095215432E+02 0.  0.
         11    1    3    3    0    0 -0.44085068812E+02  0.25318757575E+03  0.15906113210E+03  0.30223812723E+03  0.00000000000E+00 0. -1.
        -11    1    3    3    0    0  0.38676761413E+02  0.10400654746E+03  0.51656493320E+02  0.12239953876E+03  0.00000000000E+00 0.  1.
         22    1    1    2    0    0  0.54083073986E+01 -0.35719412321E+03  0.46335486590E+03  0.58507659601E+03  0.00000000000E+00 0. -1.
<mgrwt>
<rscale>  0 0.75176404E+03</rscale>
<asrwt>0</asrwt>
<pdfrwt beam="1">  1        2 0.12952206E+00 0.75176404E+03</pdfrwt>
<pdfrwt beam="2">  1       -2 0.25818598E-01 0.75176404E+03</pdfrwt>
<totfact> 0.43707614E+02</totfact>
</mgrwt>
</event>
<event>
 6    1  0.4630212E-004  0.2305685E+04  0.7818608E-02  0.8475683E-01
         -1   -1    0    0    0  501 -0.00000000000E+00  0.00000000000E+00  0.63608898473E+03  0.63608898473E+03  0.00000000000E+00 0. -1.
          1   -1    0    0  501    0  0.00000000000E+00 -0.00000000000E+00 -0.20894015212E+04  0.20894015212E+04  0.00000000000E+00 0.  1.
         23    2    1    2    0    0 -0.25683379348E+03 -0.97851970667E+03 -0.78652451016E+02  0.10186938677E+04  0.89925380940E+02 0.  0.
         11    1    3    3    0    0 -0.12704984752E+03 -0.64773546200E+03 -0.61713160748E+02  0.66295656471E+03  0.00000000000E+00 0.  1.
        -11    1    3    3    0    0 -0.12978394596E+03 -0.33078424467E+03 -0.16939290268E+02  0.35573730295E+03  0.00000000000E+00 0. -1.
         22    1    1    2    0    0  0.25683379348E+03  0.97851970667E+03 -0.13746600854E+04  0.17067966383E+04  0.00000000000E+00 0.  1.
<mgrwt>
<rscale>  0 0.23056845E+04</rscale>
<asrwt>0</asrwt>
<pdfrwt beam="1">  1        1 0.32144639E+00 0.23056845E+04</pdfrwt>
<pdfrwt beam="2">  1       -1 0.97859843E-01 0.23056845E+04</pdfrwt>
<totfact> 0.23435333E+00</totfact>
</mgrwt>
</event>
<event>
 6    1  0.4630212E-004  0.1443448E+04  0.7818608E-02  0.8922955E-01
          2   -1    0    0  501    0  0.00000000000E+00  0.00000000000E+00  0.23756221302E+04  0.23756221302E+04  0.00000000000E+00 0.  1.
         -2   -1    0    0    0  501 -0.00000000000E+00 -0.00000000000E+00 -0.21926287402E+03  0.21926287402E+03  0.00000000000E+00 0. -1.
         23    2    1    2    0    0  0.15191694276E+03 -0.69024553544E+03  0.84772225782E+03  0.11075893207E+04  0.92754624003E+02 0.  0.
         11    1    3    3    0    0  0.26208598747E+02 -0.12527908090E+03  0.10230418557E+03  0.16385324270E+03  0.00000000000E+00 0. -1.
        -11    1    3    3    0    0  0.12570834402E+03 -0.56496645455E+03  0.74541807226E+03  0.94373607803E+03  0.00000000000E+00 0.  1.
         22    1    1    2    0    0 -0.15191694276E+03  0.69024553544E+03  0.13086369984E+04  0.14872956835E+04  0.00000000000E+00 0.  1.
<mgrwt>
<rscale>  0 0.14434483E+04</rscale>
<asrwt>0</asrwt>
<pdfrwt beam="1">  1        2 0.36548031E+00 0.14434483E+04</pdfrwt>
<pdfrwt beam="2">  1       -2 0.33732751E-01 0.14434483E+04</pdfrwt>
<totfact> 0.32818995E+01</totfact>
</mgrwt>
</event>
<event>
 6    1  0.4630212E-004  0.2988372E+04  0.7818608E-02  0.8247059E-01
         -2   -1    0    0    0  501 -0.00000000000E+00  0.00000000000E+00  0.67571067440E+03  0.67571067440E+03  0.00000000000E+00 0. -1.
          2   -1    0    0  501    0  0.00000000000E+00 -0.00000000000E+00 -0.33040654548E+04  0.33040654548E+04  0.00000000000E+00 0.  1.
         23    2    1    2    0    0 -0.14666721246E+03  0.82409991663E+03  0.33101455538E+03  0.90430562710E+03  0.86868219384E+02 0.  0.
         13    1    3    3    0    0 -0.58149274725E+02  0.46633309184E+03  0.14722108174E+03  0.49246516385E+03  0.00000000000E+00 0. -1.
        -13    1    3    3    0    0 -0.88517937737E+02  0.35776682478E+03  0.18379347364E+03  0.41184046325E+03  0.00000000000E+00 0.  1.
         22    1    1    2    0    0  0.14666721246E+03 -0.82409991663E+03 -0.29593693358E+04  0.30754705021E+04  0.00000000000E+00 0.  1.
<mgrwt>
<rscale>  0 0.29883723E+04</rscale>
<asrwt>0</asrwt>
<pdfrwt beam="1">  1        2 0.50831777E+00 0.29883723E+04</pdfrwt>
<pdfrwt beam="2">  1       -2 0.10395549E+00 0.29883723E+04</pdfrwt>
<totfact> 0.71358486E-01</totfact>
</mgrwt>
</event>
<event>
 6    1  0.4630212E-004  0.2260448E+03  0.7818608E-02  0.1129455E+00
          1   -1    0    0  501    0  0.00000000000E+00  0.00000000000E+00  0.20828715649E+02  0.20828715649E+02  0.00000000000E+00 0.  1.
         -1   -1    0    0    0  501 -0.00000000000E+00 -0.00000000000E+00 -0.61329104887E+03  0.61329104887E+03  0.00000000000E+00 0. -1.
         23    2    1    2    0    0  0.79799305310E+02  0.36141281730E+02 -0.22686267043E+03  0.25817131751E+03  0.86669698158E+02 0.  0.
         11    1    3    3    0    0  0.81694183233E+02 -0.49700688566E+01 -0.15826144106E+03  0.17817217764E+03  0.00000000000E+00 0. -1.
        -11    1    3    3    0    0 -0.18948779232E+01  0.41111350587E+02 -0.68601229371E+02  0.79999139874E+02  0.00000000000E+00 0.  1.
         22    1    1    2    0    0 -0.79799305310E+02 -0.36141281730E+02 -0.36559966279E+03  0.37594844700E+03  0.00000000000E+00 0. -1.
<mgrwt>
<rscale>  0 0.22604482E+03</rscale>
<asrwt>0</asrwt>
<pdfrwt beam="1">  1        1 0.32044178E-02 0.22604482E+03</pdfrwt>
<pdfrwt beam="2">  1       -1 0.94352468E-01 0.22604482E+03</pdfrwt>
<totfact> 0.35219266E+03</totfact>
</mgrwt>
</event>
<event>
 6    1  0.4630212E-004  0.3324191E+04  0.7818608E-02  0.8156767E-01
         -2   -1    0    0    0  501 -0.00000000000E+00  0.00000000000E+00  0.17069047515E+04  0.17069047515E+04  0.00000000000E+00 0. -1.
          2   -1    0    0  501    0  0.00000000000E+00 -0.00000000000E+00 -0.16184628440E+04  0.16184628440E+04  0.00000000000E+00 0.  1.
         23    2    1    2    0    0  0.48204261697E+03  0.14980982610E+04  0.57580365608E+03  0.16778892320E+04  0.84255209244E+02 0.  0.
         11    1    3    3    0    0  0.19739868301E+03  0.74953897261E+03  0.27668794445E+03  0.82300129412E+03  0.00000000000E+00 0.  1.
        -11    1    3    3    0    0  0.28464393396E+03  0.74855928839E+03  0.29911571163E+03  0.85488793788E+03  0.00000000000E+00 0. -1.
         22    1    1    2    0    0 -0.48204261697E+03 -0.14980982610E+04 -0.48736174863E+03  0.16474783635E+04  0.00000000000E+00 0. -1.
<mgrwt>
<rscale>  0 0.33241913E+04</rscale>
<asrwt>0</asrwt>
<pdfrwt beam="1">  1        2 0.24899428E+00 0.33241913E+04</pdfrwt>
<pdfrwt beam="2">  1       -2 0.26260073E+00 0.33241913E+04</pdfrwt>
<totfact> 0.48823823E-01</totfact>
</mgrwt>
</event>
<event>
 6    1  0.4630212E-004  0.1151121E+04  0.7818608E-02  0.9156750E-01
          1   -1    0    0  501    0  0.00000000000E+00  0.00000000000E+00  0.20068647900E+04  0.20068647900E+04  0.00000000000E+00 0.  1.
         -1   -1    0    0    0  501 -0.00000000000E+00 -0.00000000000E+00 -0.16506838377E+03  0.16506838377E+03  0.00000000000E+00 0. -1.
         23    2    1    2    0    0  0.46737954288E+03 -0.78749974364E+02  0.15306142265E+04  0.16049415120E+04  0.91717778082E+02 0.  0.
         13    1    3    3    0    0  0.20252436335E+03 -0.80358515414E+02  0.69727642852E+03  0.73052585616E+03  0.00000000000E+00 0. -1.
        -13    1    3    3    0    0  0.26485517953E+03  0.16085410502E+01  0.83333779802E+03  0.87441565582E+03  0.00000000000E+00 0.  1.
         22    1    1    2    0    0 -0.46737954288E+03  0.78749974364E+02  0.31118217965E+03  0.56699166175E+03  0.00000000000E+00 0. -1.
<mgrwt>
<rscale>  0 0.11511211E+04</rscale>
<asrwt>0</asrwt>
<pdfrwt beam="1">  1        1 0.30874841E+00 0.11511211E+04</pdfrwt>
<pdfrwt beam="2">  1       -1 0.25395137E-01 0.11511211E+04</pdfrwt>
<totfact> 0.40015079E+01</totfact>
</mgrwt>
</event>
<event>
 6    1  0.4630212E-004  0.6111921E+04  0.7818608E-02  0.7676678E-01
          2   -1    0    0  501    0  0.00000000000E+00  0.00000000000E+00  0.32420439294E+04  0.32420439294E+04  0.00000000000E+00 0.  1.
         -2   -1    0    0    0  501 -0.00000000000E+00 -0.00000000000E+00 -0.28805574920E+04  0.28805574920E+04  0.00000000000E+00 0. -1.
         23    2    1    2    0    0  0.84726561451E+03  0.14818385453E+02 -0.27599990004E+04  0.28881385689E+04  0.75308067182E+02 0.  0.
         13    1    3    3    0    0  0.29672724200E+03 -0.26260872601E+02 -0.10270253942E+04  0.10693539404E+04  0.00000000000E+00 0. -1.
        -13    1    3    3    0    0  0.55053837251E+03  0.41079258054E+02 -0.17329736062E+04  0.18187846285E+04  0.00000000000E+00 0.  1.
         22    1    1    2    0    0 -0.84726561451E+03 -0.14818385453E+02  0.31214854377E+04  0.32344628525E+04  0.00000000000E+00 0.  1.
<mgrwt>
<rscale>  0 0.61119208E+04</rscale>
<asrwt>0</asrwt>
<pdfrwt beam="1">  1        2 0.49877599E+00 0.61119208E+04</pdfrwt>
<pdfrwt beam="2">  1       -2 0.44316269E+00 0.61119208E+04</pdfrwt>
<totfact> 0.31382302E-03</totfact>
</mgrwt>
</event>
<event>
 6    1  0.4630212E-004  0.2780986E+04  0.7818608E-02  0.8309196E-01
          2   -1    0    0  501    0  0.00000000000E+00  0.00000000000E+00  0.35194646260E+04  0.35194646260E+04  0.00000000000E+00 0.  1.
         -2   -1    0    0    0  501 -0.00000000000E+00 -0.00000000000E+00 -0.54936511383E+03  0.54936511383E+03  0.00000000000E+00 0. -1.
         23    2    1    2    0    0 -0.11365838323E+04  0.44061384771E+03  0.51142567243E+03  0.13245556243E+04  0.83234685129E+02 0.  0.
         11    1    3    3    0    0 -0.76324508488E+03  0.33624762541E+03  0.35902200889E+03  0.90802110551E+03  0.00000000000E+00 0. -1.
        -11    1    3    3    0    0 -0.37333874746E+03  0.10436622231E+03  0.15240366354E+03  0.41653451882E+03  0.00000000000E+00 0.  1.
         22    1    1    2    0    0  0.11365838323E+04 -0.44061384771E+03  0.24586738398E+04  0.27442741155E+04  0.00000000000E+00 0.  1.
<mgrwt>
<rscale>  0 0.27809862E+04</rscale>
<asrwt>0</asrwt>
<pdfrwt beam="1">  1        2 0.54145608E+00 0.27809862E+04</pdfrwt>
<pdfrwt beam="2">  1       -2 0.84517712E-01 0.27809862E+04</pdfrwt>
<totfact> 0.83797505E-01</totfact>
</mgrwt>
</event>
<event>
 6    1  0.4630212E-004  0.1215936E+04  0.7818608E-02  0.9099021E-01
         -2   -1    0    0    0  501 -0.00000000000E+00  0.00000000000E+00  0.11734539890E+03  0.11734539890E+03  0.00000000000E+00 0. -1.
          2   -1    0    0  501    0  0.00000000000E+00 -0.00000000000E+00 -0.31498916629E+04  0.31498916629E+04  0.00000000000E+00 0.  1.
         23    2    1    2    0    0 -0.40059328079E+03  0.21760056761E+03 -0.25915222198E+04  0.26329443918E+04  0.92648642974E+02 0.  0.
         11    1    3    3    0    0 -0.33324749296E+03  0.14651458679E+03 -0.21590868331E+04  0.21895607707E+04  0.00000000000E+00 0.  1.
        -11    1    3    3    0    0 -0.67345787826E+02  0.71085980822E+02 -0.43243538670E+03  0.44338362112E+03  0.00000000000E+00 0. -1.
         22    1    1    2    0    0  0.40059328079E+03 -0.21760056761E+03 -0.44102404420E+03  0.63429266998E+03  0.00000000000E+00 0.  1.
<mgrwt>
<rscale>  0 0.12159363E+04</rscale>
<asrwt>0</asrwt>
<pdfrwt beam="1">  1        2 0.48459865E+00 0.12159363E+04</pdfrwt>
<pdfrwt beam="2">  1       -2 0.18053141E-01 0.12159363E+04</pdfrwt>
<totfact> 0.35818640E+01</totfact>
</mgrwt>
</event>
<event>
 6    1  0.4630212E-004  0.7083613E+03  0.7818608E-02  0.9703039E-01
         -2   -1    0    0    0  501 -0.00000000000E+00  0.00000000000E+00  0.95657693474E+02  0.95657693474E+02  0.00000000000E+00 0. -1.
          2   -1    0    0  501    0  0.00000000000E+00 -0.00000000000E+00 -0.13113834755E+04  0.13113834755E+04  0.00000000000E+00 0.  1.
         23    2    1    2    0    0  0.12646803240E+03 -0.15527255836E+03 -0.11839483978E+04  0.12042764463E+04  0.91892436900E+02 0.  0.
         13    1    3    3    0    0  0.17235560839E+02 -0.33550153109E+02 -0.48431422844E+03  0.48578076248E+03  0.00000000000E+00 0. -1.
        -13    1    3    3    0    0  0.10923247156E+03 -0.12172240525E+03 -0.69963416933E+03  0.71849568382E+03  0.00000000000E+00 0.  1.
         22    1    1    2    0    0 -0.12646803240E+03  0.15527255836E+03 -0.31777384229E+02  0.20276472264E+03  0.00000000000E+00 0. -1.
<mgrwt>
<rscale>  0 0.70836126E+03</rscale>
<asrwt>0</asrwt>
<pdfrwt beam="1">  1        2 0.20175129E+00 0.70836126E+03</pdfrwt>
<pdfrwt beam="2">  1       -2 0.14716569E-01 0.70836126E+03</pdfrwt>
<totfact> 0.59556131E+02</totfact>
</mgrwt>
</event>
<event>
 6    1  0.4630212E-004  0.1185880E+04  0.7818608E-02  0.9125306E-01
         -2   -1    0    0    0  501 -0.00000000000E+00  0.00000000000E+00  0.63716285086E+03  0.63716285086E+03  0.00000000000E+00 0. -1.
          2   -1    0    0  501    0  0.00000000000E+00 -0.00000000000E+00 -0.55178625359E+03  0.55178625359E+03  0.00000000000E+00 0.  1.
         23    2    1    2    0    0  0.33840591403E+03  0.35948825262E+03  0.36580516389E+03  0.62115464570E+03  0.90935743900E+02 0.  0.
         11    1    3    3    0    0  0.12972486333E+03  0.13361654668E+03  0.84966211146E+02  0.20469777416E+03  0.00000000000E+00 0.  1.
        -11    1    3    3    0    0  0.20868105070E+03  0.22587170595E+03  0.28083895274E+03  0.41645687153E+03  0.00000000000E+00 0. -1.
         22    1    1    2    0    0 -0.33840591403E+03 -0.35948825262E+03 -0.28042856661E+03  0.56779445876E+03  0.00000000000E+00 0.  1.
<mgrwt>
<rscale>  0 0.11858798E+04</rscale>
<asrwt>0</asrwt>
<pdfrwt beam="1">  1        2 0.84890193E-01 0.11858798E+04</pdfrwt>
<pdfrwt beam="2">  1       -2 0.98025054E-01 0.11858798E+04</pdfrwt>
<totfact> 0.46911004E+01</totfact>
</mgrwt>
</event>
<event>
 6    1  0.4630212E-004  0.2457610E+04  0.7818608E-02  0.8418245E-01
          2   -1    0    0  501    0  0.00000000000E+00  0.00000000000E+00  0.13722594566E+04  0.13722594566E+04  0.00000000000E+00 0. -1.
         -2   -1    0    0    0  501 -0.00000000000E+00 -0.00000000000E+00 -0.11003467223E+04  0.11003467223E+04  0.00000000000E+00 0.  1.
         23    2    1    2    0    0  0.21780574023E+03 -0.11731217313E+04 -0.15209725108E+03  0.12063366954E+04  0.91982128379E+02 0.  0.
         11    1    3    3    0    0  0.11421548274E+03 -0.49550965235E+03 -0.24610504104E+02  0.50909789724E+03  0.00000000000E+00 0. -1.
        -11    1    3    3    0    0  0.10359025750E+03 -0.67761207898E+03 -0.12748674698E+03  0.69723879818E+03  0.00000000000E+00 0.  1.
         22    1    1    2    0    0 -0.21780574023E+03  0.11731217313E+04  0.42400998541E+03  0.12662694835E+04  0.00000000000E+00 0. -1.
<mgrwt>
<rscale>  0 0.24576096E+04</rscale>
<asrwt>0</asrwt>
<pdfrwt beam="1">  1        2 0.21111684E+00 0.24576096E+04</pdfrwt>
<pdfrwt beam="2">  1       -2 0.16928411E+00 0.24576096E+04</pdfrwt>
<totfact> 0.28976580E+00</totfact>
</mgrwt>
</event>
<event>
 6    1  0.4630212E-004  0.1049343E+04  0.7818608E-02  0.9256023E-01
          2   -1    0    0  501    0  0.00000000000E+00  0.00000000000E+00  0.57483803542E+03  0.57483803542E+03  0.00000000000E+00 0. -1.
         -2   -1    0    0    0  501 -0.00000000000E+00 -0.00000000000E+00 -0.47888287721E+03  0.47888287721E+03  0.00000000000E+00 0.  1.
         23    2    1    2    0    0  0.34023376408E+03 -0.25781629584E+03  0.34783763823E+03  0.55806675865E+03  0.90659957620E+02 0.  0.
         11    1    3    3    0    0  0.11661651698E+03 -0.12265814088E+03  0.93157707125E+02  0.19319107110E+03  0.00000000000E+00 0.  1.
        -11    1    3    3    0    0  0.22361724710E+03 -0.13515815496E+03  0.25467993111E+03  0.36487568754E+03  0.00000000000E+00 0. -1.
         22    1    1    2    0    0 -0.34023376408E+03  0.25781629584E+03 -0.25188248002E+03  0.49565415399E+03  0.00000000000E+00 0.  1.
<mgrwt>
<rscale>  0 0.10493428E+04</rscale>
<asrwt>0</asrwt>
<pdfrwt beam="1">  1        2 0.88436621E-01 0.10493428E+04</pdfrwt>
<pdfrwt beam="2">  1       -2 0.73674289E-01 0.10493428E+04</pdfrwt>
<totfact> 0.86447991E+01</totfact>
</mgrwt>
</event>
<event>
 6    1  0.4630212E-004  0.2303301E+04  0.7818608E-02  0.8476621E-01
         -2   -1    0    0    0  501 -0.00000000000E+00  0.00000000000E+00  0.69612351849E+03  0.69612351849E+03  0.00000000000E+00 0. -1.
          2   -1    0    0  501    0  0.00000000000E+00 -0.00000000000E+00 -0.19052634751E+04  0.19052634751E+04  0.00000000000E+00 0.  1.
         23    2    1    2    0    0 -0.26142689952E+03 -0.19173505590E+03 -0.18514811405E+04  0.18818673260E+04  0.91300951517E+02 0.  0.
         13    1    3    3    0    0 -0.14200485343E+03 -0.65464002037E+02 -0.69303878899E+03  0.71046018678E+03  0.00000000000E+00 0. -1.
        -13    1    3    3    0    0 -0.11942204609E+03 -0.12627105386E+03 -0.11584423515E+04  0.11714071392E+04  0.00000000000E+00 0.  1.
         22    1    1    2    0    0  0.26142689952E+03  0.19173505590E+03  0.64234118390E+03  0.71951966755E+03  0.00000000000E+00 0. -1.
<mgrwt>
<rscale>  0 0.23033009E+04</rscale>
<asrwt>0</asrwt>
<pdfrwt beam="1">  1        2 0.29311745E+00 0.23033009E+04</pdfrwt>
<pdfrwt beam="2">  1       -2 0.10709593E+00 0.23033009E+04</pdfrwt>
<totfact> 0.47917148E+00</totfact>
</mgrwt>
</event>
<event>
 6    1  0.4630212E-004  0.1182888E+04  0.7818608E-02  0.9127968E-01
         -2   -1    0    0    0  501 -0.00000000000E+00  0.00000000000E+00  0.24599841088E+03  0.24599841088E+03  0.00000000000E+00 0. -1.
          2   -1    0    0  501    0  0.00000000000E+00 -0.00000000000E+00 -0.14219845290E+04  0.14219845290E+04  0.00000000000E+00 0.  1.
         23    2    1    2    0    0  0.30814235014E+03 -0.25484385133E+03  0.16329932823E+02  0.41040007508E+03  0.90909066705E+02 0.  0.
         11    1    3    3    0    0  0.21960462403E+03 -0.14728072685E+03 -0.23612597208E+02  0.26547195359E+03  0.00000000000E+00 0. -1.
        -11    1    3    3    0    0  0.88537726109E+02 -0.10756312448E+03  0.39942530031E+02  0.14492812149E+03  0.00000000000E+00 0.  1.
         22    1    1    2    0    0 -0.30814235014E+03  0.25484385133E+03 -0.11923160509E+04  0.12575828648E+04  0.00000000000E+00 0.  1.
<mgrwt>
<rscale>  0 0.11828879E+04</rscale>
<asrwt>0</asrwt>
<pdfrwt beam="1">  1        2 0.21876685E+00 0.11828879E+04</pdfrwt>
<pdfrwt beam="2">  1       -2 0.37845910E-01 0.11828879E+04</pdfrwt>
<totfact> 0.91434055E+01</totfact>
</mgrwt>
</event>
<event>
 6    1  0.4630212E-004  0.4104637E+04  0.7818608E-02  0.7983764E-01
         -2   -1    0    0    0  501 -0.00000000000E+00  0.00000000000E+00  0.17422068145E+04  0.17422068145E+04  0.00000000000E+00 0. -1.
          2   -1    0    0  501    0  0.00000000000E+00 -0.00000000000E+00 -0.24176302941E+04  0.24176302941E+04  0.00000000000E+00 0.  1.
         23    2    1    2    0    0  0.22789800782E+03  0.99301750875E+03 -0.21419665201E+04  0.23741244318E+04  0.10210274158E+03 0.  0.
         11    1    3    3    0    0  0.58013541206E+01  0.14577238734E+03 -0.25482764794E+03  0.29363306145E+03  0.00000000000E+00 0. -1.
        -11    1    3    3    0    0  0.22209665370E+03  0.84724512141E+03 -0.18871388721E+04  0.20804913704E+04  0.00000000000E+00 0.  1.
         22    1    1    2    0    0 -0.22789800782E+03 -0.99301750875E+03  0.14665430405E+04  0.17857126769E+04  0.00000000000E+00 0. -1.
<mgrwt>
<rscale>  0 0.41046374E+04</rscale>
<asrwt>0</asrwt>
<pdfrwt beam="1">  1        2 0.37194312E+00 0.41046374E+04</pdfrwt>
<pdfrwt beam="2">  1       -2 0.26803182E+00 0.41046374E+04</pdfrwt>
<totfact> 0.15139409E-01</totfact>
</mgrwt>
</event>
<event>
 6    1  0.4630212E-004  0.1634931E+04  0.7818608E-02  0.8799371E-01
          2   -1    0    0  501    0  0.00000000000E+00  0.00000000000E+00  0.18468408387E+04  0.18468408387E+04  0.00000000000E+00 0.  1.
         -2   -1    0    0    0  501 -0.00000000000E+00 -0.00000000000E+00 -0.36183411772E+03  0.36183411772E+03  0.00000000000E+00 0. -1.
         23    2    1    2    0    0  0.58452145469E+03  0.56343985697E+03  0.64568068883E+03  0.10409429702E+04  0.86769302287E+02 0.  0.
         13    1    3    3    0    0  0.24856858961E+03  0.21282051471E+03  0.21213670379E+03  0.38997550733E+03  0.00000000000E+00 0. -1.
        -13    1    3    3    0    0  0.33595286507E+03  0.35061934226E+03  0.43354398504E+03  0.65096746284E+03  0.00000000000E+00 0.  1.
         22    1    1    2    0    0 -0.58452145469E+03 -0.56343985697E+03  0.83932603213E+03  0.11677319862E+04  0.00000000000E+00 0.  1.
<mgrwt>
<rscale>  0 0.16349312E+04</rscale>
<asrwt>0</asrwt>
<pdfrwt beam="1">  1        2 0.28412935E+00 0.16349312E+04</pdfrwt>
<pdfrwt beam="2">  1       -2 0.55666788E-01 0.16349312E+04</pdfrwt>
<totfact> 0.23565106E+01</totfact>
</mgrwt>
</event>
<event>
 6    1  0.4630212E-004  0.2236270E+04  0.7818608E-02  0.8503482E-01
          2   -1    0    0  501    0  0.00000000000E+00  0.00000000000E+00  0.27067336576E+04  0.27067336576E+04  0.00000000000E+00 0.  1.
         -2   -1    0    0    0  501 -0.00000000000E+00 -0.00000000000E+00 -0.46189462624E+03  0.46189462624E+03  0.00000000000E+00 0. -1.
         23    2    1    2    0    0  0.62135170471E+03 -0.66571288678E+02  0.24349375408E+04  0.25154459811E+04  0.89654773330E+02 0.  0.
         11    1    3    3    0    0  0.40917974769E+03 -0.75962845696E+02  0.17198615022E+04  0.17694976707E+04  0.00000000000E+00 0. -1.
        -11    1    3    3    0    0  0.21217195702E+03  0.93915570176E+01  0.71507603865E+03  0.74594831037E+03  0.00000000000E+00 0.  1.
         22    1    1    2    0    0 -0.62135170471E+03  0.66571288678E+02 -0.19009850945E+03  0.65318230282E+03  0.00000000000E+00 0. -1.
<mgrwt>
<rscale>  0 0.22362699E+04</rscale>
<asrwt>0</asrwt>
<pdfrwt beam="1">  1        2 0.41642055E+00 0.22362699E+04</pdfrwt>
<pdfrwt beam="2">  1       -2 0.71060713E-01 0.22362699E+04</pdfrwt>
<totfact> 0.43143251E+00</totfact>
</mgrwt>
</event>
<event>
 6    1  0.4630212E-004  0.1296020E+04  0.7818608E-02  0.9032727E-01
          2   -1    0    0  501    0  0.00000000000E+00  0.00000000000E+00  0.14388745677E+04  0.14388745677E+04  0.00000000000E+00 0.  1.
         -2   -1    0    0    0  501 -0.00000000000E+00 -0.00000000000E+00 -0.29183713514E+03  0.29183713514E+03  0.00000000000E+00 0. -1.
         23    2    1    2    0    0  0.48794086834E+03  0.51375230167E+02  0.11350352989E+04  0.12399268656E+04  0.91584916841E+02 0.  0.
         13    1    3    3    0    0  0.25791181071E+03  0.20040224849E+02  0.70942129228E+03  0.75511501287E+03  0.00000000000E+00 0. -1.
        -13    1    3    3    0    0  0.23002905763E+03  0.31335005318E+02  0.42561400666E+03  0.48481185276E+03  0.00000000000E+00 0.  1.
         22    1    1    2    0    0 -0.48794086834E+03 -0.51375230167E+02  0.12002133664E+02  0.49078483726E+03  0.00000000000E+00 0. -1.
<mgrwt>
<rscale>  0 0.12960201E+04</rscale>
<asrwt>0</asrwt>
<pdfrwt beam="1">  1        2 0.22136531E+00 0.12960201E+04</pdfrwt>
<pdfrwt beam="2">  1       -2 0.44898022E-01 0.12960201E+04</pdfrwt>
<totfact> 0.63393852E+01</totfact>
</mgrwt>
</event>
<event>
 6    1  0.4630212E-004  0.1648555E+04  0.7818608E-02  0.8791262E-01
          2   -1    0    0  501    0  0.00000000000E+00  0.00000000000E+00  0.27563663211E+04  0.27563663211E+04  0.00000000000E+00 0.  1.
         -2   -1    0    0    0  501 -0.00000000000E+00 -0.00000000000E+00 -0.24649603212E+03  0.24649603212E+03  0.00000000000E+00 0. -1.
         23    2    1    2    0    0 -0.27398149828E+03 -0.42355028774E+03  0.76591922746E+02  0.51784639447E+03  0.88531677905E+02 0.  0.
         11    1    3    3    0    0 -0.27317048654E+02 -0.10848764661E+03  0.21789819052E+02  0.11397625555E+03  0.00000000000E+00 0. -1.
        -11    1    3    3    0    0 -0.24666444963E+03 -0.31506264112E+03  0.54802103694E+02  0.40387013892E+03  0.00000000000E+00 0.  1.
         22    1    1    2    0    0  0.27398149828E+03  0.42355028774E+03  0.24332783662E+04  0.24850159587E+04  0.00000000000E+00 0.  1.
<mgrwt>
<rscale>  0 0.16485550E+04</rscale>
<asrwt>0</asrwt>
<pdfrwt beam="1">  1        2 0.42405634E+00 0.16485550E+04</pdfrwt>
<pdfrwt beam="2">  1       -2 0.37922468E-01 0.16485550E+04</pdfrwt>
<totfact> 0.15458506E+01</totfact>
</mgrwt>
</event>
<event>
 6    1  0.4630212E-004  0.8592339E+03  0.7818608E-02  0.9478027E-01
         -2   -1    0    0    0  501 -0.00000000000E+00  0.00000000000E+00  0.10484971274E+03  0.10484971274E+03  0.00000000000E+00 0. -1.
          2   -1    0    0  501    0  0.00000000000E+00 -0.00000000000E+00 -0.17603360990E+04  0.17603360990E+04  0.00000000000E+00 0.  1.
         23    2    1    2    0    0 -0.33469645666E+03 -0.16507398811E+03 -0.39662109141E+03  0.55216906765E+03  0.91166054393E+02 0.  0.
         13    1    3    3    0    0 -0.16898701526E+03 -0.12305837195E+03 -0.25811064597E+03  0.33214617233E+03  0.00000000000E+00 0. -1.
        -13    1    3    3    0    0 -0.16570944140E+03 -0.42015616159E+02 -0.13851044544E+03  0.22002289532E+03  0.00000000000E+00 0.  1.
         22    1    1    2    0    0  0.33469645666E+03  0.16507398811E+03 -0.12588652949E+04  0.13130167441E+04  0.00000000000E+00 0.  1.
<mgrwt>
<rscale>  0 0.85923392E+03</rscale>
<asrwt>0</asrwt>
<pdfrwt beam="1">  1        2 0.27082090E+00 0.85923392E+03</pdfrwt>
<pdfrwt beam="2">  1       -2 0.16130727E-01 0.85923392E+03</pdfrwt>
<totfact> 0.28398605E+02</totfact>
</mgrwt>
</event>
<event>
 6    1  0.4630212E-004  0.5527477E+04  0.7818608E-02  0.7751920E-01
          2   -1    0    0  501    0  0.00000000000E+00  0.00000000000E+00  0.43634544939E+04  0.43634544939E+04  0.00000000000E+00 0.  1.
         -2   -1    0    0    0  501 -0.00000000000E+00 -0.00000000000E+00 -0.17505051579E+04  0.17505051579E+04  0.00000000000E+00 0. -1.
         23    2    1    2    0    0  0.87046255445E+03  0.13452753390E+04  0.37965899320E+04  0.41218562768E+04  0.90184580043E+02 0.  0.
         13    1    3    3    0    0  0.58665319116E+03  0.90933169560E+03  0.26703699791E+04  0.28813055937E+04  0.00000000000E+00 0.  1.
        -13    1    3    3    0    0  0.28380936329E+03  0.43594364344E+03  0.11262199529E+04  0.12405506831E+04  0.00000000000E+00 0. -1.
         22    1    1    2    0    0 -0.87046255445E+03 -0.13452753390E+04 -0.11836405959E+04  0.19921033750E+04  0.00000000000E+00 0. -1.
<mgrwt>
<rscale>  0 0.55274767E+04</rscale>
<asrwt>0</asrwt>
<pdfrwt beam="1">  1        2 0.67130069E+00 0.55274767E+04</pdfrwt>
<pdfrwt beam="2">  1       -2 0.26930849E+00 0.55274767E+04</pdfrwt>
<totfact> 0.56220048E-03</totfact>
</mgrwt>
</event>
<event>
 6    1  0.4630212E-004  0.4288615E+04  0.7818608E-02  0.7948727E-01
          2   -1    0    0  501    0  0.00000000000E+00  0.00000000000E+00  0.37097950452E+04  0.37097950452E+04  0.00000000000E+00 0.  1.
         -2   -1    0    0    0  501 -0.00000000000E+00 -0.00000000000E+00 -0.12394365456E+04  0.12394365456E+04  0.00000000000E+00 0. -1.
         23    2    1    2    0    0  0.27948030462E+03  0.15398370040E+03  0.36816661977E+04  0.36965997374E+04  0.91451662045E+02 0.  0.
         11    1    3    3    0    0  0.16066963446E+03  0.13332930516E+03  0.21052370984E+04  0.21155648596E+04  0.00000000000E+00 0. -1.
        -11    1    3    3    0    0  0.11881067016E+03  0.20654395240E+02  0.15764290993E+04  0.15810348777E+04  0.00000000000E+00 0.  1.
         22    1    1    2    0    0 -0.27948030462E+03 -0.15398370040E+03 -0.12113076981E+04  0.12526318534E+04  0.00000000000E+00 0. -1.
<mgrwt>
<rscale>  0 0.42886154E+04</rscale>
<asrwt>0</asrwt>
<pdfrwt beam="1">  1        2 0.57073769E+00 0.42886154E+04</pdfrwt>
<pdfrwt beam="2">  1       -2 0.19068255E+00 0.42886154E+04</pdfrwt>
<totfact> 0.67678467E-02</totfact>
</mgrwt>
</event>
<event>
 6    1  0.4630212E-004  0.1241429E+04  0.7818608E-02  0.9077347E-01
          2   -1    0    0  501    0  0.00000000000E+00  0.00000000000E+00  0.12009501259E+04  0.12009501259E+04  0.00000000000E+00 0.  1.
         -2   -1    0    0    0  501 -0.00000000000E+00 -0.00000000000E+00 -0.32081812533E+03  0.32081812533E+03  0.00000000000E+00 0. -1.
         23    2    1    2    0    0  0.14836433166E+03 -0.55058074591E+03  0.73234608914E+03  0.93270814539E+03  0.91992160193E+02 0.  0.
         13    1    3    3    0    0  0.78982467863E+02 -0.23991010181E+03  0.25464941123E+03  0.35866615371E+03  0.00000000000E+00 0. -1.
        -13    1    3    3    0    0  0.69381863799E+02 -0.31067064409E+03  0.47769667791E+03  0.57404199168E+03  0.00000000000E+00 0.  1.
         22    1    1    2    0    0 -0.14836433166E+03  0.55058074591E+03  0.14778591143E+03  0.58906010584E+03  0.00000000000E+00 0.  1.
<mgrwt>
<rscale>  0 0.12414291E+04</rscale>
<asrwt>0</asrwt>
<pdfrwt beam="1">  1        2 0.18476156E+00 0.12414291E+04</pdfrwt>
<pdfrwt beam="2">  1       -2 0.49356635E-01 0.12414291E+04</pdfrwt>
<totfact> 0.72308099E+01</totfact>
</mgrwt>
</event>
<event>
 6    1  0.4630212E-004  0.7096415E+03  0.7818608E-02  0.9700885E-01
         -2   -1    0    0    0  501 -0.00000000000E+00  0.00000000000E+00  0.35875011598E+03  0.35875011598E+03  0.00000000000E+00 0. -1.
          2   -1    0    0  501    0  0.00000000000E+00 -0.00000000000E+00 -0.35093440457E+03  0.35093440457E+03  0.00000000000E+00 0.  1.
         23    2    1    2    0    0 -0.19339494788E+03  0.15517992542E+03 -0.24190731788E+03  0.35776974894E+03  0.89429456507E+02 0.  0.
         11    1    3    3    0    0 -0.70918888261E+02  0.65633794310E+02 -0.38513555704E+02  0.10402200556E+03  0.00000000000E+00 0.  1.
        -11    1    3    3    0    0 -0.12247605962E+03  0.89546131110E+02 -0.20339376218E+03  0.25374774338E+03  0.00000000000E+00 0. -1.
         22    1    1    2    0    0  0.19339494788E+03 -0.15517992542E+03  0.24972302929E+03  0.35191477161E+03  0.00000000000E+00 0. -1.
<mgrwt>
<rscale>  0 0.70964148E+03</rscale>
<asrwt>0</asrwt>
<pdfrwt beam="1">  1        2 0.53989909E-01 0.70964148E+03</pdfrwt>
<pdfrwt beam="2">  1       -2 0.55192325E-01 0.70964148E+03</pdfrwt>
<totfact> 0.28704874E+02</totfact>
</mgrwt>
</event>
<event>
 6    1  0.4630212E-004  0.3374519E+04  0.7818608E-02  0.8144189E-01
         -2   -1    0    0    0  501 -0.00000000000E+00  0.00000000000E+00  0.94697726963E+03  0.94697726963E+03  0.00000000000E+00 0. -1.
          2   -1    0    0  501    0  0.00000000000E+00 -0.00000000000E+00 -0.30062441391E+04  0.30062441391E+04  0.00000000000E+00 0.  1.
         23    2    1    2    0    0 -0.10557698164E+04 -0.10579775028E+04 -0.19446787140E+04  0.24541894721E+04  0.85465562838E+02 0.  0.
         13    1    3    3    0    0 -0.43369193056E+03 -0.49089101894E+03 -0.87520123533E+03  0.10931787985E+04  0.00000000000E+00 0. -1.
        -13    1    3    3    0    0 -0.62207788589E+03 -0.56708648382E+03 -0.10694774787E+04  0.13610106736E+04  0.00000000000E+00 0.  1.
         22    1    1    2    0    0  0.10557698164E+04  0.10579775028E+04 -0.11458815543E+03  0.14990319366E+04  0.00000000000E+00 0. -1.
<mgrwt>
<rscale>  0 0.33745191E+04</rscale>
<asrwt>0</asrwt>
<pdfrwt beam="1">  1        2 0.46249910E+00 0.33745191E+04</pdfrwt>
<pdfrwt beam="2">  1       -2 0.14568881E+00 0.33745191E+04</pdfrwt>
<totfact> 0.46322564E-01</totfact>
</mgrwt>
</event>
<event>
 6    1  0.4630212E-004  0.1304188E+04  0.7818608E-02  0.9026251E-01
          2   -1    0    0  501    0  0.00000000000E+00  0.00000000000E+00  0.98087614193E+03  0.98087614193E+03  0.00000000000E+00 0.  1.
         -2   -1    0    0    0  501 -0.00000000000E+00 -0.00000000000E+00 -0.43351696578E+03  0.43351696578E+03  0.00000000000E+00 0. -1.
         23    2    1    2    0    0 -0.33533996203E+03  0.54921439295E+03  0.36709192149E+03  0.74612248688E+03  0.88616855318E+02 0.  0.
         11    1    3    3    0    0 -0.91160518948E+02  0.10074742937E+03  0.10773648373E+03  0.17339963860E+03  0.00000000000E+00 0.  1.
        -11    1    3    3    0    0 -0.24417944308E+03  0.44846696358E+03  0.25935543776E+03  0.57272284828E+03  0.00000000000E+00 0. -1.
         22    1    1    2    0    0  0.33533996203E+03 -0.54921439295E+03  0.18026725465E+03  0.66827062083E+03  0.00000000000E+00 0. -1.
<mgrwt>
<rscale>  0 0.13041878E+04</rscale>
<asrwt>0</asrwt>
<pdfrwt beam="1">  1        2 0.15090402E+00 0.13041878E+04</pdfrwt>
<pdfrwt beam="2">  1       -2 0.66694918E-01 0.13041878E+04</pdfrwt>
<totfact> 0.52456434E+01</totfact>
</mgrwt>
</event>
<event>
 6    1  0.4630212E-004  0.1472217E+04  0.7818608E-02  0.8903141E-01
          2   -1    0    0  501    0  0.00000000000E+00  0.00000000000E+00  0.46535617008E+03  0.46535617008E+03  0.00000000000E+00 0.  1.
         -2   -1    0    0    0  501 -0.00000000000E+00 -0.00000000000E+00 -0.11643893929E+04  0.11643893929E+04  0.00000000000E+00 0. -1.
         23    2    1    2    0    0  0.17325754031E+03  0.52606297511E+03 -0.88287868167E+03  0.10461707333E+04  0.90763470824E+02 0.  0.
         11    1    3    3    0    0  0.11877943541E+03  0.22609585179E+03 -0.37188121089E+03  0.45113581490E+03  0.00000000000E+00 0. -1.
        -11    1    3    3    0    0  0.54478104901E+02  0.29996712332E+03 -0.51099747078E+03  0.59503491842E+03  0.00000000000E+00 0.  1.
         22    1    1    2    0    0 -0.17325754031E+03 -0.52606297511E+03  0.18384545887E+03  0.58357482965E+03  0.00000000000E+00 0.  1.
<mgrwt>
<rscale>  0 0.14722171E+04</rscale>
<asrwt>0</asrwt>
<pdfrwt beam="1">  1        2 0.71593257E-01 0.14722171E+04</pdfrwt>
<pdfrwt beam="2">  1       -2 0.17913683E+00 0.14722171E+04</pdfrwt>
<totfact> 0.11897610E+01</totfact>
</mgrwt>
</event>
<event>
 6    1  0.4630212E-004  0.3456956E+04  0.7818608E-02  0.8124067E-01
         -1   -1    0    0    0  501 -0.00000000000E+00  0.00000000000E+00  0.10663332311E+04  0.10663332311E+04  0.00000000000E+00 0. -1.
          1   -1    0    0  501    0  0.00000000000E+00 -0.00000000000E+00 -0.28017853128E+04  0.28017853128E+04  0.00000000000E+00 0.  1.
         23    2    1    2    0    0  0.13774796943E+04  0.10409521369E+04 -0.92428397603E+03  0.19604955844E+04  0.90611306165E+02 0.  0.
         11    1    3    3    0    0  0.49513405105E+03  0.36380071766E+03 -0.28095768354E+03  0.67560780829E+03  0.00000000000E+00 0.  1.
        -11    1    3    3    0    0  0.88234564320E+03  0.67715141929E+03 -0.64332629248E+03  0.12848877762E+04  0.00000000000E+00 0. -1.
         22    1    1    2    0    0 -0.13774796943E+04 -0.10409521369E+04 -0.81116810567E+03  0.19076229594E+04  0.00000000000E+00 0. -1.
<mgrwt>
<rscale>  0 0.34569563E+04</rscale>
<asrwt>0</asrwt>
<pdfrwt beam="1">  1        1 0.43104389E+00 0.34569563E+04</pdfrwt>
<pdfrwt beam="2">  1       -1 0.16405127E+00 0.34569563E+04</pdfrwt>
<totfact> 0.18523695E-01</totfact>
</mgrwt>
</event>
<event>
 6    1  0.4630212E-004  0.2170196E+04  0.7818608E-02  0.8530936E-01
         -2   -1    0    0    0  501 -0.00000000000E+00  0.00000000000E+00  0.11959608775E+04  0.11959608775E+04  0.00000000000E+00 0. -1.
          2   -1    0    0  501    0  0.00000000000E+00 -0.00000000000E+00 -0.98451208394E+03  0.98451208394E+03  0.00000000000E+00 0.  1.
         23    2    1    2    0    0  0.66616874512E+03 -0.85355239995E+03  0.77370816206E+02  0.10894599457E+04  0.92759008497E+02 0.  0.
         13    1    3    3    0    0  0.28629008101E+03 -0.43965653634E+03  0.25490711584E+02  0.52527103176E+03  0.00000000000E+00 0. -1.
        -13    1    3    3    0    0  0.37987866411E+03 -0.41389586361E+03  0.51880104621E+02  0.56418891394E+03  0.00000000000E+00 0.  1.
         22    1    1    2    0    0 -0.66616874512E+03  0.85355239995E+03  0.13407797733E+03  0.10910130157E+04  0.00000000000E+00 0.  1.
<mgrwt>
<rscale>  0 0.21701962E+04</rscale>
<asrwt>0</asrwt>
<pdfrwt beam="1">  1        2 0.15146340E+00 0.21701962E+04</pdfrwt>
<pdfrwt beam="2">  1       -2 0.18399398E+00 0.21701962E+04</pdfrwt>
<totfact> 0.40192308E+00</totfact>
</mgrwt>
</event>
<event>
 6    1  0.4630212E-004  0.2179664E+04  0.7818608E-02  0.8526940E-01
         -2   -1    0    0    0  501 -0.00000000000E+00  0.00000000000E+00  0.51471839490E+03  0.51471839490E+03  0.00000000000E+00 0. -1.
          2   -1    0    0  501    0  0.00000000000E+00 -0.00000000000E+00 -0.23075407035E+04  0.23075407035E+04  0.00000000000E+00 0.  1.
         23    2    1    2    0    0 -0.56872533476E+03 -0.34973089557E+03  0.21426809244E+03  0.70703521340E+03  0.90707066094E+02 0.  0.
         13    1    3    3    0    0 -0.38658377758E+03 -0.24553248543E+03  0.18992832915E+03  0.49578824986E+03  0.00000000000E+00 0. -1.
        -13    1    3    3    0    0 -0.18214155718E+03 -0.10419841014E+03  0.24339763293E+02  0.21124696354E+03  0.00000000000E+00 0.  1.
         22    1    1    2    0    0  0.56872533476E+03  0.34973089557E+03 -0.20070904011E+04  0.21152238850E+04  0.00000000000E+00 0.  1.
<mgrwt>
<rscale>  0 0.21796639E+04</rscale>
<asrwt>0</asrwt>
<pdfrwt beam="1">  1        2 0.35500627E+00 0.21796639E+04</pdfrwt>
<pdfrwt beam="2">  1       -2 0.79187443E-01 0.21796639E+04</pdfrwt>
<totfact> 0.58129575E+00</totfact>
</mgrwt>
</event>
<event>
 6    1  0.4630212E-004  0.2780979E+04  0.7818608E-02  0.8309198E-01
          2   -1    0    0  501    0  0.00000000000E+00  0.00000000000E+00  0.11215680197E+04  0.11215680197E+04  0.00000000000E+00 0.  1.
         -2   -1    0    0    0  501 -0.00000000000E+00 -0.00000000000E+00 -0.17238915786E+04  0.17238915786E+04  0.00000000000E+00 0. -1.
         23    2    1    2    0    0 -0.16416547342E+03 -0.11667649102E+03 -0.17076609927E+04  0.17219229728E+04  0.91372600214E+02 0.  0.
         13    1    3    3    0    0 -0.10376869780E+03 -0.31127502708E+02 -0.10981870872E+04  0.11035178941E+04  0.00000000000E+00 0. -1.
        -13    1    3    3    0    0 -0.60396775617E+02 -0.85548988307E+02 -0.60947390551E+03  0.61840507873E+03  0.00000000000E+00 0.  1.
         22    1    1    2    0    0  0.16416547342E+03  0.11667649102E+03  0.11053374338E+04  0.11235366255E+04  0.00000000000E+00 0.  1.
<mgrwt>
<rscale>  0 0.27809794E+04</rscale>
<asrwt>0</asrwt>
<pdfrwt beam="1">  1        2 0.17254893E+00 0.27809794E+04</pdfrwt>
<pdfrwt beam="2">  1       -2 0.26521409E+00 0.27809794E+04</pdfrwt>
<totfact> 0.95468152E-01</totfact>
</mgrwt>
</event>
<event>
 6    1  0.4630212E-004  0.1675769E+04  0.7818608E-02  0.8775306E-01
         -2   -1    0    0    0  501 -0.00000000000E+00  0.00000000000E+00  0.84833745394E+03  0.84833745394E+03  0.00000000000E+00 0. -1.
          2   -1    0    0  501    0  0.00000000000E+00 -0.00000000000E+00 -0.82756019376E+03  0.82756019376E+03  0.00000000000E+00 0.  1.
         23    2    1    2    0    0  0.80373945713E+03 -0.19901627661E+03  0.12149386157E+03  0.84178229171E+03  0.90730782743E+02 0.  0.
         13    1    3    3    0    0  0.76897515571E+03 -0.19337153224E+03  0.13449158802E+03  0.80424083882E+03  0.00000000000E+00 0. -1.
        -13    1    3    3    0    0  0.34764301417E+02 -0.56447443686E+01 -0.12997726450E+02  0.37541452887E+02  0.00000000000E+00 0.  1.
         22    1    1    2    0    0 -0.80373945713E+03  0.19901627661E+03 -0.10071660140E+03  0.83411535599E+03  0.00000000000E+00 0. -1.
<mgrwt>
<rscale>  0 0.16757688E+04</rscale>
<asrwt>0</asrwt>
<pdfrwt beam="1">  1        2 0.12731695E+00 0.16757688E+04</pdfrwt>
<pdfrwt beam="2">  1       -2 0.13051345E+00 0.16757688E+04</pdfrwt>
<totfact> 0.13490329E+01</totfact>
</mgrwt>
</event>
<event>
 6    1  0.4630212E-004  0.2669200E+04  0.7818608E-02  0.8345068E-01
          2   -1    0    0  501    0  0.00000000000E+00  0.00000000000E+00  0.27656289800E+04  0.27656289800E+04  0.00000000000E+00 0.  1.
         -2   -1    0    0    0  501 -0.00000000000E+00 -0.00000000000E+00 -0.64403315764E+03  0.64403315764E+03  0.00000000000E+00 0. -1.
         23    2    1    2    0    0  0.37456101959E+03 -0.59541349659E+03  0.25084991696E+04  0.26068499619E+04  0.91024452141E+02 0.  0.
         13    1    3    3    0    0  0.15371716926E+03 -0.30738251523E+03  0.13331796056E+04  0.13767646275E+04  0.00000000000E+00 0.  1.
        -13    1    3    3    0    0  0.22084385033E+03 -0.28803098136E+03  0.11753195640E+04  0.12300853344E+04  0.00000000000E+00 0. -1.
         22    1    1    2    0    0 -0.37456101959E+03  0.59541349659E+03 -0.38690334725E+03  0.80281217569E+03  0.00000000000E+00 0. -1.
<mgrwt>
<rscale>  0 0.26691997E+04</rscale>
<asrwt>0</asrwt>
<pdfrwt beam="1">  1        2 0.42548138E+00 0.26691997E+04</pdfrwt>
<pdfrwt beam="2">  1       -2 0.99082026E-01 0.26691997E+04</pdfrwt>
<totfact> 0.18005633E+00</totfact>
</mgrwt>
</event>
<event>
 6    1  0.4630212E-004  0.1420733E+04  0.7818608E-02  0.8938946E-01
         -2   -1    0    0    0  501 -0.00000000000E+00  0.00000000000E+00  0.87892930252E+03  0.87892930252E+03  0.00000000000E+00 0. -1.
          2   -1    0    0  501    0  0.00000000000E+00 -0.00000000000E+00 -0.57413104380E+03  0.57413104380E+03  0.00000000000E+00 0.  1.
         23    2    1    2    0    0  0.15531931192E+03 -0.10268078049E+03  0.85096721462E+03  0.87602658672E+03  0.92789810534E+02 0.  0.
         13    1    3    3    0    0  0.19821461293E+02  0.17085622384E+02  0.13968448819E+03  0.14211461945E+03  0.00000000000E+00 0.  1.
        -13    1    3    3    0    0  0.13549785063E+03 -0.11976640287E+03  0.71128272643E+03  0.73391196727E+03  0.00000000000E+00 0. -1.
         22    1    1    2    0    0 -0.15531931192E+03  0.10268078049E+03 -0.54616895590E+03  0.57703375960E+03  0.00000000000E+00 0.  1.
<mgrwt>
<rscale>  0 0.14207330E+04</rscale>
<asrwt>0</asrwt>
<pdfrwt beam="1">  1        2 0.88327853E-01 0.14207330E+04</pdfrwt>
<pdfrwt beam="2">  1       -2 0.13521989E+00 0.14207330E+04</pdfrwt>
<totfact> 0.19959024E+01</totfact>
</mgrwt>
</event>
<event>
 6    1  0.4630212E-004  0.2164245E+04  0.7818608E-02  0.8533459E-01
          2   -1    0    0  501    0  0.00000000000E+00  0.00000000000E+00  0.25448994005E+04  0.25448994005E+04  0.00000000000E+00 0.  1.
         -2   -1    0    0    0  501 -0.00000000000E+00 -0.00000000000E+00 -0.46013190313E+03  0.46013190313E+03  0.00000000000E+00 0. -1.
         23    2    1    2    0    0 -0.10398659685E+04  0.25552312571E+03  0.84933299312E+03  0.13701271124E+04  0.96272896275E+02 0.  0.
         13    1    3    3    0    0 -0.77811536463E+03  0.14770638098E+03  0.62959949342E+03  0.10117688559E+04  0.00000000000E+00 0. -1.
        -13    1    3    3    0    0 -0.26175060390E+03  0.10781674473E+03  0.21973349969E+03  0.35835825646E+03  0.00000000000E+00 0.  1.
         22    1    1    2    0    0  0.10398659685E+04 -0.25552312571E+03  0.12354345042E+04  0.16349041912E+04  0.00000000000E+00 0.  1.
<mgrwt>
<rscale>  0 0.21642453E+04</rscale>
<asrwt>0</asrwt>
<pdfrwt beam="1">  1        2 0.39152298E+00 0.21642453E+04</pdfrwt>
<pdfrwt beam="2">  1       -2 0.70789525E-01 0.21642453E+04</pdfrwt>
<totfact> 0.54517723E+00</totfact>
</mgrwt>
</event>
<event>
 6    1  0.4630212E-004  0.3012404E+04  0.7818608E-02  0.8240198E-01
          2   -1    0    0  501    0  0.00000000000E+00  0.00000000000E+00  0.15095430699E+04  0.15095430699E+04  0.00000000000E+00 0.  1.
         -2   -1    0    0    0  501 -0.00000000000E+00 -0.00000000000E+00 -0.15028682692E+04  0.15028682692E+04  0.00000000000E+00 0. -1.
         23    2    1    2    0    0  0.15347182388E+03  0.78564411217E+03 -0.12709268621E+04  0.15047455006E+04  0.90629250757E+02 0.  0.
         11    1    3    3    0    0  0.14832040220E+03  0.61316733207E+03 -0.10417086031E+04  0.12178382210E+04  0.00000000000E+00 0.  1.
        -11    1    3    3    0    0  0.51514216747E+01  0.17247678010E+03 -0.22921825901E+03  0.28690727960E+03  0.00000000000E+00 0. -1.
         22    1    1    2    0    0 -0.15347182388E+03 -0.78564411217E+03  0.12776016628E+04  0.15076658385E+04  0.00000000000E+00 0.  1.
<mgrwt>
<rscale>  0 0.30124039E+04</rscale>
<asrwt>0</asrwt>
<pdfrwt beam="1">  1        2 0.23223739E+00 0.30124039E+04</pdfrwt>
<pdfrwt beam="2">  1       -2 0.23121050E+00 0.30124039E+04</pdfrwt>
<totfact> 0.90084217E-01</totfact>
</mgrwt>
</event>
<event>
 6    1  0.4630212E-004  0.2241983E+04  0.7818608E-02  0.8501154E-01
         -2   -1    0    0    0  501 -0.00000000000E+00  0.00000000000E+00  0.32135447381E+03  0.32135447381E+03  0.00000000000E+00 0. -1.
          2   -1    0    0  501    0  0.00000000000E+00 -0.00000000000E+00 -0.39103915812E+04  0.39103915812E+04  0.00000000000E+00 0.  1.
         23    2    1    2    0    0  0.80058830203E+03 -0.45570838102E+03 -0.59867016764E+03  0.11027036788E+04  0.94539281318E+02 0.  0.
         11    1    3    3    0    0  0.28553039994E+03 -0.19811197656E+03 -0.26596400639E+03  0.43762177419E+03  0.00000000000E+00 0. -1.
        -11    1    3    3    0    0  0.51505790208E+03 -0.25759640446E+03 -0.33270616124E+03  0.66508190459E+03  0.00000000000E+00 0.  1.
         22    1    1    2    0    0 -0.80058830203E+03  0.45570838102E+03 -0.29903669398E+04  0.31290423762E+04  0.00000000000E+00 0.  1.
<mgrwt>
<rscale>  0 0.22419829E+04</rscale>
<asrwt>0</asrwt>
<pdfrwt beam="1">  1        2 0.60159872E+00 0.22419829E+04</pdfrwt>
<pdfrwt beam="2">  1       -2 0.49439149E-01 0.22419829E+04</pdfrwt>
<totfact> 0.14313504E+00</totfact>
</mgrwt>
</event>
<event>
 6    1  0.4630212E-004  0.1552203E+04  0.7818608E-02  0.8850462E-01
          2   -1    0    0  501    0  0.00000000000E+00  0.00000000000E+00  0.28845476572E+04  0.28845476572E+04  0.00000000000E+00 0. -1.
         -2   -1    0    0    0  501 -0.00000000000E+00 -0.00000000000E+00 -0.20881382585E+03  0.20881382585E+03  0.00000000000E+00 0.  1.
         23    2    1    2    0    0  0.27190981373E+03  0.18149942853E+03  0.27393636957E+04  0.27603063089E+04  0.91106927453E+02 0.  0.
         11    1    3    3    0    0  0.61695273129E+02  0.90643300219E+01  0.72489632684E+03  0.72757346946E+03  0.00000000000E+00 0. -1.
        -11    1    3    3    0    0  0.21021454060E+03  0.17243509851E+03  0.20144673689E+04  0.20327328395E+04  0.00000000000E+00 0.  1.
         22    1    1    2    0    0 -0.27190981373E+03 -0.18149942853E+03 -0.63629864391E+02  0.33305517411E+03  0.00000000000E+00 0. -1.
<mgrwt>
<rscale>  0 0.15522029E+04</rscale>
<asrwt>0</asrwt>
<pdfrwt beam="1">  1        2 0.44377653E+00 0.15522029E+04</pdfrwt>
<pdfrwt beam="2">  1       -2 0.32125206E-01 0.15522029E+04</pdfrwt>
<totfact> 0.17918377E+01</totfact>
</mgrwt>
</event>
<event>
 6    1  0.4630212E-004  0.2118757E+04  0.7818608E-02  0.8553026E-01
         -2   -1    0    0    0  501 -0.00000000000E+00  0.00000000000E+00  0.35576826023E+03  0.35576826023E+03  0.00000000000E+00 0. -1.
          2   -1    0    0  501    0  0.00000000000E+00 -0.00000000000E+00 -0.31545327869E+04  0.31545327869E+04  0.00000000000E+00 0.  1.
         23    2    1    2    0    0 -0.18093977812E+03 -0.98963847742E+03 -0.19419434567E+04  0.21888375156E+04  0.87987278462E+02 0.  0.
         11    1    3    3    0    0 -0.61179889735E+02 -0.41019468357E+03 -0.89054855134E+03  0.98238453756E+03  0.00000000000E+00 0. -1.
        -11    1    3    3    0    0 -0.11975988839E+03 -0.57944379385E+03 -0.10513949054E+04  0.12064529780E+04  0.00000000000E+00 0.  1.
         22    1    1    2    0    0  0.18093977812E+03  0.98963847742E+03 -0.85682106995E+03  0.13214635315E+04  0.00000000000E+00 0. -1.
<mgrwt>
<rscale>  0 0.21187568E+04</rscale>
<asrwt>0</asrwt>
<pdfrwt beam="1">  1        2 0.48531271E+00 0.21187568E+04</pdfrwt>
<pdfrwt beam="2">  1       -2 0.54733581E-01 0.21187568E+04</pdfrwt>
<totfact> 0.40206654E+00</totfact>
</mgrwt>
</event>
<event>
 6    1  0.4630212E-004  0.3160522E+04  0.7818608E-02  0.8199322E-01
         -2   -1    0    0    0  501 -0.00000000000E+00  0.00000000000E+00  0.67414884008E+03  0.67414884008E+03  0.00000000000E+00 0. -1.
          2   -1    0    0  501    0  0.00000000000E+00 -0.00000000000E+00 -0.37042632740E+04  0.37042632740E+04  0.00000000000E+00 0.  1.
         23    2    1    2    0    0 -0.22769186835E+03 -0.45188961600E+03 -0.35883367509E+04  0.36249799890E+04  0.90947625686E+02 0.  0.
         11    1    3    3    0    0 -0.43195973575E+02 -0.67009930707E+02 -0.82949822804E+03  0.83332078653E+03  0.00000000000E+00 0. -1.
        -11    1    3    3    0    0 -0.18449589478E+03 -0.38487968529E+03 -0.27588385229E+04  0.27916592025E+04  0.00000000000E+00 0.  1.
         22    1    1    2    0    0  0.22769186835E+03  0.45188961600E+03  0.55822231698E+03  0.75343212510E+03  0.00000000000E+00 0. -1.
<mgrwt>
<rscale>  0 0.31605220E+04</rscale>
<asrwt>0</asrwt>
<pdfrwt beam="1">  1        2 0.56988667E+00 0.31605220E+04</pdfrwt>
<pdfrwt beam="2">  1       -2 0.10371520E+00 0.31605220E+04</pdfrwt>
<totfact> 0.37014983E-01</totfact>
</mgrwt>
</event>
<event>
 6    1  0.4630212E-004  0.2120372E+04  0.7818608E-02  0.8552322E-01
          2   -1    0    0  501    0  0.00000000000E+00  0.00000000000E+00  0.68862170249E+03  0.68862170249E+03  0.00000000000E+00 0.  1.
         -2   -1    0    0    0  501 -0.00000000000E+00 -0.00000000000E+00 -0.16322381122E+04  0.16322381122E+04  0.00000000000E+00 0. -1.
         23    2    1    2    0    0 -0.22780961213E+03 -0.44799100595E+03 -0.14920234280E+04  0.15769892491E+04  0.90377105269E+02 0.  0.
         13    1    3    3    0    0 -0.12752300546E+03 -0.21744147070E+03 -0.61544325905E+03  0.66506639910E+03  0.00000000000E+00 0.  1.
        -13    1    3    3    0    0 -0.10028660667E+03 -0.23054953525E+03 -0.87658016896E+03  0.91192284997E+03  0.00000000000E+00 0. -1.
         22    1    1    2    0    0  0.22780961213E+03  0.44799100595E+03  0.54840701825E+03  0.74387056566E+03  0.00000000000E+00 0.  1.
<mgrwt>
<rscale>  0 0.21203722E+04</rscale>
<asrwt>0</asrwt>
<pdfrwt beam="1">  1        2 0.10594180E+00 0.21203722E+04</pdfrwt>
<pdfrwt beam="2">  1       -2 0.25111355E+00 0.21203722E+04</pdfrwt>
<totfact> 0.24339846E+00</totfact>
</mgrwt>
</event>
<event>
 6    1  0.4630212E-004  0.1705608E+04  0.7818608E-02  0.8758173E-01
         -2   -1    0    0    0  501 -0.00000000000E+00  0.00000000000E+00  0.11487431970E+04  0.11487431970E+04  0.00000000000E+00 0. -1.
          2   -1    0    0  501    0  0.00000000000E+00 -0.00000000000E+00 -0.63310443088E+03  0.63310443088E+03  0.00000000000E+00 0.  1.
         23    2    1    2    0    0  0.49298196459E+03  0.14750894613E+02  0.98228043433E+03  0.11028754247E+04  0.90612054372E+02 0.  0.
         13    1    3    3    0    0  0.44717106252E+03  0.70490360807E+01  0.81943532039E+03  0.93353408742E+03  0.00000000000E+00 0. -1.
        -13    1    3    3    0    0  0.45810902075E+02  0.77018585319E+01  0.16284511394E+03  0.16934133727E+03  0.00000000000E+00 0.  1.
         22    1    1    2    0    0 -0.49298196459E+03 -0.14750894613E+02 -0.46664166817E+03  0.67897220324E+03  0.00000000000E+00 0.  1.
<mgrwt>
<rscale>  0 0.17056077E+04</rscale>
<asrwt>0</asrwt>
<pdfrwt beam="1">  1        2 0.97400682E-01 0.17056077E+04</pdfrwt>
<pdfrwt beam="2">  1       -2 0.17672972E+00 0.17056077E+04</pdfrwt>
<totfact> 0.84341306E+00</totfact>
</mgrwt>
</event>
<event>
 6    1  0.4630212E-004  0.5048044E+04  0.7818608E-02  0.7821138E-01
         -2   -1    0    0    0  501 -0.00000000000E+00  0.00000000000E+00  0.20400327413E+04  0.20400327413E+04  0.00000000000E+00 0. -1.
          2   -1    0    0  501    0  0.00000000000E+00 -0.00000000000E+00 -0.31228354339E+04  0.31228354339E+04  0.00000000000E+00 0.  1.
         23    2    1    2    0    0 -0.17803943698E+04  0.16823903511E+04  0.77743871108E+02  0.24523129309E+04  0.86909125666E+02 0.  0.
         13    1    3    3    0    0 -0.20474945374E+03  0.18047795257E+03  0.34390576655E+02  0.27509515069E+03  0.00000000000E+00 0. -1.
        -13    1    3    3    0    0 -0.15756449160E+04  0.15019123986E+04  0.43353294452E+02  0.21772177802E+04  0.00000000000E+00 0.  1.
         22    1    1    2    0    0  0.17803943698E+04 -0.16823903511E+04 -0.11605465637E+04  0.27105552442E+04  0.00000000000E+00 0. -1.
<mgrwt>
<rscale>  0 0.50480438E+04</rscale>
<asrwt>0</asrwt>
<pdfrwt beam="1">  1        2 0.48043622E+00 0.50480438E+04</pdfrwt>
<pdfrwt beam="2">  1       -2 0.31385119E+00 0.50480438E+04</pdfrwt>
<totfact> 0.27551667E-02</totfact>
</mgrwt>
</event>
<event>
 6    1  0.4630212E-004  0.2119214E+04  0.7818608E-02  0.8552826E-01
         -1   -1    0    0    0  501 -0.00000000000E+00  0.00000000000E+00  0.75908174512E+03  0.75908174512E+03  0.00000000000E+00 0. -1.
          1   -1    0    0  501    0  0.00000000000E+00 -0.00000000000E+00 -0.14791124712E+04  0.14791124712E+04  0.00000000000E+00 0.  1.
         23    2    1    2    0    0  0.57031202764E+03 -0.26218888911E+03  0.53703383145E+03  0.83312833734E+03  0.10816038050E+03 0.  0.
         11    1    3    3    0    0  0.17578491058E+03 -0.13748568804E+03  0.18567485154E+03  0.29030638935E+03  0.00000000000E+00 0.  1.
        -11    1    3    3    0    0  0.39452711706E+03 -0.12470320107E+03  0.35135897992E+03  0.54282194800E+03  0.00000000000E+00 0. -1.
         22    1    1    2    0    0 -0.57031202764E+03  0.26218888911E+03 -0.12570645576E+04  0.14050658790E+04  0.00000000000E+00 0.  1.
<mgrwt>
<rscale>  0 0.21192143E+04</rscale>
<asrwt>0</asrwt>
<pdfrwt beam="1">  1        1 0.22755576E+00 0.21192143E+04</pdfrwt>
<pdfrwt beam="2">  1       -1 0.11678181E+00 0.21192143E+04</pdfrwt>
<totfact> 0.41077598E+00</totfact>
</mgrwt>
</event>
<event>
 6    1  0.4630212E-004  0.2135008E+04  0.7818608E-02  0.8545977E-01
          2   -1    0    0  501    0  0.00000000000E+00  0.00000000000E+00  0.16667469794E+04  0.16667469794E+04  0.00000000000E+00 0.  1.
         -2   -1    0    0    0  501 -0.00000000000E+00 -0.00000000000E+00 -0.68370615401E+03  0.68370615401E+03  0.00000000000E+00 0. -1.
         23    2    1    2    0    0 -0.72631348366E+03  0.20588754399E+03  0.13203569915E+04  0.15235896905E+04  0.89788655936E+02 0.  0.
         13    1    3    3    0    0 -0.43617730342E+03  0.89188719214E+02  0.83346537232E+03  0.94491787713E+03  0.00000000000E+00 0.  1.
        -13    1    3    3    0    0 -0.29013618024E+03  0.11669882478E+03  0.48689161917E+03  0.57867181339E+03  0.00000000000E+00 0. -1.
         22    1    1    2    0    0  0.72631348366E+03 -0.20588754399E+03 -0.33731616609E+03  0.82686344291E+03  0.00000000000E+00 0. -1.
<mgrwt>
<rscale>  0 0.21350084E+04</rscale>
<asrwt>0</asrwt>
<pdfrwt beam="1">  1        2 0.25642261E+00 0.21350084E+04</pdfrwt>
<pdfrwt beam="2">  1       -2 0.10518556E+00 0.21350084E+04</pdfrwt>
<totfact> 0.68843439E+00</totfact>
</mgrwt>
</event>
<event>
 6    1  0.4630212E-004  0.2786260E+04  0.7818608E-02  0.8307547E-01
          2   -1    0    0  501    0  0.00000000000E+00  0.00000000000E+00  0.21579064309E+04  0.21579064309E+04  0.00000000000E+00 0.  1.
         -2   -1    0    0    0  501 -0.00000000000E+00 -0.00000000000E+00 -0.89939568071E+03  0.89939568071E+03  0.00000000000E+00 0. -1.
         23    2    1    2    0    0  0.28258609524E+03  0.46422974899E+03  0.20356260221E+04  0.21090024191E+04  0.93561426795E+02 0.  0.
         11    1    3    3    0    0  0.12538853819E+03  0.23643075605E+03  0.11694658799E+04  0.11996967251E+04  0.00000000000E+00 0. -1.
        -11    1    3    3    0    0  0.15719755705E+03  0.22779899295E+03  0.86616014219E+03  0.90930569395E+03  0.00000000000E+00 0.  1.
         22    1    1    2    0    0 -0.28258609524E+03 -0.46422974899E+03 -0.77711527191E+03  0.94829969256E+03  0.00000000000E+00 0. -1.
<mgrwt>
<rscale>  0 0.27862604E+04</rscale>
<asrwt>0</asrwt>
<pdfrwt beam="1">  1        2 0.33198560E+00 0.27862604E+04</pdfrwt>
<pdfrwt beam="2">  1       -2 0.13836857E+00 0.27862604E+04</pdfrwt>
<totfact> 0.17587927E+00</totfact>
</mgrwt>
</event>
<event>
 6    1  0.4630212E-004  0.3370032E+04  0.7818608E-02  0.8145301E-01
         -2   -1    0    0    0  501 -0.00000000000E+00  0.00000000000E+00  0.12014129991E+04  0.12014129991E+04  0.00000000000E+00 0. -1.
          2   -1    0    0  501    0  0.00000000000E+00 -0.00000000000E+00 -0.23632835176E+04  0.23632835176E+04  0.00000000000E+00 0.  1.
         23    2    1    2    0    0 -0.72699566464E+03 -0.12825102684E+04 -0.14418120828E+04  0.20641224385E+04  0.91782753143E+02 0.  0.
         13    1    3    3    0    0 -0.64247156068E+03 -0.11749367927E+04 -0.12835388092E+04  0.18549172617E+04  0.00000000000E+00 0.  1.
        -13    1    3    3    0    0 -0.84524103955E+02 -0.10757347573E+03 -0.15827327368E+03  0.20920517678E+03  0.00000000000E+00 0. -1.
         22    1    1    2    0    0  0.72699566464E+03  0.12825102684E+04  0.27994156441E+03  0.15005740783E+04  0.00000000000E+00 0. -1.
<mgrwt>
<rscale>  0 0.33700324E+04</rscale>
<asrwt>0</asrwt>
<pdfrwt beam="1">  1        2 0.36358208E+00 0.33700324E+04</pdfrwt>
<pdfrwt beam="2">  1       -2 0.18483277E+00 0.33700324E+04</pdfrwt>
<totfact> 0.58208883E-01</totfact>
</mgrwt>
</event>
<event>
 6    1  0.4630212E-004  0.5814359E+04  0.7818608E-02  0.7713855E-01
         -2   -1    0    0    0  501 -0.00000000000E+00  0.00000000000E+00  0.28045001904E+04  0.28045001904E+04  0.00000000000E+00 0. -1.
          2   -1    0    0  501    0  0.00000000000E+00 -0.00000000000E+00 -0.30136182587E+04  0.30136182587E+04  0.00000000000E+00 0.  1.
         23    2    1    2    0    0 -0.24785425099E+02  0.28153525754E+04  0.61755659502E+03  0.28838015882E+04  0.90061150448E+02 0.  0.
         13    1    3    3    0    0 -0.26090717792E+02  0.75708860097E+03  0.20198137636E+03  0.78400277529E+03  0.00000000000E+00 0.  1.
        -13    1    3    3    0    0  0.13052926932E+01  0.20582639744E+04  0.41557521866E+03  0.20997988129E+04  0.00000000000E+00 0. -1.
         22    1    1    2    0    0  0.24785425099E+02 -0.28153525754E+04 -0.82667466338E+03  0.29343168609E+04  0.00000000000E+00 0. -1.
<mgrwt>
<rscale>  0 0.58143591E+04</rscale>
<asrwt>0</asrwt>
<pdfrwt beam="1">  1        2 0.46363358E+00 0.58143591E+04</pdfrwt>
<pdfrwt beam="2">  1       -2 0.43146157E+00 0.58143591E+04</pdfrwt>
<totfact> 0.53808379E-03</totfact>
</mgrwt>
</event>
<event>
 6    1  0.4630212E-004  0.1329002E+04  0.7818608E-02  0.9006877E-01
          2   -1    0    0  501    0  0.00000000000E+00  0.00000000000E+00  0.62672433080E+03  0.62672433080E+03  0.00000000000E+00 0.  1.
         -2   -1    0    0    0  501 -0.00000000000E+00 -0.00000000000E+00 -0.70455464304E+03  0.70455464304E+03  0.00000000000E+00 0. -1.
         23    2    1    2    0    0 -0.25266398823E+03  0.40528004854E+03 -0.49762031257E+03  0.69542155817E+03  0.88849082116E+02 0.  0.
         13    1    3    3    0    0 -0.80287921823E+02  0.89798117162E+02 -0.81113761825E+02  0.14522153626E+03  0.00000000000E+00 0.  1.
        -13    1    3    3    0    0 -0.17237606641E+03  0.31548193138E+03 -0.41650655074E+03  0.55020002191E+03  0.00000000000E+00 0. -1.
         22    1    1    2    0    0  0.25266398823E+03 -0.40528004854E+03  0.41979000032E+03  0.63585741567E+03  0.00000000000E+00 0.  1.
<mgrwt>
<rscale>  0 0.13290019E+04</rscale>
<asrwt>0</asrwt>
<pdfrwt beam="1">  1        2 0.96419128E-01 0.13290019E+04</pdfrwt>
<pdfrwt beam="2">  1       -2 0.10839302E+00 0.13290019E+04</pdfrwt>
<totfact> 0.31324841E+01</totfact>
</mgrwt>
</event>
<event>
 6    1  0.4630212E-004  0.2851604E+04  0.7818608E-02  0.8287424E-01
         -2   -1    0    0    0  501 -0.00000000000E+00  0.00000000000E+00  0.66556059521E+03  0.66556059521E+03  0.00000000000E+00 0. -1.
          2   -1    0    0  501    0  0.00000000000E+00 -0.00000000000E+00 -0.30544355439E+04  0.30544355439E+04  0.00000000000E+00 0.  1.
         23    2    1    2    0    0  0.26238290258E+02  0.14214502958E+04 -0.13096062835E+04  0.19350506938E+04  0.90239560351E+02 0.  0.
         11    1    3    3    0    0 -0.11173953702E+02  0.10798478715E+04 -0.96191811652E+03  0.14461959569E+04  0.00000000000E+00 0. -1.
        -11    1    3    3    0    0  0.37412243960E+02  0.34160242432E+03 -0.34768816700E+03  0.48885473688E+03  0.00000000000E+00 0.  1.
         22    1    1    2    0    0 -0.26238290258E+02 -0.14214502958E+04 -0.10792686652E+04  0.17849454454E+04  0.00000000000E+00 0. -1.
<mgrwt>
<rscale>  0 0.28516044E+04</rscale>
<asrwt>0</asrwt>
<pdfrwt beam="1">  1        2 0.46991315E+00 0.28516044E+04</pdfrwt>
<pdfrwt beam="2">  1       -2 0.10239394E+00 0.28516044E+04</pdfrwt>
<totfact> 0.10878267E+00</totfact>
</mgrwt>
</event>
<event>
 6    1  0.4630212E-004  0.3949287E+04  0.7818608E-02  0.8014856E-01
          2   -1    0    0  501    0  0.00000000000E+00  0.00000000000E+00  0.26606862735E+04  0.26606862735E+04  0.00000000000E+00 0.  1.
         -2   -1    0    0    0  501 -0.00000000000E+00 -0.00000000000E+00 -0.14654928114E+04  0.14654928114E+04  0.00000000000E+00 0. -1.
         23    2    1    2    0    0  0.17115419594E+04  0.97689335429E+03  0.48475470539E+03  0.20313235454E+04  0.87130460721E+02 0.  0.
         13    1    3    3    0    0  0.41837009158E+03  0.19901223617E+03  0.12731919518E+03  0.48046808545E+03  0.00000000000E+00 0. -1.
        -13    1    3    3    0    0  0.12931718678E+04  0.77788111811E+03  0.35743551021E+03  0.15508554599E+04  0.00000000000E+00 0.  1.
         22    1    1    2    0    0 -0.17115419594E+04 -0.97689335429E+03  0.71043875663E+03  0.20948555395E+04  0.00000000000E+00 0.  1.
<mgrwt>
<rscale>  0 0.39492868E+04</rscale>
<asrwt>0</asrwt>
<pdfrwt beam="1">  1        2 0.40933635E+00 0.39492868E+04</pdfrwt>
<pdfrwt beam="2">  1       -2 0.22546043E+00 0.39492868E+04</pdfrwt>
<totfact> 0.20262211E-01</totfact>
</mgrwt>
</event>
<event>
 6    1  0.4630212E-004  0.2462479E+04  0.7818608E-02  0.8416476E-01
         -2   -1    0    0    0  501 -0.00000000000E+00  0.00000000000E+00  0.13205848821E+04  0.13205848821E+04  0.00000000000E+00 0. -1.
          2   -1    0    0  501    0  0.00000000000E+00 -0.00000000000E+00 -0.11479393082E+04  0.11479393082E+04  0.00000000000E+00 0.  1.
         23    2    1    2    0    0 -0.94136887445E+03  0.53936336494E+03 -0.49365840597E+03  0.11953198898E+04  0.89458481672E+02 0.  0.
         13    1    3    3    0    0 -0.41771471795E+03  0.22138835279E+03 -0.16960051158E+03  0.50225762500E+03  0.00000000000E+00 0.  1.
        -13    1    3    3    0    0 -0.52365415650E+03  0.31797501215E+03 -0.32405789439E+03  0.69306226480E+03  0.00000000000E+00 0. -1.
         22    1    1    2    0    0  0.94136887445E+03 -0.53936336494E+03  0.66630397993E+03  0.12732043005E+04  0.00000000000E+00 0. -1.
<mgrwt>
<rscale>  0 0.24624795E+04</rscale>
<asrwt>0</asrwt>
<pdfrwt beam="1">  1        2 0.17660605E+00 0.24624795E+04</pdfrwt>
<pdfrwt beam="2">  1       -2 0.20316690E+00 0.24624795E+04</pdfrwt>
<totfact> 0.23095374E+00</totfact>
</mgrwt>
</event>
<event>
 6    1  0.4630212E-004  0.2594966E+04  0.7818608E-02  0.8369913E-01
          2   -1    0    0  501    0  0.00000000000E+00  0.00000000000E+00  0.31712138376E+04  0.31712138376E+04  0.00000000000E+00 0.  1.
         -2   -1    0    0    0  501 -0.00000000000E+00 -0.00000000000E+00 -0.53085736014E+03  0.53085736014E+03  0.00000000000E+00 0. -1.
         23    2    1    2    0    0  0.66594219793E+03  0.56061997442E+03  0.26913014021E+04  0.28300797115E+04  0.92055254535E+02 0.  0.
         11    1    3    3    0    0  0.44554679074E+02  0.60550047771E+02  0.29942636499E+03  0.30871925072E+03  0.00000000000E+00 0.  1.
        -11    1    3    3    0    0  0.62138751886E+03  0.50006992665E+03  0.23918750371E+04  0.25213604608E+04  0.00000000000E+00 0. -1.
         22    1    1    2    0    0 -0.66594219793E+03 -0.56061997442E+03 -0.50944924634E+02  0.87199148622E+03  0.00000000000E+00 0. -1.
<mgrwt>
<rscale>  0 0.25949661E+04</rscale>
<asrwt>0</asrwt>
<pdfrwt beam="1">  1        2 0.48787904E+00 0.25949661E+04</pdfrwt>
<pdfrwt beam="2">  1       -2 0.81670365E-01 0.25949661E+04</pdfrwt>
<totfact> 0.15809498E+00</totfact>
</mgrwt>
</event>
<event>
 6    1  0.4630212E-004  0.1285915E+04  0.7818608E-02  0.9040810E-01
          2   -1    0    0  501    0  0.00000000000E+00  0.00000000000E+00  0.12935623841E+04  0.12935623841E+04  0.00000000000E+00 0.  1.
         -2   -1    0    0    0  501 -0.00000000000E+00 -0.00000000000E+00 -0.31957797043E+03  0.31957797043E+03  0.00000000000E+00 0. -1.
         23    2    1    2    0    0  0.10090173541E+03  0.57306696816E+03  0.15609771760E+03  0.60938462835E+03  0.91630876983E+02 0.  0.
         11    1    3    3    0    0  0.19117353432E+02  0.23252593784E+03  0.21922633529E+02  0.23433818901E+03  0.00000000000E+00 0. -1.
        -11    1    3    3    0    0  0.81784381983E+02  0.34054103033E+03  0.13417508407E+03  0.37504643934E+03  0.00000000000E+00 0.  1.
         22    1    1    2    0    0 -0.10090173541E+03 -0.57306696816E+03  0.81788669606E+03  0.10037557262E+04  0.00000000000E+00 0.  1.
<mgrwt>
<rscale>  0 0.12859145E+04</rscale>
<asrwt>0</asrwt>
<pdfrwt beam="1">  1        2 0.19900959E+00 0.12859145E+04</pdfrwt>
<pdfrwt beam="2">  1       -2 0.49165842E-01 0.12859145E+04</pdfrwt>
<totfact> 0.64054437E+01</totfact>
</mgrwt>
</event>
<event>
 6    1  0.4630212E-004  0.1996259E+04  0.7818608E-02  0.8608372E-01
         -2   -1    0    0    0  501 -0.00000000000E+00  0.00000000000E+00  0.54682346172E+03  0.54682346172E+03  0.00000000000E+00 0. -1.
          2   -1    0    0  501    0  0.00000000000E+00 -0.00000000000E+00 -0.18219082708E+04  0.18219082708E+04  0.00000000000E+00 0.  1.
         23    2    1    2    0    0 -0.44610630138E+03  0.36756972196E+03  0.32355538444E+03  0.66879973359E+03  0.92123092779E+02 0.  0.
         13    1    3    3    0    0 -0.30418333524E+02  0.58377521102E+02  0.22268357085E+02  0.69491652100E+02  0.00000000000E+00 0. -1.
        -13    1    3    3    0    0 -0.41568796785E+03  0.30919220086E+03  0.30128702736E+03  0.59930808149E+03  0.00000000000E+00 0.  1.
         22    1    1    2    0    0  0.44610630138E+03 -0.36756972196E+03 -0.15986401935E+04  0.16999319989E+04  0.00000000000E+00 0.  1.
<mgrwt>
<rscale>  0 0.19962587E+04</rscale>
<asrwt>0</asrwt>
<pdfrwt beam="1">  1        2 0.28029357E+00 0.19962587E+04</pdfrwt>
<pdfrwt beam="2">  1       -2 0.84126688E-01 0.19962587E+04</pdfrwt>
<totfact> 0.96183710E+00</totfact>
</mgrwt>
</event>
<event>
 6    1  0.5307340E-004  0.4347334E+04  0.7818608E-02  0.7937923E-01
          2   -1    0    0  501    0  0.00000000000E+00  0.00000000000E+00  0.33162210391E+04  0.33162210391E+04  0.00000000000E+00 0.  1.
         -2   -1    0    0    0  501 -0.00000000000E+00 -0.00000000000E+00 -0.14247624780E+04  0.14247624780E+04  0.00000000000E+00 0. -1.
         23    2    1    2    0    0 -0.21006804482E+04 -0.38408659864E+03  0.13826812516E+04  0.25457078598E+04  0.91870578503E+02 0.  0.
         11    1    3    3    0    0 -0.10704298504E+04 -0.23089597150E+03  0.67267797326E+03  0.12851570605E+04  0.00000000000E+00 0. -1.
        -11    1    3    3    0    0 -0.10302505978E+04 -0.15319062714E+03  0.71000327829E+03  0.12605507993E+04  0.00000000000E+00 0.  1.
         22    1    1    2    0    0  0.21006804482E+04  0.38408659864E+03  0.50877730960E+03  0.21952756573E+04  0.00000000000E+00 0. -1.
<mgrwt>
<rscale>  0 0.43473336E+04</rscale>
<asrwt>0</asrwt>
<pdfrwt beam="1">  1        2 0.51018785E+00 0.43473336E+04</pdfrwt>
<pdfrwt beam="2">  1       -2 0.21919423E+00 0.43473336E+04</pdfrwt>
<totfact> 0.83231464E-02</totfact>
</mgrwt>
</event>
<event>
 6    1  0.4630212E-004  0.8739104E+03  0.7818608E-02  0.9458795E-01
         -2   -1    0    0    0  501 -0.00000000000E+00  0.00000000000E+00  0.48514835888E+03  0.48514835888E+03  0.00000000000E+00 0. -1.
          2   -1    0    0  501    0  0.00000000000E+00 -0.00000000000E+00 -0.39354937572E+03  0.39354937572E+03  0.00000000000E+00 0.  1.
         23    2    1    2    0    0  0.19557770966E+03 -0.26098188609E+03 -0.23542151135E+03  0.41684863671E+03  0.10944090889E+03 0.  0.
         11    1    3    3    0    0  0.20193116788E+03 -0.20593767334E+03 -0.20228699898E+03  0.35228759816E+03  0.00000000000E+00 0.  1.
        -11    1    3    3    0    0 -0.63534582178E+01 -0.55044212751E+02 -0.33134512370E+02  0.64561038551E+02  0.00000000000E+00 0. -1.
         22    1    1    2    0    0 -0.19557770966E+03  0.26098188609E+03  0.32702049451E+03  0.46184909788E+03  0.00000000000E+00 0. -1.
<mgrwt>
<rscale>  0 0.87391037E+03</rscale>
<asrwt>0</asrwt>
<pdfrwt beam="1">  1        2 0.60546057E-01 0.87391037E+03</pdfrwt>
<pdfrwt beam="2">  1       -2 0.74638210E-01 0.87391037E+03</pdfrwt>
<totfact> 0.13139332E+02</totfact>
</mgrwt>
</event>
<event>
 6    1  0.4630212E-004  0.4482245E+04  0.7818608E-02  0.7913753E-01
          2   -1    0    0  501    0  0.00000000000E+00  0.00000000000E+00  0.44585240624E+04  0.44585240624E+04  0.00000000000E+00 0.  1.
         -2   -1    0    0    0  501 -0.00000000000E+00 -0.00000000000E+00 -0.11265231393E+04  0.11265231393E+04  0.00000000000E+00 0. -1.
         23    2    1    2    0    0  0.15817275590E+04  0.59145379568E+03  0.35008803104E+04  0.38879320286E+04  0.90403805651E+02 0.  0.
         11    1    3    3    0    0  0.42898690245E+03  0.12685535308E+03  0.98391250838E+03  0.10808357263E+04  0.00000000000E+00 0. -1.
        -11    1    3    3    0    0  0.11527406566E+04  0.46459844260E+03  0.25169678020E+04  0.28070963023E+04  0.00000000000E+00 0.  1.
         22    1    1    2    0    0 -0.15817275590E+04 -0.59145379568E+03 -0.16887938725E+03  0.16971151731E+04  0.00000000000E+00 0. -1.
<mgrwt>
<rscale>  0 0.44822452E+04</rscale>
<asrwt>0</asrwt>
<pdfrwt beam="1">  1        2 0.68592677E+00 0.44822452E+04</pdfrwt>
<pdfrwt beam="2">  1       -2 0.17331125E+00 0.44822452E+04</pdfrwt>
<totfact> 0.20522819E-02</totfact>
</mgrwt>
</event>
<event>
 6    1  0.4630212E-004  0.3719867E+04  0.7818608E-02  0.8063573E-01
          2   -1    0    0  501    0  0.00000000000E+00  0.00000000000E+00  0.13493434372E+04  0.13493434372E+04  0.00000000000E+00 0.  1.
         -2   -1    0    0    0  501 -0.00000000000E+00 -0.00000000000E+00 -0.25637305579E+04  0.25637305579E+04  0.00000000000E+00 0. -1.
         23    2    1    2    0    0  0.12138551183E+03 -0.64162023400E+03  0.12231289493E+04  0.13896050418E+04  0.92448789090E+02 0.  0.
         11    1    3    3    0    0  0.11170305977E+03 -0.41116321137E+03  0.73106325907E+03  0.84615970638E+03  0.00000000000E+00 0.  1.
        -11    1    3    3    0    0  0.96824520664E+01 -0.23045702263E+03  0.49206569020E+03  0.54344533546E+03  0.00000000000E+00 0. -1.
         22    1    1    2    0    0 -0.12138551183E+03  0.64162023400E+03 -0.24375160699E+04  0.25234689533E+04  0.00000000000E+00 0. -1.
<mgrwt>
<rscale>  0 0.37198672E+04</rscale>
<asrwt>0</asrwt>
<pdfrwt beam="1">  1        2 0.20759130E+00 0.37198672E+04</pdfrwt>
<pdfrwt beam="2">  1       -2 0.39442009E+00 0.37198672E+04</pdfrwt>
<totfact> 0.10075047E-01</totfact>
</mgrwt>
</event>
<event>
 6    1  0.4630212E-004  0.1994985E+04  0.7818608E-02  0.8608969E-01
         -2   -1    0    0    0  501 -0.00000000000E+00  0.00000000000E+00  0.19642646492E+04  0.19642646492E+04  0.00000000000E+00 0.  1.
          2   -1    0    0  501    0  0.00000000000E+00 -0.00000000000E+00 -0.50654668702E+03  0.50654668702E+03  0.00000000000E+00 0. -1.
         23    2    1    2    0    0  0.75460772066E+03 -0.63706054850E+03  0.88436678072E+03  0.13288785309E+04  0.92382858981E+02 0.  0.
         11    1    3    3    0    0  0.20081556030E+03 -0.15835582399E+03  0.28380122475E+03  0.38202956878E+03  0.00000000000E+00 0. -1.
        -11    1    3    3    0    0  0.55379216036E+03 -0.47870472451E+03  0.60056555597E+03  0.94684896217E+03  0.00000000000E+00 0.  1.
         22    1    1    2    0    0 -0.75460772066E+03  0.63706054850E+03  0.57335118150E+03  0.11419328053E+04  0.00000000000E+00 0. -1.
<mgrwt>
<rscale>  0 0.19949855E+04</rscale>
<asrwt>0</asrwt>
<pdfrwt beam="1">  1        2 0.77930260E-01 0.19949855E+04</pdfrwt>
<pdfrwt beam="2">  1       -2 0.30219456E+00 0.19949855E+04</pdfrwt>
<totfact> 0.17390566E+00</totfact>
</mgrwt>
</event>
<event>
 6    1  0.4630212E-004  0.6507142E+03  0.7818608E-02  0.9805440E-01
         -2   -1    0    0    0  501 -0.00000000000E+00  0.00000000000E+00  0.15402906707E+03  0.15402906707E+03  0.00000000000E+00 0. -1.
          2   -1    0    0  501    0  0.00000000000E+00 -0.00000000000E+00 -0.68725499407E+03  0.68725499407E+03  0.00000000000E+00 0.  1.
         23    2    1    2    0    0  0.20298383962E+03 -0.12126832749E+03  0.47296464397E+01  0.25365778075E+03  0.91713978109E+02 0.  0.
         13    1    3    3    0    0  0.15577077377E+02 -0.41299514867E+02 -0.19901980986E+02  0.48418840497E+02  0.00000000000E+00 0. -1.
        -13    1    3    3    0    0  0.18740676224E+03 -0.79968812625E+02  0.24631627426E+02  0.20523894026E+03  0.00000000000E+00 0.  1.
         22    1    1    2    0    0 -0.20298383962E+03  0.12126832749E+03 -0.53795557344E+03  0.58762628039E+03  0.00000000000E+00 0.  1.
<mgrwt>
<rscale>  0 0.65071421E+03</rscale>
<asrwt>0</asrwt>
<pdfrwt beam="1">  1        2 0.10573154E+00 0.65071421E+03</pdfrwt>
<pdfrwt beam="2">  1       -2 0.23696779E-01 0.65071421E+03</pdfrwt>
<totfact> 0.66583485E+02</totfact>
</mgrwt>
</event>
<event>
 6    1  0.4630212E-004  0.3954570E+04  0.7818608E-02  0.8013774E-01
          2   -1    0    0  501    0  0.00000000000E+00  0.00000000000E+00  0.20668221379E+04  0.20668221379E+04  0.00000000000E+00 0.  1.
         -2   -1    0    0    0  501 -0.00000000000E+00 -0.00000000000E+00 -0.18916265033E+04  0.18916265033E+04  0.00000000000E+00 0. -1.
         23    2    1    2    0    0 -0.14159692401E+04 -0.11260921701E+04 -0.70831904881E+03  0.19450806519E+04  0.92576472209E+02 0.  0.
         11    1    3    3    0    0 -0.81901363523E+03 -0.60626760943E+03 -0.43016034659E+03  0.11060658537E+04  0.00000000000E+00 0. -1.
        -11    1    3    3    0    0 -0.59695560484E+03 -0.51982456069E+03 -0.27815870222E+03  0.83901479824E+03  0.00000000000E+00 0.  1.
         22    1    1    2    0    0  0.14159692401E+04  0.11260921701E+04  0.88351468338E+03  0.20133679893E+04  0.00000000000E+00 0. -1.
<mgrwt>
<rscale>  0 0.39545698E+04</rscale>
<asrwt>0</asrwt>
<pdfrwt beam="1">  1        2 0.31797264E+00 0.39545698E+04</pdfrwt>
<pdfrwt beam="2">  1       -2 0.29101946E+00 0.39545698E+04</pdfrwt>
<totfact> 0.17513075E-01</totfact>
</mgrwt>
</event>
<event>
 6    1  0.4630212E-004  0.2695648E+04  0.7818608E-02  0.8336418E-01
          2   -1    0    0  501    0  0.00000000000E+00  0.00000000000E+00  0.16629882413E+04  0.16629882413E+04  0.00000000000E+00 0.  1.
         -2   -1    0    0    0  501 -0.00000000000E+00 -0.00000000000E+00 -0.10923888328E+04  0.10923888328E+04  0.00000000000E+00 0. -1.
         23    2    1    2    0    0 -0.71294270747E+03  0.56010325425E+03 -0.73174641439E+03  0.11685224487E+04  0.89380862894E+02 0.  0.
         13    1    3    3    0    0 -0.36947705299E+03  0.33898145979E+03 -0.37420970537E+03  0.62566334906E+03  0.00000000000E+00 0.  1.
        -13    1    3    3    0    0 -0.34346565448E+03  0.22112179446E+03 -0.35753670901E+03  0.54285909966E+03  0.00000000000E+00 0. -1.
         22    1    1    2    0    0  0.71294270747E+03 -0.56010325425E+03  0.13023458229E+04  0.15868546254E+04  0.00000000000E+00 0.  1.
<mgrwt>
<rscale>  0 0.26956482E+04</rscale>
<asrwt>0</asrwt>
<pdfrwt beam="1">  1        2 0.25584434E+00 0.26956482E+04</pdfrwt>
<pdfrwt beam="2">  1       -2 0.16805982E+00 0.26956482E+04</pdfrwt>
<totfact> 0.19862908E+00</totfact>
</mgrwt>
</event>
<event>
 6    1  0.4630212E-004  0.3458879E+04  0.7818608E-02  0.8123605E-01
          3   -1    0    0  501    0  0.00000000000E+00  0.00000000000E+00  0.13583705210E+04  0.13583705210E+04  0.00000000000E+00 0.  1.
         -3   -1    0    0    0  501 -0.00000000000E+00 -0.00000000000E+00 -0.22018744160E+04  0.22018744160E+04  0.00000000000E+00 0. -1.
         23    2    1    2    0    0  0.10757554926E+04  0.12956441888E+04 -0.82203727881E+03  0.18760820710E+04  0.89414234587E+02 0.  0.
         11    1    3    3    0    0  0.61393723517E+03  0.77579735467E+03 -0.52419460691E+03  0.11196251382E+04  0.00000000000E+00 0. -1.
        -11    1    3    3    0    0  0.46181825747E+03  0.51984683411E+03 -0.29784267190E+03  0.75645693273E+03  0.00000000000E+00 0.  1.
         22    1    1    2    0    0 -0.10757554926E+04 -0.12956441888E+04 -0.21466616169E+02  0.16841628661E+04  0.00000000000E+00 0. -1.
<mgrwt>
<rscale>  0 0.34588792E+04</rscale>
<asrwt>0</asrwt>
<pdfrwt beam="1">  1        3 0.20898008E+00 0.34588792E+04</pdfrwt>
<pdfrwt beam="2">  1       -3 0.33874991E+00 0.34588792E+04</pdfrwt>
<totfact> 0.63732241E-03</totfact>
</mgrwt>
</event>
<event>
 6    1  0.4676790E-004  0.3089776E+04  0.7818608E-02  0.8218549E-01
         -2   -1    0    0    0  501 -0.00000000000E+00  0.00000000000E+00  0.20226047220E+04  0.20226047220E+04  0.00000000000E+00 0. -1.
          2   -1    0    0  501    0  0.00000000000E+00 -0.00000000000E+00 -0.11800027748E+04  0.11800027748E+04  0.00000000000E+00 0.  1.
         23    2    1    2    0    0 -0.59196796026E+03  0.39865184311E+03 -0.99656583613E+03  0.12298207640E+04  0.99831297281E+02 0.  0.
         11    1    3    3    0    0 -0.42746918345E+03  0.26245208390E+03 -0.62667646771E+03  0.80270442525E+03  0.00000000000E+00 0. -1.
        -11    1    3    3    0    0 -0.16449877681E+03  0.13619975921E+03 -0.36988936842E+03  0.42711633878E+03  0.00000000000E+00 0.  1.
         22    1    1    2    0    0  0.59196796026E+03 -0.39865184311E+03  0.18391677832E+04  0.19727867328E+04  0.00000000000E+00 0. -1.
<mgrwt>
<rscale>  0 0.30897762E+04</rscale>
<asrwt>0</asrwt>
<pdfrwt beam="1">  1        2 0.18153889E+00 0.30897762E+04</pdfrwt>
<pdfrwt beam="2">  1       -2 0.31116996E+00 0.30897762E+04</pdfrwt>
<totfact> 0.44901959E-01</totfact>
</mgrwt>
</event>
<event>
 6    1  0.4630212E-004  0.1939076E+04  0.7818608E-02  0.8635647E-01
         -2   -1    0    0    0  501 -0.00000000000E+00  0.00000000000E+00  0.10736417546E+04  0.10736417546E+04  0.00000000000E+00 0. -1.
          2   -1    0    0  501    0  0.00000000000E+00 -0.00000000000E+00 -0.87552825850E+03  0.87552825850E+03  0.00000000000E+00 0.  1.
         23    2    1    2    0    0 -0.77963131243E+03  0.49364877134E+03  0.39092654987E+03  0.10064659416E+04  0.92930250453E+02 0.  0.
         11    1    3    3    0    0 -0.31954676385E+03  0.25115382723E+03  0.19390425294E+03  0.45031904082E+03  0.00000000000E+00 0.  1.
        -11    1    3    3    0    0 -0.46008454858E+03  0.24249494410E+03  0.19702229693E+03  0.55614690078E+03  0.00000000000E+00 0. -1.
         22    1    1    2    0    0  0.77963131243E+03 -0.49364877134E+03 -0.19281305376E+03  0.94270407152E+03  0.00000000000E+00 0. -1.
<mgrwt>
<rscale>  0 0.19390758E+04</rscale>
<asrwt>0</asrwt>
<pdfrwt beam="1">  1        2 0.13469666E+00 0.19390758E+04</pdfrwt>
<pdfrwt beam="2">  1       -2 0.16517565E+00 0.19390758E+04</pdfrwt>
<totfact> 0.65648973E+00</totfact>
</mgrwt>
</event>
<event>
 6    1  0.4630212E-004  0.2562330E+04  0.7818608E-02  0.8381110E-01
         -2   -1    0    0    0  501 -0.00000000000E+00  0.00000000000E+00  0.63124095484E+03  0.63124095484E+03  0.00000000000E+00 0. -1.
          2   -1    0    0  501    0  0.00000000000E+00 -0.00000000000E+00 -0.26002499088E+04  0.26002499088E+04  0.00000000000E+00 0.  1.
         23    2    1    2    0    0  0.30425840805E+03  0.11788999690E+04 -0.14817665387E+04  0.19200857062E+04  0.93374129665E+02 0.  0.
         13    1    3    3    0    0  0.20256823285E+03  0.80068457473E+03 -0.10719305303E+04  0.13532053573E+04  0.00000000000E+00 0.  1.
        -13    1    3    3    0    0  0.10169017519E+03  0.37821539426E+03 -0.40983600842E+03  0.56688034891E+03  0.00000000000E+00 0. -1.
         22    1    1    2    0    0 -0.30425840805E+03 -0.11788999690E+04 -0.48724241524E+03  0.13114051574E+04  0.00000000000E+00 0. -1.
<mgrwt>
<rscale>  0 0.25623304E+04</rscale>
<asrwt>0</asrwt>
<pdfrwt beam="1">  1        2 0.40003845E+00 0.25623304E+04</pdfrwt>
<pdfrwt beam="2">  1       -2 0.97113992E-01 0.25623304E+04</pdfrwt>
<totfact> 0.23888031E+00</totfact>
</mgrwt>
</event>
<event>
 6    1  0.4630212E-004  0.1001710E+04  0.7818608E-02  0.9306671E-01
          2   -1    0    0  501    0  0.00000000000E+00  0.00000000000E+00  0.74323790707E+03  0.74323790707E+03  0.00000000000E+00 0.  1.
         -2   -1    0    0    0  501 -0.00000000000E+00 -0.00000000000E+00 -0.33751766394E+03  0.33751766394E+03  0.00000000000E+00 0. -1.
         23    2    1    2    0    0 -0.18877916592E+02  0.45712717695E+03  0.41286862038E+03  0.62318292001E+03  0.92600337225E+02 0.  0.
         11    1    3    3    0    0  0.32980371954E+02  0.28632732454E+03  0.26035637607E+03  0.38840247717E+03  0.00000000000E+00 0. -1.
        -11    1    3    3    0    0 -0.51858288546E+02  0.17079985242E+03  0.15251224431E+03  0.23478044284E+03  0.00000000000E+00 0.  1.
         22    1    1    2    0    0  0.18877916592E+02 -0.45712717695E+03 -0.71483772515E+01  0.45757265100E+03  0.00000000000E+00 0. -1.
<mgrwt>
<rscale>  0 0.10017104E+04</rscale>
<asrwt>0</asrwt>
<pdfrwt beam="1">  1        2 0.11434429E+00 0.10017104E+04</pdfrwt>
<pdfrwt beam="2">  1       -2 0.51925795E-01 0.10017104E+04</pdfrwt>
<totfact> 0.13267401E+02</totfact>
</mgrwt>
</event>
<event>
 6    1  0.4630212E-004  0.2252001E+04  0.7818608E-02  0.8497090E-01
          2   -1    0    0  501    0  0.00000000000E+00  0.00000000000E+00  0.15309617711E+04  0.15309617711E+04  0.00000000000E+00 0.  1.
         -2   -1    0    0    0  501 -0.00000000000E+00 -0.00000000000E+00 -0.82815760645E+03  0.82815760645E+03  0.00000000000E+00 0. -1.
         23    2    1    2    0    0 -0.93865970793E+03 -0.45643088865E+03 -0.85113955669E+02  0.10513632200E+04  0.93322191480E+02 0.  0.
         13    1    3    3    0    0 -0.54981573106E+02 -0.52818064937E+02 -0.11088246223E+01  0.76249267911E+02  0.00000000000E+00 0.  1.
        -13    1    3    3    0    0 -0.88367813483E+03 -0.40361282371E+03 -0.84005131046E+02  0.97511395205E+03  0.00000000000E+00 0. -1.
         22    1    1    2    0    0  0.93865970793E+03  0.45643088865E+03  0.78791812035E+03  0.13077561576E+04  0.00000000000E+00 0.  1.
<mgrwt>
<rscale>  0 0.22520015E+04</rscale>
<asrwt>0</asrwt>
<pdfrwt beam="1">  1        2 0.23553258E+00 0.22520015E+04</pdfrwt>
<pdfrwt beam="2">  1       -2 0.12740886E+00 0.22520015E+04</pdfrwt>
<totfact> 0.50724453E+00</totfact>
</mgrwt>
</event>
<event>
 6    1  0.4630212E-004  0.3231953E+04  0.7818608E-02  0.8180429E-01
         -2   -1    0    0    0  501 -0.00000000000E+00  0.00000000000E+00  0.69737155808E+03  0.69737155808E+03  0.00000000000E+00 0. -1.
          2   -1    0    0  501    0  0.00000000000E+00 -0.00000000000E+00 -0.37446033450E+04  0.37446033450E+04  0.00000000000E+00 0.  1.
         23    2    1    2    0    0 -0.20150824541E+02 -0.78126031634E+03 -0.34667921775E+04  0.35549548024E+04  0.91004987259E+02 0.  0.
         13    1    3    3    0    0 -0.17503485604E+01 -0.29618477118E+03 -0.15170171301E+04  0.15456614944E+04  0.00000000000E+00 0. -1.
        -13    1    3    3    0    0 -0.18400475980E+02 -0.48507554516E+03 -0.19497750474E+04  0.20092933080E+04  0.00000000000E+00 0.  1.
         22    1    1    2    0    0  0.20150824541E+02  0.78126031634E+03  0.41956039058E+03  0.88702010065E+03  0.00000000000E+00 0. -1.
<mgrwt>
<rscale>  0 0.32319529E+04</rscale>
<asrwt>0</asrwt>
<pdfrwt beam="1">  1        2 0.57609281E+00 0.32319529E+04</pdfrwt>
<pdfrwt beam="2">  1       -2 0.10728793E+00 0.32319529E+04</pdfrwt>
<totfact> 0.31645252E-01</totfact>
</mgrwt>
</event>
<event>
 6    1  0.4630212E-004  0.1755387E+04  0.7818608E-02  0.8730391E-01
          2   -1    0    0  501    0  0.00000000000E+00  0.00000000000E+00  0.21484329570E+04  0.21484329570E+04  0.00000000000E+00 0.  1.
         -2   -1    0    0    0  501 -0.00000000000E+00 -0.00000000000E+00 -0.35856181957E+03  0.35856181957E+03  0.00000000000E+00 0. -1.
         23    2    1    2    0    0 -0.82583332459E+03  0.17142953213E+03  0.55586967259E+03  0.10122879894E+04  0.65932662761E+02 0.  0.
         11    1    3    3    0    0 -0.24065046134E+03  0.78063185315E+02  0.18124649535E+03  0.31121824741E+03  0.00000000000E+00 0. -1.
        -11    1    3    3    0    0 -0.58518286326E+03  0.93366346816E+02  0.37462317724E+03  0.70106974196E+03  0.00000000000E+00 0.  1.
         22    1    1    2    0    0  0.82583332459E+03 -0.17142953213E+03  0.12340014649E+04  0.14947067872E+04  0.00000000000E+00 0.  1.
<mgrwt>
<rscale>  0 0.17553872E+04</rscale>
<asrwt>0</asrwt>
<pdfrwt beam="1">  1        2 0.33052814E+00 0.17553872E+04</pdfrwt>
<pdfrwt beam="2">  1       -2 0.55163358E-01 0.17553872E+04</pdfrwt>
<totfact> 0.16163841E+01</totfact>
</mgrwt>
</event>
<event>
 6    1  0.4630212E-004  0.1510080E+04  0.7818608E-02  0.8877777E-01
         -1   -1    0    0    0  501 -0.00000000000E+00  0.00000000000E+00  0.32655481061E+03  0.32655481061E+03  0.00000000000E+00 0. -1.
          1   -1    0    0  501    0  0.00000000000E+00 -0.00000000000E+00 -0.17457570385E+04  0.17457570385E+04  0.00000000000E+00 0.  1.
         23    2    1    2    0    0  0.27991168961E+03 -0.11184520426E+02  0.24495111960E+03  0.38474495816E+03  0.97734253764E+02 0.  0.
         13    1    3    3    0    0  0.19695143514E+03  0.37520623681E+02  0.16534606178E+03  0.25987878934E+03  0.00000000000E+00 0.  1.
        -13    1    3    3    0    0  0.82960254473E+02 -0.48705144107E+02  0.79605057825E+02  0.12486616882E+03  0.00000000000E+00 0. -1.
         22    1    1    2    0    0 -0.27991168961E+03  0.11184520426E+02 -0.16641533475E+04  0.16875668910E+04  0.00000000000E+00 0.  1.
<mgrwt>
<rscale>  0 0.15100799E+04</rscale>
<asrwt>0</asrwt>
<pdfrwt beam="1">  1        1 0.26857801E+00 0.15100799E+04</pdfrwt>
<pdfrwt beam="2">  1       -1 0.50239202E-01 0.15100799E+04</pdfrwt>
<totfact> 0.17054296E+01</totfact>
</mgrwt>
</event>
<event>
 6    1  0.4630212E-004  0.1643016E+04  0.7818608E-02  0.8794549E-01
          2   -1    0    0  501    0  0.00000000000E+00  0.00000000000E+00  0.12594451788E+04  0.12594451788E+04  0.00000000000E+00 0.  1.
         -2   -1    0    0    0  501 -0.00000000000E+00 -0.00000000000E+00 -0.53585129091E+03  0.53585129091E+03  0.00000000000E+00 0. -1.
         23    2    1    2    0    0 -0.69322408698E+03 -0.15104559179E+03  0.80996438776E+03  0.10805697605E+04  0.90632733171E+02 0.  0.
         13    1    3    3    0    0 -0.24593010254E+03 -0.97275284497E+02  0.28533571245E+03  0.38905085157E+03  0.00000000000E+00 0. -1.
        -13    1    3    3    0    0 -0.44729398444E+03 -0.53770307292E+02  0.52462867531E+03  0.69151890893E+03  0.00000000000E+00 0.  1.
         22    1    1    2    0    0  0.69322408698E+03  0.15104559179E+03 -0.86370499897E+02  0.71472670918E+03  0.00000000000E+00 0. -1.
<mgrwt>
<rscale>  0 0.16430159E+04</rscale>
<asrwt>0</asrwt>
<pdfrwt beam="1">  1        2 0.19376080E+00 0.16430159E+04</pdfrwt>
<pdfrwt beam="2">  1       -2 0.82438660E-01 0.16430159E+04</pdfrwt>
<totfact> 0.21559917E+01</totfact>
</mgrwt>
</event>
<event>
 6    1  0.4630212E-004  0.5743514E+03  0.7818608E-02  0.9960096E-01
         -2   -1    0    0    0  501 -0.00000000000E+00  0.00000000000E+00  0.10965181958E+03  0.10965181958E+03  0.00000000000E+00 0. -1.
          2   -1    0    0  501    0  0.00000000000E+00 -0.00000000000E+00 -0.75210689053E+03  0.75210689053E+03  0.00000000000E+00 0.  1.
         23    2    1    2    0    0 -0.23278706678E+03  0.94251162365E+02 -0.51491025302E+03  0.58008375444E+03  0.91057637964E+02 0.  0.
         13    1    3    3    0    0 -0.14029338285E+03  0.10150060352E+03 -0.30834843749E+03  0.35364299044E+03  0.00000000000E+00 0. -1.
        -13    1    3    3    0    0 -0.92493683934E+02 -0.72494411572E+01 -0.20656181553E+03  0.22644076400E+03  0.00000000000E+00 0.  1.
         22    1    1    2    0    0  0.23278706678E+03 -0.94251162365E+02 -0.12754481793E+03  0.28167495566E+03  0.00000000000E+00 0. -1.
<mgrwt>
<rscale>  0 0.57435142E+03</rscale>
<asrwt>0</asrwt>
<pdfrwt beam="1">  1        2 0.11570875E+00 0.57435142E+03</pdfrwt>
<pdfrwt beam="2">  1       -2 0.16869511E-01 0.57435142E+03</pdfrwt>
<totfact> 0.10762513E+03</totfact>
</mgrwt>
</event>
<event>
 6    1  0.4630212E-004  0.6526396E+03  0.7818608E-02  0.9801839E-01
          2   -1    0    0  501    0  0.00000000000E+00  0.00000000000E+00  0.83829321829E+03  0.83829321829E+03  0.00000000000E+00 0.  1.
         -2   -1    0    0    0  501 -0.00000000000E+00 -0.00000000000E+00 -0.12702550744E+03  0.12702550744E+03  0.00000000000E+00 0. -1.
         23    2    1    2    0    0 -0.26672244197E+03 -0.44992779568E+02  0.11001891658E+03  0.30602719395E+03  0.91560199671E+02 0.  0.
         13    1    3    3    0    0 -0.71576245496E+02  0.16819744384E+02  0.61005883286E+02  0.95539418650E+02  0.00000000000E+00 0.  1.
        -13    1    3    3    0    0 -0.19514619648E+03 -0.61812523952E+02  0.49013033298E+02  0.21048777530E+03  0.00000000000E+00 0. -1.
         22    1    1    2    0    0  0.26672244197E+03  0.44992779568E+02  0.60124879427E+03  0.65929153178E+03  0.00000000000E+00 0.  1.
<mgrwt>
<rscale>  0 0.65263963E+03</rscale>
<asrwt>0</asrwt>
<pdfrwt beam="1">  1        2 0.12896818E+00 0.65263963E+03</pdfrwt>
<pdfrwt beam="2">  1       -2 0.19542386E-01 0.65263963E+03</pdfrwt>
<totfact> 0.72321942E+02</totfact>
</mgrwt>
</event>
<event>
 6    1  0.4630212E-004  0.3526448E+04  0.7818608E-02  0.8107550E-01
          2   -1    0    0  501    0  0.00000000000E+00  0.00000000000E+00  0.35222155856E+04  0.35222155856E+04  0.00000000000E+00 0. -1.
         -2   -1    0    0    0  501 -0.00000000000E+00 -0.00000000000E+00 -0.88267161439E+03  0.88267161439E+03  0.00000000000E+00 0.  1.
         23    2    1    2    0    0 -0.13735079258E+04  0.10434699556E+04  0.17703699584E+04  0.24733548977E+04  0.89000503050E+02 0.  0.
         13    1    3    3    0    0 -0.58976875049E+03  0.44452591584E+03  0.69538807604E+03  0.10143939300E+04  0.00000000000E+00 0.  1.
        -13    1    3    3    0    0 -0.78373917533E+03  0.59894403975E+03  0.10749818824E+04  0.14589609677E+04  0.00000000000E+00 0. -1.
         22    1    1    2    0    0  0.13735079258E+04 -0.10434699556E+04  0.86917401276E+03  0.19315323023E+04  0.00000000000E+00 0.  1.
<mgrwt>
<rscale>  0 0.35264485E+04</rscale>
<asrwt>0</asrwt>
<pdfrwt beam="1">  1        2 0.54187931E+00 0.35264485E+04</pdfrwt>
<pdfrwt beam="2">  1       -2 0.13579563E+00 0.35264485E+04</pdfrwt>
<totfact> 0.24949184E-01</totfact>
</mgrwt>
</event>
<event>
 6    1  0.4630212E-004  0.2835830E+04  0.7818608E-02  0.8292230E-01
          2   -1    0    0  501    0  0.00000000000E+00  0.00000000000E+00  0.29699679350E+04  0.29699679350E+04  0.00000000000E+00 0.  1.
         -2   -1    0    0    0  501 -0.00000000000E+00 -0.00000000000E+00 -0.67693735688E+03  0.67693735688E+03  0.00000000000E+00 0. -1.
         23    2    1    2    0    0 -0.38927997135E+03 -0.36362197050E+02  0.28985091955E+04  0.29261657678E+04  0.90716254732E+02 0.  0.
         11    1    3    3    0    0 -0.31382288848E+03  0.66096760475E+01  0.22000909068E+04  0.22223700168E+04  0.00000000000E+00 0. -1.
        -11    1    3    3    0    0 -0.75457082869E+02 -0.42971873097E+02  0.69841828865E+03  0.70379575102E+03  0.00000000000E+00 0.  1.
         22    1    1    2    0    0  0.38927997135E+03  0.36362197050E+02 -0.60547861738E+03  0.72073952408E+03  0.00000000000E+00 0. -1.
<mgrwt>
<rscale>  0 0.28358295E+04</rscale>
<asrwt>0</asrwt>
<pdfrwt beam="1">  1        2 0.45691814E+00 0.28358295E+04</pdfrwt>
<pdfrwt beam="2">  1       -2 0.10414421E+00 0.28358295E+04</pdfrwt>
<totfact> 0.11820116E+00</totfact>
</mgrwt>
</event>
<event>
 6    1  0.4630212E-004  0.7459496E+03  0.7818608E-02  0.9641726E-01
         -2   -1    0    0    0  501 -0.00000000000E+00  0.00000000000E+00  0.11889961091E+03  0.11889961091E+03  0.00000000000E+00 0. -1.
          2   -1    0    0  501    0  0.00000000000E+00 -0.00000000000E+00 -0.11699803632E+04  0.11699803632E+04  0.00000000000E+00 0.  1.
         23    2    1    2    0    0  0.77174325996E+02  0.33786143127E+03 -0.74286185710E+03  0.82508571943E+03  0.93896125264E+02 0.  0.
         11    1    3    3    0    0  0.45966659196E+02  0.16600864417E+03 -0.26266033550E+03  0.31410548474E+03  0.00000000000E+00 0. -1.
        -11    1    3    3    0    0  0.31207666801E+02  0.17185278711E+03 -0.48020152159E+03  0.51098023469E+03  0.00000000000E+00 0.  1.
         22    1    1    2    0    0 -0.77174325996E+02 -0.33786143127E+03 -0.30821889521E+03  0.46379425471E+03  0.00000000000E+00 0. -1.
<mgrwt>
<rscale>  0 0.74594962E+03</rscale>
<asrwt>0</asrwt>
<pdfrwt beam="1">  1        2 0.17999698E+00 0.74594962E+03</pdfrwt>
<pdfrwt beam="2">  1       -2 0.18292247E-01 0.74594962E+03</pdfrwt>
<totfact> 0.49611299E+02</totfact>
</mgrwt>
</event>
<event>
 6    1  0.4630212E-004  0.1847706E+04  0.7818608E-02  0.8681334E-01
         -2   -1    0    0    0  501 -0.00000000000E+00  0.00000000000E+00  0.28425503324E+03  0.28425503324E+03  0.00000000000E+00 0. -1.
          2   -1    0    0  501    0  0.00000000000E+00 -0.00000000000E+00 -0.30025998683E+04  0.30025998683E+04  0.00000000000E+00 0.  1.
         23    2    1    2    0    0 -0.67737195096E+03 -0.19745640080E+02 -0.25088706433E+03  0.72803280914E+03  0.88683718274E+02 0.  0.
         13    1    3    3    0    0 -0.14996464598E+03 -0.29713248816E+02 -0.28227882694E+02  0.15546409734E+03  0.00000000000E+00 0. -1.
        -13    1    3    3    0    0 -0.52740730498E+03  0.99676087359E+01 -0.22265918164E+03  0.57256871181E+03  0.00000000000E+00 0.  1.
         22    1    1    2    0    0  0.67737195096E+03  0.19745640080E+02 -0.24674577708E+04  0.25588220924E+04  0.00000000000E+00 0.  1.
<mgrwt>
<rscale>  0 0.18477057E+04</rscale>
<asrwt>0</asrwt>
<pdfrwt beam="1">  1        2 0.46193844E+00 0.18477057E+04</pdfrwt>
<pdfrwt beam="2">  1       -2 0.43731544E-01 0.18477057E+04</pdfrwt>
<totfact> 0.81171202E+00</totfact>
</mgrwt>
</event>
<event>
 6    1  0.4630212E-004  0.5864041E+03  0.7818608E-02  0.9934022E-01
         -2   -1    0    0    0  501 -0.00000000000E+00  0.00000000000E+00  0.90742986748E+02  0.90742986748E+02  0.00000000000E+00 0. -1.
          2   -1    0    0  501    0  0.00000000000E+00 -0.00000000000E+00 -0.94737283559E+03  0.94737283559E+03  0.00000000000E+00 0.  1.
         23    2    1    2    0    0 -0.75841144968E+02  0.24098421039E+03 -0.67653216703E+03  0.72785714974E+03  0.90856967117E+02 0.  0.
         11    1    3    3    0    0 -0.69048836473E+02  0.12129332908E+03 -0.45554637750E+03  0.47644760001E+03  0.00000000000E+00 0.  1.
        -11    1    3    3    0    0 -0.67923084946E+01  0.11969088131E+03 -0.22098578953E+03  0.25140954973E+03  0.00000000000E+00 0. -1.
         22    1    1    2    0    0  0.75841144968E+02 -0.24098421039E+03 -0.18009768182E+03  0.31025867260E+03  0.00000000000E+00 0. -1.
<mgrwt>
<rscale>  0 0.58640410E+03</rscale>
<asrwt>0</asrwt>
<pdfrwt beam="1">  1        2 0.14574966E+00 0.58640410E+03</pdfrwt>
<pdfrwt beam="2">  1       -2 0.13960460E-01 0.58640410E+03</pdfrwt>
<totfact> 0.10856877E+03</totfact>
</mgrwt>
</event>
<event>
 6    1  0.4630212E-004  0.4188187E+04  0.7818608E-02  0.7967623E-01
          2   -1    0    0  501    0  0.00000000000E+00  0.00000000000E+00  0.28429766307E+04  0.28429766307E+04  0.00000000000E+00 0.  1.
         -2   -1    0    0    0  501 -0.00000000000E+00 -0.00000000000E+00 -0.15424775458E+04  0.15424775458E+04  0.00000000000E+00 0. -1.
         23    2    1    2    0    0 -0.42038083729E+03  0.96988214177E+03 -0.12412766004E+04  0.16326347034E+04  0.85656632682E+02 0.  0.
         11    1    3    3    0    0 -0.39632061049E+03  0.92374016595E+03 -0.12049960279E+04  0.15691976765E+04  0.00000000000E+00 0. -1.
        -11    1    3    3    0    0 -0.24060226795E+02  0.46141975821E+02 -0.36280572460E+02  0.63437026917E+02  0.00000000000E+00 0.  1.
         22    1    1    2    0    0  0.42038083729E+03 -0.96988214177E+03  0.25417756853E+04  0.27528194731E+04  0.00000000000E+00 0. -1.
<mgrwt>
<rscale>  0 0.41881870E+04</rscale>
<asrwt>0</asrwt>
<pdfrwt beam="1">  1        2 0.43738102E+00 0.41881870E+04</pdfrwt>
<pdfrwt beam="2">  1       -2 0.23730424E+00 0.41881870E+04</pdfrwt>
<totfact> 0.13020687E-01</totfact>
</mgrwt>
</event>
<event>
 6    1  0.4630212E-004  0.1877015E+04  0.7818608E-02  0.8666383E-01
          2   -1    0    0  501    0  0.00000000000E+00  0.00000000000E+00  0.17292921897E+04  0.17292921897E+04  0.00000000000E+00 0.  1.
         -2   -1    0    0    0  501 -0.00000000000E+00 -0.00000000000E+00 -0.50933942024E+03  0.50933942024E+03  0.00000000000E+00 0. -1.
         23    2    1    2    0    0  0.47664654710E+03  0.46406738296E+03 -0.17448860746E+03  0.69363412760E+03  0.90175174286E+02 0.  0.
         13    1    3    3    0    0  0.10013201425E+03  0.14436063195E+03 -0.24263606261E+02  0.17735595542E+03  0.00000000000E+00 0. -1.
        -13    1    3    3    0    0  0.37651453285E+03  0.31970675100E+03 -0.15022500120E+03  0.51627817218E+03  0.00000000000E+00 0.  1.
         22    1    1    2    0    0 -0.47664654710E+03 -0.46406738296E+03  0.13944413769E+04  0.15449974823E+04  0.00000000000E+00 0.  1.
<mgrwt>
<rscale>  0 0.18770154E+04</rscale>
<asrwt>0</asrwt>
<pdfrwt beam="1">  1        2 0.26604495E+00 0.18770154E+04</pdfrwt>
<pdfrwt beam="2">  1       -2 0.78359912E-01 0.18770154E+04</pdfrwt>
<totfact> 0.12833373E+01</totfact>
</mgrwt>
</event>
<event>
 6    1  0.4630212E-004  0.2869148E+04  0.7818608E-02  0.8282117E-01
         -2   -1    0    0    0  501 -0.00000000000E+00  0.00000000000E+00  0.14614988434E+04  0.14614988434E+04  0.00000000000E+00 0. -1.
          2   -1    0    0  501    0  0.00000000000E+00 -0.00000000000E+00 -0.14081447580E+04  0.14081447580E+04  0.00000000000E+00 0.  1.
         23    2    1    2    0    0  0.80227493280E+03  0.11758342159E+04 -0.13953798519E+03  0.14331762255E+04  0.91060820002E+02 0.  0.
         13    1    3    3    0    0  0.41709199477E+03  0.69090793732E+03 -0.74045036869E+02  0.81043332695E+03  0.00000000000E+00 0. -1.
        -13    1    3    3    0    0  0.38518293803E+03  0.48492627858E+03 -0.65492948325E+02  0.62274289855E+03  0.00000000000E+00 0.  1.
         22    1    1    2    0    0 -0.80227493280E+03 -0.11758342159E+04  0.19289207062E+03  0.14364673759E+04  0.00000000000E+00 0. -1.
<mgrwt>
<rscale>  0 0.28691476E+04</rscale>
<asrwt>0</asrwt>
<pdfrwt beam="1">  1        2 0.21663765E+00 0.28691476E+04</pdfrwt>
<pdfrwt beam="2">  1       -2 0.22484598E+00 0.28691476E+04</pdfrwt>
<totfact> 0.11410047E+00</totfact>
</mgrwt>
</event>
<event>
 6    1  0.4630212E-004  0.1377598E+04  0.7818608E-02  0.8970196E-01
          3   -1    0    0  501    0  0.00000000000E+00  0.00000000000E+00  0.54679083179E+03  0.54679083179E+03  0.00000000000E+00 0.  1.
         -3   -1    0    0    0  501 -0.00000000000E+00 -0.00000000000E+00 -0.86768844932E+03  0.86768844932E+03  0.00000000000E+00 0. -1.
         23    2    1    2    0    0  0.43254358613E+03  0.24198933662E+03 -0.64744522835E+03  0.82094231084E+03  0.95436686193E+02 0.  0.
         13    1    3    3    0    0  0.21525062784E+03  0.16836839004E+03 -0.31505372652E+03  0.41706066482E+03  0.00000000000E+00 0. -1.
        -13    1    3    3    0    0  0.21729295829E+03  0.73620946582E+02 -0.33239150183E+03  0.40388164602E+03  0.00000000000E+00 0.  1.
         22    1    1    2    0    0 -0.43254358613E+03 -0.24198933662E+03  0.32654761082E+03  0.59353697026E+03  0.00000000000E+00 0.  1.
<mgrwt>
<rscale>  0 0.13775980E+04</rscale>
<asrwt>0</asrwt>
<pdfrwt beam="1">  1        3 0.84121667E-01 0.13775980E+04</pdfrwt>
<pdfrwt beam="2">  1       -3 0.13349053E+00 0.13775980E+04</pdfrwt>
<totfact> 0.14425525E+00</totfact>
</mgrwt>
</event>
<event>
 6    1  0.4630212E-004  0.4382600E+04  0.7818608E-02  0.7931519E-01
         -2   -1    0    0    0  501 -0.00000000000E+00  0.00000000000E+00  0.21049840550E+04  0.21049840550E+04  0.00000000000E+00 0. -1.
          2   -1    0    0  501    0  0.00000000000E+00 -0.00000000000E+00 -0.22811556940E+04  0.22811556940E+04  0.00000000000E+00 0.  1.
         23    2    1    2    0    0  0.13561474211E+04 -0.12242793557E+04 -0.12971499576E+04  0.22426407032E+04  0.94040112319E+02 0.  0.
         11    1    3    3    0    0  0.35629113859E+03 -0.36446473336E+03 -0.32795601462E+03  0.60608008120E+03  0.00000000000E+00 0.  1.
        -11    1    3    3    0    0  0.99985628252E+03 -0.85981462229E+03 -0.96919394295E+03  0.16365606220E+04  0.00000000000E+00 0. -1.
         22    1    1    2    0    0 -0.13561474211E+04  0.12242793557E+04  0.11209783185E+04  0.21434990457E+04  0.00000000000E+00 0. -1.
<mgrwt>
<rscale>  0 0.43826003E+04</rscale>
<asrwt>0</asrwt>
<pdfrwt beam="1">  1        2 0.35094703E+00 0.43826003E+04</pdfrwt>
<pdfrwt beam="2">  1       -2 0.32384370E+00 0.43826003E+04</pdfrwt>
<totfact> 0.80567742E-02</totfact>
</mgrwt>
</event>
<event>
 6    1  0.4630212E-004  0.3833441E+04  0.7818608E-02  0.8039016E-01
         -2   -1    0    0    0  501 -0.00000000000E+00  0.00000000000E+00  0.15887890230E+04  0.15887890230E+04  0.00000000000E+00 0. -1.
          2   -1    0    0  501    0  0.00000000000E+00 -0.00000000000E+00 -0.23123376640E+04  0.23123376640E+04  0.00000000000E+00 0.  1.
         23    2    1    2    0    0 -0.81445783345E+03 -0.16782596438E+04  0.81279298760E+02  0.18694660344E+04  0.91651159070E+02 0.  0.
         11    1    3    3    0    0 -0.70368266603E+03 -0.13702610236E+04  0.67048303764E+02  0.15418430667E+04  0.00000000000E+00 0. -1.
        -11    1    3    3    0    0 -0.11077516741E+03 -0.30799862021E+03  0.14230994995E+02  0.32762296773E+03  0.00000000000E+00 0.  1.
         22    1    1    2    0    0  0.81445783345E+03  0.16782596438E+04 -0.80482793978E+03  0.20316606526E+04  0.00000000000E+00 0.  1.
<mgrwt>
<rscale>  0 0.38334406E+04</rscale>
<asrwt>0</asrwt>
<pdfrwt beam="1">  1        2 0.35574426E+00 0.38334406E+04</pdfrwt>
<pdfrwt beam="2">  1       -2 0.24442908E+00 0.38334406E+04</pdfrwt>
<totfact> 0.24810239E-01</totfact>
</mgrwt>
</event>
<event>
 6    1  0.4630212E-004  0.5795877E+04  0.7818608E-02  0.7716239E-01
          2   -1    0    0  501    0  0.00000000000E+00  0.00000000000E+00  0.25135018340E+04  0.25135018340E+04  0.00000000000E+00 0.  1.
         -2   -1    0    0    0  501 -0.00000000000E+00 -0.00000000000E+00 -0.33411738530E+04  0.33411738530E+04  0.00000000000E+00 0. -1.
         23    2    1    2    0    0 -0.88458084305E+03 -0.24632871684E+04 -0.16689946252E+04  0.31054775004E+04  0.90446141870E+02 0.  0.
         13    1    3    3    0    0 -0.34872947751E+03 -0.98843106782E+03 -0.61647327340E+03  0.12159965136E+04  0.00000000000E+00 0. -1.
        -13    1    3    3    0    0 -0.53585136555E+03 -0.14748561006E+04 -0.10525213518E+04  0.18894809868E+04  0.00000000000E+00 0.  1.
         22    1    1    2    0    0  0.88458084305E+03  0.24632871684E+04  0.84132260623E+03  0.27491981867E+04  0.00000000000E+00 0.  1.
<mgrwt>
<rscale>  0 0.57958767E+04</rscale>
<asrwt>0</asrwt>
<pdfrwt beam="1">  1        2 0.38669259E+00 0.57958767E+04</pdfrwt>
<pdfrwt beam="2">  1       -2 0.51402674E+00 0.57958767E+04</pdfrwt>
<totfact> 0.32078274E-03</totfact>
</mgrwt>
</event>
<event>
 6    1  0.5871037E-004  0.3847406E+04  0.7818608E-02  0.8036058E-01
         -2   -1    0    0    0  501 -0.00000000000E+00  0.00000000000E+00  0.12871263695E+04  0.12871263695E+04  0.00000000000E+00 0. -1.
          2   -1    0    0  501    0  0.00000000000E+00 -0.00000000000E+00 -0.28751121155E+04  0.28751121155E+04  0.00000000000E+00 0.  1.
         23    2    1    2    0    0  0.13259685280E+04 -0.13713460209E+04 -0.53670749661E+03  0.19841731958E+04  0.10052804588E+03 0.  0.
         11    1    3    3    0    0  0.88899564339E+03 -0.98510780249E+03 -0.36495494229E+03  0.13762059244E+04  0.00000000000E+00 0.  1.
        -11    1    3    3    0    0  0.43697288457E+03 -0.38623821836E+03 -0.17175255432E+03  0.60796727139E+03  0.00000000000E+00 0. -1.
         22    1    1    2    0    0 -0.13259685280E+04  0.13713460209E+04 -0.10512782494E+04  0.21780652891E+04  0.00000000000E+00 0.  1.
<mgrwt>
<rscale>  0 0.38474057E+04</rscale>
<asrwt>0</asrwt>
<pdfrwt beam="1">  1        2 0.44232494E+00 0.38474057E+04</pdfrwt>
<pdfrwt beam="2">  1       -2 0.19801944E+00 0.38474057E+04</pdfrwt>
<totfact> 0.22771481E-01</totfact>
</mgrwt>
</event>
<event>
 6    1  0.4630212E-004  0.1670603E+04  0.7818608E-02  0.8778311E-01
          2   -1    0    0  501    0  0.00000000000E+00  0.00000000000E+00  0.15886912778E+04  0.15886912778E+04  0.00000000000E+00 0.  1.
         -2   -1    0    0    0  501 -0.00000000000E+00 -0.00000000000E+00 -0.43918427682E+03  0.43918427682E+03  0.00000000000E+00 0. -1.
         23    2    1    2    0    0 -0.21685929447E+03 -0.17407204303E+03 -0.37655254917E+03  0.47668672654E+03  0.90052113874E+02 0.  0.
         11    1    3    3    0    0 -0.64438316529E+02 -0.99728409244E+02 -0.11737730559E+03  0.16695952837E+03  0.00000000000E+00 0. -1.
        -11    1    3    3    0    0 -0.15242097794E+03 -0.74343633790E+02 -0.25917524358E+03  0.30972719817E+03  0.00000000000E+00 0.  1.
         22    1    1    2    0    0  0.21685929447E+03  0.17407204303E+03  0.15260595501E+04  0.15511888280E+04  0.00000000000E+00 0.  1.
<mgrwt>
<rscale>  0 0.16706026E+04</rscale>
<asrwt>0</asrwt>
<pdfrwt beam="1">  1        2 0.24441404E+00 0.16706026E+04</pdfrwt>
<pdfrwt beam="2">  1       -2 0.67566812E-01 0.16706026E+04</pdfrwt>
<totfact> 0.21666971E+01</totfact>
</mgrwt>
</event>
<event>
 6    1  0.4630212E-004  0.3188247E+04  0.7818608E-02  0.8191928E-01
          2   -1    0    0  501    0  0.00000000000E+00  0.00000000000E+00  0.22102537742E+04  0.22102537742E+04  0.00000000000E+00 0.  1.
         -2   -1    0    0    0  501 -0.00000000000E+00 -0.00000000000E+00 -0.11497456656E+04  0.11497456656E+04  0.00000000000E+00 0. -1.
         23    2    1    2    0    0 -0.41670791608E+03 -0.65676135665E+02 -0.10889290015E+04  0.11695568516E+04  0.64327418076E+02 0.  0.
         11    1    3    3    0    0 -0.34885668810E+03 -0.70915264312E+02 -0.95786062578E+03  0.10218742300E+04  0.00000000000E+00 0. -1.
        -11    1    3    3    0    0 -0.67851227975E+02  0.52391286468E+01 -0.13106837570E+03  0.14768262158E+03  0.00000000000E+00 0.  1.
         22    1    1    2    0    0  0.41670791608E+03  0.65676135665E+02  0.21494371101E+04  0.21904425882E+04  0.00000000000E+00 0.  1.
<mgrwt>
<rscale>  0 0.31882470E+04</rscale>
<asrwt>0</asrwt>
<pdfrwt beam="1">  1        2 0.34003904E+00 0.31882470E+04</pdfrwt>
<pdfrwt beam="2">  1       -2 0.17688395E+00 0.31882470E+04</pdfrwt>
<totfact> 0.81861044E-01</totfact>
</mgrwt>
</event>
<event>
 6    1  0.4630212E-004  0.4795944E+03  0.7818608E-02  0.1019247E+00
         -2   -1    0    0    0  501 -0.00000000000E+00  0.00000000000E+00  0.11920020002E+03  0.11920020002E+03  0.00000000000E+00 0. -1.
          2   -1    0    0  501    0  0.00000000000E+00 -0.00000000000E+00 -0.48240444932E+03  0.48240444932E+03  0.00000000000E+00 0.  1.
         23    2    1    2    0    0  0.71366901072E+02 -0.93599477949E+02  0.64216156314E+02  0.15827373458E+03  0.84099723461E+02 0.  0.
         13    1    3    3    0    0  0.61625982243E+02 -0.13716958643E+02  0.37748994230E+02  0.73558841801E+02  0.00000000000E+00 0. -1.
        -13    1    3    3    0    0  0.97409188295E+01 -0.79882519305E+02  0.26467162084E+02  0.84714892782E+02  0.00000000000E+00 0.  1.
         22    1    1    2    0    0 -0.71366901072E+02  0.93599477949E+02 -0.42742040562E+03  0.44333091476E+03  0.00000000000E+00 0.  1.
<mgrwt>
<rscale>  0 0.47959444E+03</rscale>
<asrwt>0</asrwt>
<pdfrwt beam="1">  1        2 0.74216069E-01 0.47959444E+03</pdfrwt>
<pdfrwt beam="2">  1       -2 0.18338492E-01 0.47959444E+03</pdfrwt>
<totfact> 0.15901061E+03</totfact>
</mgrwt>
</event>
<event>
 6    1  0.4630212E-004  0.2167036E+04  0.7818608E-02  0.8532275E-01
         -2   -1    0    0    0  501 -0.00000000000E+00  0.00000000000E+00  0.34061442031E+03  0.34061442031E+03  0.00000000000E+00 0. -1.
          2   -1    0    0  501    0  0.00000000000E+00 -0.00000000000E+00 -0.34467450761E+04  0.34467450761E+04  0.00000000000E+00 0.  1.
         23    2    1    2    0    0  0.23969815469E+03 -0.90220578244E+03 -0.25105862197E+04  0.26800638473E+04  0.90931732177E+02 0.  0.
         11    1    3    3    0    0  0.10746414079E+03 -0.57150215700E+03 -0.15864706162E+04  0.16896899932E+04  0.00000000000E+00 0. -1.
        -11    1    3    3    0    0  0.13223401389E+03 -0.33070362544E+03 -0.92411560344E+03  0.99037385408E+03  0.00000000000E+00 0.  1.
         22    1    1    2    0    0 -0.23969815469E+03  0.90220578244E+03 -0.59554443616E+03  0.11072956492E+04  0.00000000000E+00 0. -1.
<mgrwt>
<rscale>  0 0.21670358E+04</rscale>
<asrwt>0</asrwt>
<pdfrwt beam="1">  1        2 0.53026848E+00 0.21670358E+04</pdfrwt>
<pdfrwt beam="2">  1       -2 0.52402218E-01 0.21670358E+04</pdfrwt>
<totfact> 0.27987450E+00</totfact>
</mgrwt>
</event>
<event>
 6    1  0.4630212E-004  0.2404936E+04  0.7818608E-02  0.8437658E-01
          2   -1    0    0  501    0  0.00000000000E+00  0.00000000000E+00  0.26851237173E+04  0.26851237173E+04  0.00000000000E+00 0.  1.
         -2   -1    0    0    0  501 -0.00000000000E+00 -0.00000000000E+00 -0.53849649556E+03  0.53849649556E+03  0.00000000000E+00 0. -1.
         23    2    1    2    0    0  0.10423258401E+04  0.89141582958E+02  0.18649382964E+04  0.21402283035E+04  0.90514987218E+02 0.  0.
         13    1    3    3    0    0  0.94114643599E+03  0.90035303987E+02  0.16285062162E+04  0.18830548229E+04  0.00000000000E+00 0. -1.
        -13    1    3    3    0    0  0.10117940408E+03 -0.89372102853E+00  0.23643208024E+03  0.25717348058E+03  0.00000000000E+00 0.  1.
         22    1    1    2    0    0 -0.10423258401E+04 -0.89141582958E+02  0.28168892535E+03  0.10833919094E+04  0.00000000000E+00 0. -1.
<mgrwt>
<rscale>  0 0.24049364E+04</rscale>
<asrwt>0</asrwt>
<pdfrwt beam="1">  1        2 0.41309595E+00 0.24049364E+04</pdfrwt>
<pdfrwt beam="2">  1       -2 0.82845616E-01 0.24049364E+04</pdfrwt>
<totfact> 0.31117404E+00</totfact>
</mgrwt>
</event>
<event>
 6    1  0.4630212E-004  0.1396503E+04  0.7818608E-02  0.8956354E-01
         -2   -1    0    0    0  501 -0.00000000000E+00  0.00000000000E+00  0.33888467401E+03  0.33888467401E+03  0.00000000000E+00 0. -1.
          2   -1    0    0  501    0  0.00000000000E+00 -0.00000000000E+00 -0.14387051654E+04  0.14387051654E+04  0.00000000000E+00 0.  1.
         23    2    1    2    0    0  0.27098894757E+03 -0.48446389873E+03 -0.10852497850E+04  0.12222947968E+04  0.89984417828E+02 0.  0.
         13    1    3    3    0    0  0.24127468471E+03 -0.35413560038E+03 -0.83952500760E+03  0.94256444625E+03  0.00000000000E+00 0. -1.
        -13    1    3    3    0    0  0.29714262859E+02 -0.13032829835E+03 -0.24572477743E+03  0.27973035054E+03  0.00000000000E+00 0.  1.
         22    1    1    2    0    0 -0.27098894757E+03  0.48446389873E+03 -0.14570706363E+02  0.55529504262E+03  0.00000000000E+00 0. -1.
<mgrwt>
<rscale>  0 0.13965030E+04</rscale>
<asrwt>0</asrwt>
<pdfrwt beam="1">  1        2 0.22133926E+00 0.13965030E+04</pdfrwt>
<pdfrwt beam="2">  1       -2 0.52136104E-01 0.13965030E+04</pdfrwt>
<totfact> 0.46488774E+01</totfact>
</mgrwt>
</event>
<event>
 6    1  0.4630212E-004  0.2601083E+04  0.7818608E-02  0.8367833E-01
          2   -1    0    0  501    0  0.00000000000E+00  0.00000000000E+00  0.10229774239E+04  0.10229774239E+04  0.00000000000E+00 0. -1.
         -2   -1    0    0    0  501 -0.00000000000E+00 -0.00000000000E+00 -0.16534167945E+04  0.16534167945E+04  0.00000000000E+00 0.  1.
         23    2    1    2    0    0 -0.51061088615E+03  0.44587226964E+03 -0.14556627242E+04  0.16084433108E+04  0.92792023082E+02 0.  0.
         11    1    3    3    0    0 -0.21125721195E+03  0.14112982065E+03 -0.61683882563E+03  0.66711121463E+03  0.00000000000E+00 0. -1.
        -11    1    3    3    0    0 -0.29935367420E+03  0.30474244899E+03 -0.83882389855E+03  0.94133209615E+03  0.00000000000E+00 0.  1.
         22    1    1    2    0    0  0.51061088615E+03 -0.44587226964E+03  0.82522335360E+03  0.10679509077E+04  0.00000000000E+00 0. -1.
<mgrwt>
<rscale>  0 0.26010829E+04</rscale>
<asrwt>0</asrwt>
<pdfrwt beam="1">  1        2 0.15738114E+00 0.26010829E+04</pdfrwt>
<pdfrwt beam="2">  1       -2 0.25437181E+00 0.26010829E+04</pdfrwt>
<totfact> 0.13008292E+00</totfact>
</mgrwt>
</event>
<event>
 6    1  0.4630212E-004  0.4244672E+04  0.7818608E-02  0.7956929E-01
         -2   -1    0    0    0  501 -0.00000000000E+00  0.00000000000E+00  0.15578772764E+04  0.15578772764E+04  0.00000000000E+00 0. -1.
          2   -1    0    0  501    0  0.00000000000E+00 -0.00000000000E+00 -0.28913131398E+04  0.28913131398E+04  0.00000000000E+00 0.  1.
         23    2    1    2    0    0  0.14660158138E+04 -0.13827690068E+02 -0.22741393657E+04  0.27072614135E+04  0.90337893868E+02 0.  0.
         13    1    3    3    0    0  0.55466513185E+03  0.38564720009E+02 -0.86300947572E+03  0.10266089817E+04  0.00000000000E+00 0. -1.
        -13    1    3    3    0    0  0.91135068192E+03 -0.52392410077E+02 -0.14111298900E+04  0.16806524318E+04  0.00000000000E+00 0.  1.
         22    1    1    2    0    0 -0.14660158138E+04  0.13827690068E+02  0.94070350229E+03  0.17419290027E+04  0.00000000000E+00 0. -1.
<mgrwt>
<rscale>  0 0.42446724E+04</rscale>
<asrwt>0</asrwt>
<pdfrwt beam="1">  1        2 0.44481740E+00 0.42446724E+04</pdfrwt>
<pdfrwt beam="2">  1       -2 0.23967343E+00 0.42446724E+04</pdfrwt>
<totfact> 0.11703657E-01</totfact>
</mgrwt>
</event>
<event>
 6    1  0.4630212E-004  0.1132252E+04  0.7818608E-02  0.9174315E-01
          2   -1    0    0  501    0  0.00000000000E+00  0.00000000000E+00  0.27337721109E+03  0.27337721109E+03  0.00000000000E+00 0.  1.
         -2   -1    0    0    0  501 -0.00000000000E+00 -0.00000000000E+00 -0.11723679694E+04  0.11723679694E+04  0.00000000000E+00 0. -1.
         23    2    1    2    0    0 -0.50251078207E+02 -0.65238172895E+00 -0.11676914595E+04  0.11723852287E+04  0.91968383262E+02 0.  0.
         11    1    3    3    0    0 -0.60013635163E+01  0.40020845336E+02 -0.31689772377E+03  0.31947120645E+03  0.00000000000E+00 0. -1.
        -11    1    3    3    0    0 -0.44249714690E+02 -0.40673227065E+02 -0.85079373572E+03  0.85291402227E+03  0.00000000000E+00 0.  1.
         22    1    1    2    0    0  0.50251078207E+02  0.65238172895E+00  0.26870070113E+03  0.27335995181E+03  0.00000000000E+00 0.  1.
<mgrwt>
<rscale>  0 0.11322521E+04</rscale>
<asrwt>0</asrwt>
<pdfrwt beam="1">  1        2 0.42058032E-01 0.11322521E+04</pdfrwt>
<pdfrwt beam="2">  1       -2 0.18036430E+00 0.11322521E+04</pdfrwt>
<totfact> 0.21737117E+01</totfact>
</mgrwt>
</event>
<event>
 6    1  0.4630212E-004  0.2538266E+04  0.7818608E-02  0.8389478E-01
          2   -1    0    0  501    0  0.00000000000E+00  0.00000000000E+00  0.11064361655E+04  0.11064361655E+04  0.00000000000E+00 0.  1.
         -2   -1    0    0    0  501 -0.00000000000E+00 -0.00000000000E+00 -0.14557539735E+04  0.14557539735E+04  0.00000000000E+00 0. -1.
         23    2    1    2    0    0  0.46725317088E+03  0.17547648371E+03 -0.13515383150E+04  0.14425636536E+04  0.72225728050E+02 0.  0.
         13    1    3    3    0    0  0.32736692432E+03  0.88184439387E+02 -0.93559728149E+03  0.99513208753E+03  0.00000000000E+00 0.  1.
        -13    1    3    3    0    0  0.13988624656E+03  0.87292044328E+02 -0.41594103348E+03  0.44743156606E+03  0.00000000000E+00 0. -1.
         22    1    1    2    0    0 -0.46725317088E+03 -0.17547648371E+03  0.10022205071E+04  0.11196264854E+04  0.00000000000E+00 0.  1.
<mgrwt>
<rscale>  0 0.25382662E+04</rscale>
<asrwt>0</asrwt>
<pdfrwt beam="1">  1        2 0.17022095E+00 0.25382662E+04</pdfrwt>
<pdfrwt beam="2">  1       -2 0.22396215E+00 0.25382662E+04</pdfrwt>
<totfact> 0.17904927E+00</totfact>
</mgrwt>
</event>
<event>
 6    1  0.4630212E-004  0.4120078E+04  0.7818608E-02  0.7980752E-01
         -2   -1    0    0    0  501 -0.00000000000E+00  0.00000000000E+00  0.14895473149E+04  0.14895473149E+04  0.00000000000E+00 0. -1.
          2   -1    0    0  501    0  0.00000000000E+00 -0.00000000000E+00 -0.28490271912E+04  0.28490271912E+04  0.00000000000E+00 0.  1.
         23    2    1    2    0    0 -0.13388169716E+04 -0.11232188416E+04 -0.18266357949E+04  0.25296283759E+04  0.91487396102E+02 0.  0.
         13    1    3    3    0    0 -0.31675665008E+03 -0.30541399744E+03 -0.49697986637E+03  0.66377818040E+03  0.00000000000E+00 0. -1.
        -13    1    3    3    0    0 -0.10220603215E+04 -0.81780484413E+03 -0.13296559285E+04  0.18658501955E+04  0.00000000000E+00 0.  1.
         22    1    1    2    0    0  0.13388169716E+04  0.11232188416E+04  0.46715591860E+03  0.18089461301E+04  0.00000000000E+00 0. -1.
<mgrwt>
<rscale>  0 0.41200781E+04</rscale>
<asrwt>0</asrwt>
<pdfrwt beam="1">  1        2 0.43831187E+00 0.41200781E+04</pdfrwt>
<pdfrwt beam="2">  1       -2 0.22916113E+00 0.41200781E+04</pdfrwt>
<totfact> 0.14592728E-01</totfact>
</mgrwt>
</event>
<event>
 6    1  0.4630212E-004  0.1836736E+04  0.7818608E-02  0.8687004E-01
         -2   -1    0    0    0  501 -0.00000000000E+00  0.00000000000E+00  0.70301983899E+03  0.70301983899E+03  0.00000000000E+00 0. -1.
          2   -1    0    0  501    0  0.00000000000E+00 -0.00000000000E+00 -0.11996807294E+04  0.11996807294E+04  0.00000000000E+00 0.  1.
         23    2    1    2    0    0 -0.65181161452E+03 -0.16963324966E+03  0.39624916495E+03  0.78425424104E+03  0.66388957299E+02 0.  0.
         13    1    3    3    0    0 -0.23856849017E+03 -0.82668023404E+02  0.17777472442E+03  0.30879245334E+03  0.00000000000E+00 0. -1.
        -13    1    3    3    0    0 -0.41324312434E+03 -0.86965226259E+02  0.21847444053E+03  0.47546178770E+03  0.00000000000E+00 0.  1.
         22    1    1    2    0    0  0.65181161452E+03  0.16963324966E+03 -0.89291005537E+03  0.11184463274E+04  0.00000000000E+00 0.  1.
<mgrwt>
<rscale>  0 0.18367355E+04</rscale>
<asrwt>0</asrwt>
<pdfrwt beam="1">  1        2 0.18456626E+00 0.18367355E+04</pdfrwt>
<pdfrwt beam="2">  1       -2 0.10815690E+00 0.18367355E+04</pdfrwt>
<totfact> 0.12210511E+01</totfact>
</mgrwt>
</event>
<event>
 6    1  0.4630212E-004  0.4188544E+04  0.7818608E-02  0.7967555E-01
         -2   -1    0    0    0  501 -0.00000000000E+00  0.00000000000E+00  0.12430562293E+04  0.12430562293E+04  0.00000000000E+00 0.  1.
          2   -1    0    0  501    0  0.00000000000E+00 -0.00000000000E+00 -0.35283799865E+04  0.35283799865E+04  0.00000000000E+00 0. -1.
         23    2    1    2    0    0 -0.14711902447E+04 -0.70918226419E+03 -0.26347825304E+04  0.31012680645E+04  0.91893445489E+02 0.  0.
         13    1    3    3    0    0 -0.69112943603E+03 -0.29083185719E+03 -0.12565274810E+04  0.14632513035E+04  0.00000000000E+00 0.  1.
        -13    1    3    3    0    0 -0.78006080863E+03 -0.41835040700E+03 -0.13782550494E+04  0.16380167610E+04  0.00000000000E+00 0. -1.
         22    1    1    2    0    0  0.14711902447E+04  0.70918226419E+03  0.34945877322E+03  0.16701681514E+04  0.00000000000E+00 0.  1.
<mgrwt>
<rscale>  0 0.41885438E+04</rscale>
<asrwt>0</asrwt>
<pdfrwt beam="1">  1        2 0.54282769E+00 0.41885438E+04</pdfrwt>
<pdfrwt beam="2">  1       -2 0.19123942E+00 0.41885438E+04</pdfrwt>
<totfact> 0.91561326E-02</totfact>
</mgrwt>
</event>
<event>
 6    1  0.4630212E-004  0.1750227E+04  0.7818608E-02  0.8733225E-01
         -2   -1    0    0    0  501 -0.00000000000E+00  0.00000000000E+00  0.71998581279E+03  0.71998581279E+03  0.00000000000E+00 0. -1.
          2   -1    0    0  501    0  0.00000000000E+00 -0.00000000000E+00 -0.10636649687E+04  0.10636649687E+04  0.00000000000E+00 0.  1.
         23    2    1    2    0    0 -0.66593629577E+03 -0.44970698705E+03 -0.51938830076E+03  0.96110520352E+03  0.90837663071E+02 0.  0.
         11    1    3    3    0    0 -0.39868956422E+03 -0.32008113860E+03 -0.31436568641E+03  0.60019254302E+03  0.00000000000E+00 0.  1.
        -11    1    3    3    0    0 -0.26724673156E+03 -0.12962584845E+03 -0.20502261435E+03  0.36091266050E+03  0.00000000000E+00 0. -1.
         22    1    1    2    0    0  0.66593629577E+03  0.44970698705E+03  0.17570914487E+03  0.82254557796E+03  0.00000000000E+00 0. -1.
<mgrwt>
<rscale>  0 0.17502271E+04</rscale>
<asrwt>0</asrwt>
<pdfrwt beam="1">  1        2 0.16364076E+00 0.17502271E+04</pdfrwt>
<pdfrwt beam="2">  1       -2 0.11076705E+00 0.17502271E+04</pdfrwt>
<totfact> 0.14054871E+01</totfact>
</mgrwt>
</event>
<event>
 6    1  0.4630212E-004  0.4360169E+04  0.7818608E-02  0.7935585E-01
          2   -1    0    0  501    0  0.00000000000E+00  0.00000000000E+00  0.96301630022E+03  0.96301630022E+03  0.00000000000E+00 0.  1.
         -2   -1    0    0    0  501 -0.00000000000E+00 -0.00000000000E+00 -0.49352935886E+04  0.49352935886E+04  0.00000000000E+00 0. -1.
         23    2    1    2    0    0  0.23004675795E+03 -0.98121956426E+03 -0.46006310333E+04  0.47106475745E+04  0.93173614686E+02 0.  0.
         11    1    3    3    0    0  0.13378312305E+03 -0.37616395356E+03 -0.18625451657E+04  0.19048547814E+04  0.00000000000E+00 0. -1.
        -11    1    3    3    0    0  0.96263634900E+02 -0.60505561070E+03 -0.27380858676E+04  0.28057927931E+04  0.00000000000E+00 0.  1.
         22    1    1    2    0    0 -0.23004675795E+03  0.98121956426E+03  0.62835374491E+03  0.11876623143E+04  0.00000000000E+00 0.  1.
<mgrwt>
<rscale>  0 0.43601689E+04</rscale>
<asrwt>0</asrwt>
<pdfrwt beam="1">  1        2 0.14815636E+00 0.43601689E+04</pdfrwt>
<pdfrwt beam="2">  1       -2 0.75927593E+00 0.43601689E+04</pdfrwt>
<totfact> 0.26531469E-03</totfact>
</mgrwt>
</event>
<event>
 6    1  0.4630212E-004  0.3539057E+04  0.7818608E-02  0.8104596E-01
         -2   -1    0    0    0  501 -0.00000000000E+00  0.00000000000E+00  0.13138791946E+04  0.13138791946E+04  0.00000000000E+00 0. -1.
          2   -1    0    0  501    0  0.00000000000E+00 -0.00000000000E+00 -0.23831961233E+04  0.23831961233E+04  0.00000000000E+00 0.  1.
         23    2    1    2    0    0  0.77583546714E+03  0.16932485047E+02  0.11249540789E+04  0.13696233558E+04  0.90216828107E+02 0.  0.
         13    1    3    3    0    0  0.25178867909E+03 -0.76020757419E+01  0.43776841398E+03  0.50507080173E+03  0.00000000000E+00 0.  1.
        -13    1    3    3    0    0  0.52404678805E+03  0.24534560789E+02  0.68718566488E+03  0.86455255408E+03  0.00000000000E+00 0. -1.
         22    1    1    2    0    0 -0.77583546714E+03 -0.16932485047E+02 -0.21942710076E+04  0.23274519621E+04  0.00000000000E+00 0.  1.
<mgrwt>
<rscale>  0 0.35390574E+04</rscale>
<asrwt>0</asrwt>
<pdfrwt beam="1">  1        2 0.36664556E+00 0.35390574E+04</pdfrwt>
<pdfrwt beam="2">  1       -2 0.20213526E+00 0.35390574E+04</pdfrwt>
<totfact> 0.42873806E-01</totfact>
</mgrwt>
</event>
<event>
 6    1  0.4630212E-004  0.3924661E+04  0.7818608E-02  0.8019920E-01
          1   -1    0    0  501    0  0.00000000000E+00  0.00000000000E+00  0.23642905702E+04  0.23642905702E+04  0.00000000000E+00 0.  1.
         -1   -1    0    0    0  501 -0.00000000000E+00 -0.00000000000E+00 -0.16287086750E+04  0.16287086750E+04  0.00000000000E+00 0. -1.
         23    2    1    2    0    0  0.11304955368E+04  0.10715938511E+04  0.15805215160E+04  0.22209223555E+04  0.90079443701E+02 0.  0.
         13    1    3    3    0    0  0.95635881208E+03  0.90689398462E+03  0.12891601262E+04  0.18436411549E+04  0.00000000000E+00 0.  1.
        -13    1    3    3    0    0  0.17413672469E+03  0.16469986646E+03  0.29136138979E+03  0.37728120064E+03  0.00000000000E+00 0. -1.
         22    1    1    2    0    0 -0.11304955368E+04 -0.10715938511E+04 -0.84493962076E+03  0.17720768897E+04  0.00000000000E+00 0. -1.
<mgrwt>
<rscale>  0 0.39246608E+04</rscale>
<asrwt>0</asrwt>
<pdfrwt beam="1">  1        1 0.36373701E+00 0.39246608E+04</pdfrwt>
<pdfrwt beam="2">  1       -1 0.25057057E+00 0.39246608E+04</pdfrwt>
<totfact> 0.91520444E-02</totfact>
</mgrwt>
</event>
<event>
 6    1  0.4630212E-004  0.2558422E+04  0.7818608E-02  0.8382463E-01
          2   -1    0    0  501    0  0.00000000000E+00  0.00000000000E+00  0.25199920476E+04  0.25199920476E+04  0.00000000000E+00 0.  1.
         -2   -1    0    0    0  501 -0.00000000000E+00 -0.00000000000E+00 -0.64935939906E+03  0.64935939906E+03  0.00000000000E+00 0. -1.
         23    2    1    2    0    0 -0.18110669076E+03  0.12477085160E+04  0.68168027792E+03  0.14363817660E+04  0.94490222387E+02 0.  0.
         13    1    3    3    0    0 -0.14757361989E+03  0.91556535884E+03  0.45603736842E+03  0.10334447160E+04  0.00000000000E+00 0. -1.
        -13    1    3    3    0    0 -0.33533070867E+02  0.33214315716E+03  0.22564290949E+03  0.40293705004E+03  0.00000000000E+00 0.  1.
         22    1    1    2    0    0  0.18110669076E+03 -0.12477085160E+04  0.11889523706E+04  0.17329696806E+04  0.00000000000E+00 0.  1.
<mgrwt>
<rscale>  0 0.25584218E+04</rscale>
<asrwt>0</asrwt>
<pdfrwt beam="1">  1        2 0.38769108E+00 0.25584218E+04</pdfrwt>
<pdfrwt beam="2">  1       -2 0.99901448E-01 0.25584218E+04</pdfrwt>
<totfact> 0.24902386E+00</totfact>
</mgrwt>
</event>
<event>
 6    1  0.4630212E-004  0.1033270E+04  0.7818608E-02  0.9272789E-01
         -2   -1    0    0    0  501 -0.00000000000E+00  0.00000000000E+00  0.46104411257E+03  0.46104411257E+03  0.00000000000E+00 0. -1.
          2   -1    0    0  501    0  0.00000000000E+00 -0.00000000000E+00 -0.57892907589E+03  0.57892907589E+03  0.00000000000E+00 0.  1.
         23    2    1    2    0    0  0.50531657541E+03 -0.43212190442E+01  0.28624311416E+02  0.51382826365E+03  0.88524680246E+02 0.  0.
         13    1    3    3    0    0  0.23368156356E+03 -0.36038176749E+02 -0.14867802221E+02  0.23691111176E+03  0.00000000000E+00 0. -1.
        -13    1    3    3    0    0  0.27163501184E+03  0.31716957704E+02  0.43492113637E+02  0.27691715189E+03  0.00000000000E+00 0.  1.
         22    1    1    2    0    0 -0.50531657541E+03  0.43212190442E+01 -0.14650927473E+03  0.52614492480E+03  0.00000000000E+00 0.  1.
<mgrwt>
<rscale>  0 0.10332702E+04</rscale>
<asrwt>0</asrwt>
<pdfrwt beam="1">  1        2 0.89066011E-01 0.10332702E+04</pdfrwt>
<pdfrwt beam="2">  1       -2 0.70929864E-01 0.10332702E+04</pdfrwt>
<totfact> 0.93271548E+01</totfact>
</mgrwt>
</event>
<event>
 6    1  0.4630212E-004  0.3619623E+04  0.7818608E-02  0.8086011E-01
          2   -1    0    0  501    0  0.00000000000E+00  0.00000000000E+00  0.14966347568E+04  0.14966347568E+04  0.00000000000E+00 0.  1.
         -2   -1    0    0    0  501 -0.00000000000E+00 -0.00000000000E+00 -0.21885222730E+04  0.21885222730E+04  0.00000000000E+00 0. -1.
         23    2    1    2    0    0 -0.11253349538E+04  0.12028355250E+04  0.41445746890E+03  0.17009213370E+04  0.90367817311E+02 0.  0.
         11    1    3    3    0    0 -0.49206097135E+03  0.46385521606E+03  0.15626274057E+03  0.69404877716E+03  0.00000000000E+00 0. -1.
        -11    1    3    3    0    0 -0.63327398250E+03  0.73898030895E+03  0.25819472832E+03  0.10068725598E+04  0.00000000000E+00 0.  1.
         22    1    1    2    0    0  0.11253349538E+04 -0.12028355250E+04 -0.11063449851E+04  0.19842356928E+04  0.00000000000E+00 0. -1.
<mgrwt>
<rscale>  0 0.36196235E+04</rscale>
<asrwt>0</asrwt>
<pdfrwt beam="1">  1        2 0.23025150E+00 0.36196235E+04</pdfrwt>
<pdfrwt beam="2">  1       -2 0.33669573E+00 0.36196235E+04</pdfrwt>
<totfact> 0.19557607E-01</totfact>
</mgrwt>
</event>
<event>
 6    1  0.4630212E-004  0.2316084E+04  0.7818608E-02  0.8471606E-01
         -2   -1    0    0    0  501 -0.00000000000E+00  0.00000000000E+00  0.43861048699E+03  0.43861048699E+03  0.00000000000E+00 0. -1.
          2   -1    0    0  501    0  0.00000000000E+00 -0.00000000000E+00 -0.30575229553E+04  0.30575229553E+04  0.00000000000E+00 0.  1.
         23    2    1    2    0    0 -0.37319846372E+03 -0.17880418204E+03 -0.29411841972E+04  0.29716269160E+04  0.93562905688E+02 0.  0.
         11    1    3    3    0    0 -0.26998151368E+03 -0.12112767992E+03 -0.17788146307E+04  0.18032591115E+04  0.00000000000E+00 0.  1.
        -11    1    3    3    0    0 -0.10321695003E+03 -0.57676502113E+02 -0.11623695665E+04  0.11683678046E+04  0.00000000000E+00 0. -1.
         22    1    1    2    0    0  0.37319846372E+03  0.17880418204E+03  0.32227172891E+03  0.52450652626E+03  0.00000000000E+00 0. -1.
<mgrwt>
<rscale>  0 0.23160843E+04</rscale>
<asrwt>0</asrwt>
<pdfrwt beam="1">  1        2 0.47038816E+00 0.23160843E+04</pdfrwt>
<pdfrwt beam="2">  1       -2 0.67478535E-01 0.23160843E+04</pdfrwt>
<totfact> 0.29225256E+00</totfact>
</mgrwt>
</event>
<event>
 6    1  0.4630212E-004  0.1993135E+04  0.7818608E-02  0.8609837E-01
         -2   -1    0    0    0  501 -0.00000000000E+00  0.00000000000E+00  0.19766026587E+04  0.19766026587E+04  0.00000000000E+00 0. -1.
          2   -1    0    0  501    0  0.00000000000E+00 -0.00000000000E+00 -0.50245129492E+03  0.50245129492E+03  0.00000000000E+00 0.  1.
         23    2    1    2    0    0  0.56742733543E+03  0.44804159552E+03  0.15879437938E+04  0.17471634089E+04  0.91101222331E+02 0.  0.
         13    1    3    3    0    0  0.39042804603E+03  0.32240980089E+03  0.10102339587E+04  0.11300242432E+04  0.00000000000E+00 0. -1.
        -13    1    3    3    0    0  0.17699928941E+03  0.12563179463E+03  0.57770983511E+03  0.61713916571E+03  0.00000000000E+00 0.  1.
         22    1    1    2    0    0 -0.56742733543E+03 -0.44804159552E+03 -0.11379243005E+03  0.73189054472E+03  0.00000000000E+00 0.  1.
<mgrwt>
<rscale>  0 0.19931348E+04</rscale>
<asrwt>0</asrwt>
<pdfrwt beam="1">  1        2 0.77300200E-01 0.19931348E+04</pdfrwt>
<pdfrwt beam="2">  1       -2 0.30409271E+00 0.19931348E+04</pdfrwt>
<totfact> 0.17095276E+00</totfact>
</mgrwt>
</event>
<event>
 6    1  0.4630212E-004  0.9633652E+03  0.7818608E-02  0.9349664E-01
         -2   -1    0    0    0  501 -0.00000000000E+00  0.00000000000E+00  0.65285424637E+03  0.65285424637E+03  0.00000000000E+00 0. -1.
          2   -1    0    0  501    0  0.00000000000E+00 -0.00000000000E+00 -0.35539040451E+03  0.35539040451E+03  0.00000000000E+00 0.  1.
         23    2    1    2    0    0 -0.27899872267E+03  0.37297728826E+02  0.55368583198E+03  0.62761212988E+03  0.89986539070E+02 0.  0.
         11    1    3    3    0    0 -0.75590653486E+02 -0.28593351899E+02  0.13097766587E+03  0.15390476154E+03  0.00000000000E+00 0. -1.
        -11    1    3    3    0    0 -0.20340806918E+03  0.65891080725E+02  0.42270816611E+03  0.47370736835E+03  0.00000000000E+00 0.  1.
         22    1    1    2    0    0  0.27899872267E+03 -0.37297728826E+02 -0.25622199012E+03  0.38063252100E+03  0.00000000000E+00 0.  1.
<mgrwt>
<rscale>  0 0.96336522E+03</rscale>
<asrwt>0</asrwt>
<pdfrwt beam="1">  1        2 0.54675447E-01 0.96336522E+03</pdfrwt>
<pdfrwt beam="2">  1       -2 0.10043912E+00 0.96336522E+03</pdfrwt>
<totfact> 0.74291290E+01</totfact>
</mgrwt>
</event>
<event>
 6    1  0.4630212E-004  0.1165969E+04  0.7818608E-02  0.9143176E-01
          2   -1    0    0  501    0  0.00000000000E+00  0.00000000000E+00  0.19216904718E+04  0.19216904718E+04  0.00000000000E+00 0.  1.
         -2   -1    0    0    0  501 -0.00000000000E+00 -0.00000000000E+00 -0.17686046493E+03  0.17686046493E+03  0.00000000000E+00 0. -1.
         23    2    1    2    0    0  0.49173380491E+03 -0.30618386157E+03  0.84805576696E+03  0.10309579762E+04  0.90139186180E+02 0.  0.
         11    1    3    3    0    0  0.35612457922E+03 -0.26691956025E+03  0.64149842418E+03  0.78076308557E+03  0.00000000000E+00 0.  1.
        -11    1    3    3    0    0  0.13560922569E+03 -0.39264301320E+02  0.20655734278E+03  0.25019489065E+03  0.00000000000E+00 0. -1.
         22    1    1    2    0    0 -0.49173380491E+03  0.30618386157E+03  0.89677423992E+03  0.10675929605E+04  0.00000000000E+00 0.  1.
<mgrwt>
<rscale>  0 0.11659692E+04</rscale>
<asrwt>0</asrwt>
<pdfrwt beam="1">  1        2 0.29564467E+00 0.11659692E+04</pdfrwt>
<pdfrwt beam="2">  1       -2 0.27209304E-01 0.11659692E+04</pdfrwt>
<totfact> 0.89849636E+01</totfact>
</mgrwt>
</event>
<event>
 6    1  0.4630212E-004  0.5583181E+04  0.7818608E-02  0.7744346E-01
         -2   -1    0    0    0  501 -0.00000000000E+00  0.00000000000E+00  0.21426458487E+04  0.21426458487E+04  0.00000000000E+00 0. -1.
          2   -1    0    0  501    0  0.00000000000E+00 -0.00000000000E+00 -0.36370814342E+04  0.36370814342E+04  0.00000000000E+00 0.  1.
         23    2    1    2    0    0 -0.25762829597E+02  0.27141844584E+04 -0.14193931995E+04  0.30643834083E+04  0.91146151529E+02 0.  0.
         13    1    3    3    0    0 -0.49422840513E+02  0.11832437880E+04 -0.59179357182E+03  0.13239063829E+04  0.00000000000E+00 0. -1.
        -13    1    3    3    0    0  0.23660010916E+02  0.15309406704E+04 -0.82759962772E+03  0.17404770255E+04  0.00000000000E+00 0.  1.
         22    1    1    2    0    0  0.25762829597E+02 -0.27141844584E+04 -0.75042386042E+02  0.27153438746E+04  0.00000000000E+00 0.  1.
<mgrwt>
<rscale>  0 0.55831810E+04</rscale>
<asrwt>0</asrwt>
<pdfrwt beam="1">  1        2 0.55955099E+00 0.55831810E+04</pdfrwt>
<pdfrwt beam="2">  1       -2 0.32963782E+00 0.55831810E+04</pdfrwt>
<totfact> 0.93904491E-03</totfact>
</mgrwt>
</event>
<event>
 6    1  0.4630212E-004  0.2267615E+04  0.7818608E-02  0.8490801E-01
          2   -1    0    0  501    0  0.00000000000E+00  0.00000000000E+00  0.10314497970E+04  0.10314497970E+04  0.00000000000E+00 0.  1.
         -2   -1    0    0    0  501 -0.00000000000E+00 -0.00000000000E+00 -0.12463223826E+04  0.12463223826E+04  0.00000000000E+00 0. -1.
         23    2    1    2    0    0  0.12589112598E+03 -0.76932090276E+03 -0.93201740070E+03  0.12185272066E+04  0.91917849446E+02 0.  0.
         13    1    3    3    0    0  0.79147161730E+02 -0.56154746050E+03 -0.61434555337E+03  0.83607432836E+03  0.00000000000E+00 0. -1.
        -13    1    3    3    0    0  0.46743964247E+02 -0.20777344227E+03 -0.31767184733E+03  0.38245287826E+03  0.00000000000E+00 0.  1.
         22    1    1    2    0    0 -0.12589112598E+03  0.76932090276E+03  0.71714481507E+03  0.10592449730E+04  0.00000000000E+00 0.  1.
<mgrwt>
<rscale>  0 0.22676146E+04</rscale>
<asrwt>0</asrwt>
<pdfrwt beam="1">  1        2 0.15868459E+00 0.22676146E+04</pdfrwt>
<pdfrwt beam="2">  1       -2 0.19174190E+00 0.22676146E+04</pdfrwt>
<totfact> 0.32979946E+00</totfact>
</mgrwt>
</event>
<event>
 6    1  0.4630212E-004  0.1396158E+04  0.7818608E-02  0.8956604E-01
          2   -1    0    0  501    0  0.00000000000E+00  0.00000000000E+00  0.65359015360E+03  0.65359015360E+03  0.00000000000E+00 0.  1.
         -2   -1    0    0    0  501 -0.00000000000E+00 -0.00000000000E+00 -0.74559650808E+03  0.74559650808E+03  0.00000000000E+00 0. -1.
         23    2    1    2    0    0  0.28202180429E+03  0.40912530229E+02 -0.68182914019E+03  0.74412860948E+03  0.87328562399E+02 0.  0.
         13    1    3    3    0    0  0.10155155010E+03  0.48904850184E+02 -0.32847282804E+03  0.34727338001E+03  0.00000000000E+00 0.  1.
        -13    1    3    3    0    0  0.18047025419E+03 -0.79923199554E+01 -0.35335631214E+03  0.39685522947E+03  0.00000000000E+00 0. -1.
         22    1    1    2    0    0 -0.28202180429E+03 -0.40912530229E+02  0.58982278571E+03  0.65505805221E+03  0.00000000000E+00 0.  1.
<mgrwt>
<rscale>  0 0.13961584E+04</rscale>
<asrwt>0</asrwt>
<pdfrwt beam="1">  1        2 0.10055233E+00 0.13961584E+04</pdfrwt>
<pdfrwt beam="2">  1       -2 0.11470716E+00 0.13961584E+04</pdfrwt>
<totfact> 0.25794538E+01</totfact>
</mgrwt>
</event>
<event>
 6    1  0.4630212E-004  0.4412976E+04  0.7818608E-02  0.7926052E-01
          2   -1    0    0  501    0  0.00000000000E+00  0.00000000000E+00  0.45015225460E+04  0.45015225460E+04  0.00000000000E+00 0.  1.
         -2   -1    0    0    0  501 -0.00000000000E+00 -0.00000000000E+00 -0.10815427168E+04  0.10815427168E+04  0.00000000000E+00 0. -1.
         23    2    1    2    0    0  0.95066379302E+03  0.57029441376E+03  0.41229598049E+04  0.42703664353E+04  0.90744549935E+02 0.  0.
         13    1    3    3    0    0  0.45810065130E+03  0.23981799189E+03  0.17906338116E+04  0.18637967495E+04  0.00000000000E+00 0. -1.
        -13    1    3    3    0    0  0.49256314171E+03  0.33047642187E+03  0.23323259932E+04  0.24065696858E+04  0.00000000000E+00 0.  1.
         22    1    1    2    0    0 -0.95066379302E+03 -0.57029441376E+03 -0.70297997564E+03  0.13126988276E+04  0.00000000000E+00 0. -1.
<mgrwt>
<rscale>  0 0.44129758E+04</rscale>
<asrwt>0</asrwt>
<pdfrwt beam="1">  1        2 0.69254192E+00 0.44129758E+04</pdfrwt>
<pdfrwt beam="2">  1       -2 0.16639119E+00 0.44129758E+04</pdfrwt>
<totfact> 0.20994258E-02</totfact>
</mgrwt>
</event>
<event>
 6    1  0.4630212E-004  0.4196252E+04  0.7818608E-02  0.7966086E-01
          2   -1    0    0  501    0  0.00000000000E+00  0.00000000000E+00  0.33165973205E+04  0.33165973205E+04  0.00000000000E+00 0.  1.
         -2   -1    0    0    0  501 -0.00000000000E+00 -0.00000000000E+00 -0.13273037154E+04  0.13273037154E+04  0.00000000000E+00 0. -1.
         23    2    1    2    0    0  0.10460827707E+04  0.95633080108E+03 -0.71555854389E+03  0.15902011632E+04  0.88645053367E+02 0.  0.
         11    1    3    3    0    0  0.89909300746E+03  0.77771019520E+03 -0.60048746669E+03  0.13318357937E+04  0.00000000000E+00 0. -1.
        -11    1    3    3    0    0  0.14698976322E+03  0.17862060588E+03 -0.11507107720E+03  0.25836536947E+03  0.00000000000E+00 0.  1.
         22    1    1    2    0    0 -0.10460827707E+04 -0.95633080108E+03  0.27048521491E+04  0.30536998727E+04  0.00000000000E+00 0.  1.
<mgrwt>
<rscale>  0 0.41962516E+04</rscale>
<asrwt>0</asrwt>
<pdfrwt beam="1">  1        2 0.51024574E+00 0.41962516E+04</pdfrwt>
<pdfrwt beam="2">  1       -2 0.20420057E+00 0.41962516E+04</pdfrwt>
<totfact> 0.10511815E-01</totfact>
</mgrwt>
</event>
<event>
 6    1  0.4630212E-004  0.3017587E+04  0.7818608E-02  0.8238727E-01
          2   -1    0    0  501    0  0.00000000000E+00  0.00000000000E+00  0.12980147195E+04  0.12980147195E+04  0.00000000000E+00 0.  1.
         -2   -1    0    0    0  501 -0.00000000000E+00 -0.00000000000E+00 -0.17537995865E+04  0.17537995865E+04  0.00000000000E+00 0. -1.
         23    2    1    2    0    0  0.34544617095E+03 -0.65968581050E+03 -0.15537471667E+04  0.17251494511E+04  0.86556023463E+02 0.  0.
         13    1    3    3    0    0  0.22244960756E+03 -0.35537970541E+03 -0.93634781202E+03  0.10259267947E+04  0.00000000000E+00 0.  1.
        -13    1    3    3    0    0  0.12299656339E+03 -0.30430610509E+03 -0.61739935463E+03  0.69922265645E+03  0.00000000000E+00 0. -1.
         22    1    1    2    0    0 -0.34544617095E+03  0.65968581050E+03  0.10979622997E+04  0.13266648549E+04  0.00000000000E+00 0.  1.
<mgrwt>
<rscale>  0 0.30175869E+04</rscale>
<asrwt>0</asrwt>
<pdfrwt beam="1">  1        2 0.19969457E+00 0.30175869E+04</pdfrwt>
<pdfrwt beam="2">  1       -2 0.26981532E+00 0.30175869E+04</pdfrwt>
<totfact> 0.68847845E-01</totfact>
</mgrwt>
</event>
<event>
 6    1  0.4630212E-004  0.1019899E+04  0.7818608E-02  0.9286985E-01
          1   -1    0    0  501    0  0.00000000000E+00  0.00000000000E+00  0.48153799937E+03  0.48153799937E+03  0.00000000000E+00 0. -1.
         -1   -1    0    0    0  501 -0.00000000000E+00 -0.00000000000E+00 -0.54003705598E+03  0.54003705598E+03  0.00000000000E+00 0.  1.
         23    2    1    2    0    0 -0.25365242186E+03  0.41815767967E+03 -0.15822068610E+03  0.52243599701E+03  0.93328394844E+02 0.  0.
         13    1    3    3    0    0 -0.19897915207E+03  0.25284372913E+03 -0.79958036507E+02  0.33153573249E+03  0.00000000000E+00 0. -1.
        -13    1    3    3    0    0 -0.54673269789E+02  0.16531395054E+03 -0.78262649590E+02  0.19090026452E+03  0.00000000000E+00 0.  1.
         22    1    1    2    0    0  0.25365242186E+03 -0.41815767967E+03  0.99721629488E+02  0.49913905835E+03  0.00000000000E+00 0. -1.
<mgrwt>
<rscale>  0 0.10198987E+04</rscale>
<asrwt>0</asrwt>
<pdfrwt beam="1">  1        1 0.74082770E-01 0.10198987E+04</pdfrwt>
<pdfrwt beam="2">  1       -1 0.83082624E-01 0.10198987E+04</pdfrwt>
<totfact> 0.67286054E+01</totfact>
</mgrwt>
</event>
<event>
 6    1  0.4630212E-004  0.4926423E+04  0.7818608E-02  0.7839958E-01
         -2   -1    0    0    0  501 -0.00000000000E+00  0.00000000000E+00  0.16601714703E+04  0.16601714703E+04  0.00000000000E+00 0. -1.
          2   -1    0    0  501    0  0.00000000000E+00 -0.00000000000E+00 -0.36546890486E+04  0.36546890486E+04  0.00000000000E+00 0.  1.
         23    2    1    2    0    0  0.21820623871E+04 -0.11235734250E+04 -0.12114176846E+04  0.27386115120E+04  0.92987660637E+02 0.  0.
         11    1    3    3    0    0  0.27814029565E+03 -0.17062934545E+03 -0.13888662769E+03  0.35463487271E+03  0.00000000000E+00 0. -1.
        -11    1    3    3    0    0  0.19039220914E+04 -0.95294407951E+03 -0.10725310569E+04  0.23839766393E+04  0.00000000000E+00 0.  1.
         22    1    1    2    0    0 -0.21820623871E+04  0.11235734250E+04 -0.78309989369E+03  0.25762490069E+04  0.00000000000E+00 0. -1.
<mgrwt>
<rscale>  0 0.49264228E+04</rscale>
<asrwt>0</asrwt>
<pdfrwt beam="1">  1        2 0.56225985E+00 0.49264228E+04</pdfrwt>
<pdfrwt beam="2">  1       -2 0.25541100E+00 0.49264228E+04</pdfrwt>
<totfact> 0.27397057E-02</totfact>
</mgrwt>
</event>
<event>
 6    1  0.4630212E-004  0.2080782E+04  0.7818608E-02  0.8569757E-01
          2   -1    0    0  501    0  0.00000000000E+00  0.00000000000E+00  0.19886451154E+04  0.19886451154E+04  0.00000000000E+00 0.  1.
         -2   -1    0    0    0  501 -0.00000000000E+00 -0.00000000000E+00 -0.54429666991E+03  0.54429666991E+03  0.00000000000E+00 0. -1.
         23    2    1    2    0    0  0.25924389736E+03  0.57833365451E+03 -0.27813633115E+03  0.69755871357E+03  0.86897214634E+02 0.  0.
         13    1    3    3    0    0  0.36392301516E+02  0.16564913493E+03 -0.92148439256E+02  0.19301650284E+03  0.00000000000E+00 0.  1.
        -13    1    3    3    0    0  0.22285159584E+03  0.41268451959E+03 -0.18598789189E+03  0.50454221073E+03  0.00000000000E+00 0. -1.
         22    1    1    2    0    0 -0.25924389736E+03 -0.57833365451E+03  0.17224847766E+04  0.18353830717E+04  0.00000000000E+00 0.  1.
<mgrwt>
<rscale>  0 0.20807815E+04</rscale>
<asrwt>0</asrwt>
<pdfrwt beam="1">  1        2 0.30594540E+00 0.20807815E+04</pdfrwt>
<pdfrwt beam="2">  1       -2 0.83737950E-01 0.20807815E+04</pdfrwt>
<totfact> 0.77996129E+00</totfact>
</mgrwt>
</event>
<event>
 6    1  0.4630212E-004  0.2973241E+04  0.7818608E-02  0.8251413E-01
         -2   -1    0    0    0  501 -0.00000000000E+00  0.00000000000E+00  0.85642612815E+03  0.85642612815E+03  0.00000000000E+00 0. -1.
          2   -1    0    0  501    0  0.00000000000E+00 -0.00000000000E+00 -0.25805391236E+04  0.25805391236E+04  0.00000000000E+00 0.  1.
         23    2    1    2    0    0 -0.43414812210E+03 -0.11012687008E+04  0.17404448302E+03  0.11999406305E+04  0.91042250213E+02 0.  0.
         11    1    3    3    0    0 -0.34768693239E+03 -0.93207608578E+03  0.17412377832E+03  0.10099361974E+04  0.00000000000E+00 0. -1.
        -11    1    3    3    0    0 -0.86461189706E+02 -0.16919261500E+03 -0.79295300166E-01  0.19000443306E+03  0.00000000000E+00 0.  1.
         22    1    1    2    0    0  0.43414812210E+03  0.11012687008E+04 -0.18981574785E+04  0.22370246213E+04  0.00000000000E+00 0.  1.
<mgrwt>
<rscale>  0 0.29732414E+04</rscale>
<asrwt>0</asrwt>
<pdfrwt beam="1">  1        2 0.39700602E+00 0.29732414E+04</pdfrwt>
<pdfrwt beam="2">  1       -2 0.13175787E+00 0.29732414E+04</pdfrwt>
<totfact> 0.11247505E+00</totfact>
</mgrwt>
</event>
<event>
 6    1  0.4630212E-004  0.7343792E+03  0.7818608E-02  0.9660181E-01
          2   -1    0    0  501    0  0.00000000000E+00  0.00000000000E+00  0.89983345137E+02  0.89983345137E+02  0.00000000000E+00 0.  1.
         -2   -1    0    0    0  501 -0.00000000000E+00 -0.00000000000E+00 -0.14983684466E+04  0.14983684466E+04  0.00000000000E+00 0. -1.
         23    2    1    2    0    0 -0.20376369589E+02 -0.32038441360E+03 -0.35611051846E+03  0.48819581782E+03  0.91973291022E+02 0.  0.
         11    1    3    3    0    0  0.28046183972E+02 -0.13905191857E+03 -0.19309603871E+03  0.23959988451E+03  0.00000000000E+00 0.  1.
        -11    1    3    3    0    0 -0.48422553561E+02 -0.18133249503E+03 -0.16301447975E+03  0.24859593331E+03  0.00000000000E+00 0. -1.
         22    1    1    2    0    0  0.20376369589E+02  0.32038441360E+03 -0.10522745830E+04  0.11001559739E+04  0.00000000000E+00 0. -1.
<mgrwt>
<rscale>  0 0.73437921E+03</rscale>
<asrwt>0</asrwt>
<pdfrwt beam="1">  1        2 0.13843592E-01 0.73437921E+03</pdfrwt>
<pdfrwt beam="2">  1       -2 0.23051821E+00 0.73437921E+03</pdfrwt>
<totfact> 0.38454014E+01</totfact>
</mgrwt>
</event>
<event>
 6    1  0.4630212E-004  0.1599626E+04  0.7818608E-02  0.8820778E-01
          1   -1    0    0  501    0  0.00000000000E+00  0.00000000000E+00  0.10374783542E+04  0.10374783542E+04  0.00000000000E+00 0.  1.
         -1   -1    0    0    0  501 -0.00000000000E+00 -0.00000000000E+00 -0.61659199368E+03  0.61659199368E+03  0.00000000000E+00 0. -1.
         23    2    1    2    0    0 -0.53095472341E+03 -0.58081040209E+03  0.80217787684E+02  0.79656890881E+03  0.93986656093E+02 0.  0.
         13    1    3    3    0    0 -0.45790173916E+03 -0.46887440490E+03  0.94456240661E+02  0.66214740934E+03  0.00000000000E+00 0. -1.
        -13    1    3    3    0    0 -0.73052984253E+02 -0.11193599719E+03 -0.14238452977E+02  0.13442149947E+03  0.00000000000E+00 0.  1.
         22    1    1    2    0    0  0.53095472341E+03  0.58081040209E+03  0.34066857285E+03  0.85750143908E+03  0.00000000000E+00 0.  1.
<mgrwt>
<rscale>  0 0.15996260E+04</rscale>
<asrwt>0</asrwt>
<pdfrwt beam="1">  1        1 0.15961205E+00 0.15996260E+04</pdfrwt>
<pdfrwt beam="2">  1       -1 0.94860307E-01 0.15996260E+04</pdfrwt>
<totfact> 0.14589502E+01</totfact>
</mgrwt>
</event>
<event>
 6    1  0.4630212E-004  0.3737856E+04  0.7818608E-02  0.8059624E-01
         -2   -1    0    0    0  501 -0.00000000000E+00  0.00000000000E+00  0.19081582796E+04  0.19081582796E+04  0.00000000000E+00 0. -1.
          2   -1    0    0  501    0  0.00000000000E+00 -0.00000000000E+00 -0.18305038090E+04  0.18305038090E+04  0.00000000000E+00 0.  1.
         23    2    1    2    0    0 -0.11670785099E+02 -0.89125022796E+03 -0.16028679907E+04  0.18363953043E+04  0.93267046165E+02 0.  0.
         11    1    3    3    0    0  0.13034848955E+02 -0.73958147850E+03 -0.13789975524E+04  0.15648593931E+04  0.00000000000E+00 0. -1.
        -11    1    3    3    0    0 -0.24705634054E+02 -0.15166874946E+03 -0.22387043824E+03  0.27153591113E+03  0.00000000000E+00 0.  1.
         22    1    1    2    0    0  0.11670785099E+02  0.89125022796E+03  0.16805224613E+04  0.19022667844E+04  0.00000000000E+00 0. -1.
<mgrwt>
<rscale>  0 0.37378555E+04</rscale>
<asrwt>0</asrwt>
<pdfrwt beam="1">  1        2 0.28161597E+00 0.37378555E+04</pdfrwt>
<pdfrwt beam="2">  1       -2 0.29356281E+00 0.37378555E+04</pdfrwt>
<totfact> 0.23274386E-01</totfact>
</mgrwt>
</event>
<event>
 6    1  0.4630212E-004  0.1858140E+04  0.7818608E-02  0.8675978E-01
          2   -1    0    0  501    0  0.00000000000E+00  0.00000000000E+00  0.66331833478E+03  0.66331833478E+03  0.00000000000E+00 0. -1.
         -2   -1    0    0    0  501 -0.00000000000E+00 -0.00000000000E+00 -0.13012929499E+04  0.13012929499E+04  0.00000000000E+00 0.  1.
         23    2    1    2    0    0 -0.37774357650E+03 -0.73076285048E+03 -0.77103704562E+03  0.11312985201E+04  0.92917504560E+02 0.  0.
         13    1    3    3    0    0 -0.24691835456E+03 -0.38356041041E+03 -0.44748812624E+03  0.63900929991E+03  0.00000000000E+00 0.  1.
        -13    1    3    3    0    0 -0.13082522194E+03 -0.34720244008E+03 -0.32354891938E+03  0.49228922020E+03  0.00000000000E+00 0. -1.
         22    1    1    2    0    0  0.37774357650E+03  0.73076285048E+03  0.13306243047E+03  0.83331276459E+03  0.00000000000E+00 0. -1.
<mgrwt>
<rscale>  0 0.18581404E+04</rscale>
<asrwt>0</asrwt>
<pdfrwt beam="1">  1        2 0.10204898E+00 0.18581404E+04</pdfrwt>
<pdfrwt beam="2">  1       -2 0.20019891E+00 0.18581404E+04</pdfrwt>
<totfact> 0.54589352E+00</totfact>
</mgrwt>
</event>
<event>
 6    1  0.4630212E-004  0.1762760E+04  0.7818608E-02  0.8726358E-01
          2   -1    0    0  501    0  0.00000000000E+00  0.00000000000E+00  0.22616881015E+04  0.22616881015E+04  0.00000000000E+00 0.  1.
         -2   -1    0    0    0  501 -0.00000000000E+00 -0.00000000000E+00 -0.34347368643E+03  0.34347368643E+03  0.00000000000E+00 0. -1.
         23    2    1    2    0    0 -0.49911868585E+03  0.12797418597E+02 -0.10771636569E+03  0.51861469646E+03  0.89861846489E+02 0.  0.
         13    1    3    3    0    0 -0.24868406766E+03  0.36197415227E+02 -0.19468984201E+02  0.25205765159E+03  0.00000000000E+00 0. -1.
        -13    1    3    3    0    0 -0.25043461819E+03 -0.23399996629E+02 -0.88247381486E+02  0.26655704487E+03  0.00000000000E+00 0.  1.
         22    1    1    2    0    0  0.49911868585E+03 -0.12797418597E+02  0.20259307808E+04  0.20865470915E+04  0.00000000000E+00 0.  1.
<mgrwt>
<rscale>  0 0.17627596E+04</rscale>
<asrwt>0</asrwt>
<pdfrwt beam="1">  1        2 0.34795201E+00 0.17627596E+04</pdfrwt>
<pdfrwt beam="2">  1       -2 0.52842107E-01 0.17627596E+04</pdfrwt>
<totfact> 0.15252218E+01</totfact>
</mgrwt>
</event>
<event>
 6    1  0.4630212E-004  0.4688096E+04  0.7818608E-02  0.7878510E-01
          2   -1    0    0  501    0  0.00000000000E+00  0.00000000000E+00  0.51958101032E+04  0.51958101032E+04  0.00000000000E+00 0.  1.
         -2   -1    0    0    0  501 -0.00000000000E+00 -0.00000000000E+00 -0.10574984392E+04  0.10574984392E+04  0.00000000000E+00 0. -1.
         23    2    1    2    0    0 -0.35113549822E+03 -0.22946035436E+04  0.24950167368E+04  0.34092059110E+04  0.95262089308E+02 0.  0.
         11    1    3    3    0    0 -0.25035703325E+02 -0.38162319898E+03  0.42945203331E+03  0.57505834605E+03  0.00000000000E+00 0. -1.
        -11    1    3    3    0    0 -0.32609979489E+03 -0.19129803446E+04  0.20655647035E+04  0.28341475649E+04  0.00000000000E+00 0.  1.
         22    1    1    2    0    0  0.35113549822E+03  0.22946035436E+04  0.16432949272E+04  0.28441026315E+04  0.00000000000E+00 0.  1.
<mgrwt>
<rscale>  0 0.46880960E+04</rscale>
<asrwt>0</asrwt>
<pdfrwt beam="1">  1        2 0.79935539E+00 0.46880960E+04</pdfrwt>
<pdfrwt beam="2">  1       -2 0.16269207E+00 0.46880960E+04</pdfrwt>
<totfact> 0.32924882E-03</totfact>
</mgrwt>
</event>
<event>
 6    1  0.4630212E-004  0.1017034E+04  0.7818608E-02  0.9290057E-01
          2   -1    0    0  501    0  0.00000000000E+00  0.00000000000E+00  0.90040734503E+03  0.90040734503E+03  0.00000000000E+00 0.  1.
         -2   -1    0    0    0  501 -0.00000000000E+00 -0.00000000000E+00 -0.28719197601E+03  0.28719197601E+03  0.00000000000E+00 0. -1.
         23    2    1    2    0    0 -0.20265321688E+03  0.37295826081E+03 -0.92018694390E+01  0.43422729517E+03  0.91117939246E+02 0.  0.
         11    1    3    3    0    0 -0.60183924389E+02  0.13939712262E+03  0.38202476864E+02  0.15656657302E+03  0.00000000000E+00 0.  1.
        -11    1    3    3    0    0 -0.14246929249E+03  0.23356113819E+03 -0.47404346303E+02  0.27766072215E+03  0.00000000000E+00 0. -1.
         22    1    1    2    0    0  0.20265321688E+03 -0.37295826081E+03  0.62241723847E+03  0.75337202587E+03  0.00000000000E+00 0.  1.
<mgrwt>
<rscale>  0 0.10170344E+04</rscale>
<asrwt>0</asrwt>
<pdfrwt beam="1">  1        2 0.13852421E+00 0.10170344E+04</pdfrwt>
<pdfrwt beam="2">  1       -2 0.44183381E-01 0.10170344E+04</pdfrwt>
<totfact> 0.14192437E+02</totfact>
</mgrwt>
</event>
<event>
 6    1  0.4630212E-004  0.1454749E+04  0.7818608E-02  0.8915115E-01
          2   -1    0    0  501    0  0.00000000000E+00  0.00000000000E+00  0.15138508992E+04  0.15138508992E+04  0.00000000000E+00 0.  1.
         -2   -1    0    0    0  501 -0.00000000000E+00 -0.00000000000E+00 -0.34948878019E+03  0.34948878019E+03  0.00000000000E+00 0. -1.
         23    2    1    2    0    0 -0.61471537042E+03  0.90303608729E+02  0.10601654412E+04  0.12333502541E+04  0.10569937648E+03 0.  0.
         11    1    3    3    0    0 -0.51859027896E+03  0.67989102236E+02  0.80739921516E+03  0.96200409983E+03  0.00000000000E+00 0. -1.
        -11    1    3    3    0    0 -0.96125091457E+02  0.22314506493E+02  0.25276622602E+03  0.27134615424E+03  0.00000000000E+00 0.  1.
         22    1    1    2    0    0  0.61471537042E+03 -0.90303608729E+02  0.10419667786E+03  0.62998942535E+03  0.00000000000E+00 0. -1.
<mgrwt>
<rscale>  0 0.14547493E+04</rscale>
<asrwt>0</asrwt>
<pdfrwt beam="1">  1        2 0.23290013E+00 0.14547493E+04</pdfrwt>
<pdfrwt beam="2">  1       -2 0.53767505E-01 0.14547493E+04</pdfrwt>
<totfact> 0.39379648E+01</totfact>
</mgrwt>
</event>
<event>
 6    1  0.4630212E-004  0.2423879E+04  0.7818608E-02  0.8430618E-01
         -2   -1    0    0    0  501 -0.00000000000E+00  0.00000000000E+00  0.98467256901E+03  0.98467256901E+03  0.00000000000E+00 0. -1.
          2   -1    0    0  501    0  0.00000000000E+00 -0.00000000000E+00 -0.14916601206E+04  0.14916601206E+04  0.00000000000E+00 0.  1.
         23    2    1    2    0    0 -0.10075054784E+04 -0.35353846325E+02  0.43012333100E+03  0.10999265033E+04  0.92277025874E+02 0.  0.
         11    1    3    3    0    0 -0.17941862839E+03  0.25314723287E+02  0.94447015660E+02  0.20433335067E+03  0.00000000000E+00 0. -1.
        -11    1    3    3    0    0 -0.82808684997E+03 -0.60668569611E+02  0.33567631534E+03  0.89559315267E+03  0.00000000000E+00 0.  1.
         22    1    1    2    0    0  0.10075054784E+04  0.35353846325E+02 -0.93711088262E+03  0.13764061863E+04  0.00000000000E+00 0.  1.
<mgrwt>
<rscale>  0 0.24238785E+04</rscale>
<asrwt>0</asrwt>
<pdfrwt beam="1">  1        2 0.22948617E+00 0.24238785E+04</pdfrwt>
<pdfrwt beam="2">  1       -2 0.15148809E+00 0.24238785E+04</pdfrwt>
<totfact> 0.33618291E+00</totfact>
</mgrwt>
</event>
<event>
 6    1  0.4630212E-004  0.2880325E+04  0.7818608E-02  0.8278755E-01
         -2   -1    0    0    0  501 -0.00000000000E+00  0.00000000000E+00  0.19137797055E+04  0.19137797055E+04  0.00000000000E+00 0. -1.
          2   -1    0    0  501    0  0.00000000000E+00 -0.00000000000E+00 -0.10837549250E+04  0.10837549250E+04  0.00000000000E+00 0.  1.
         23    2    1    2    0    0  0.12415309594E+04 -0.49698828278E+02 -0.33922068644E+03  0.12913681502E+04  0.93230513254E+02 0.  0.
         13    1    3    3    0    0  0.75562232142E+03  0.13889385794E+02 -0.19401473157E+03  0.78025619108E+03  0.00000000000E+00 0.  1.
        -13    1    3    3    0    0  0.48590863794E+03 -0.63588214072E+02 -0.14520595487E+03  0.51111195909E+03  0.00000000000E+00 0. -1.
         22    1    1    2    0    0 -0.12415309594E+04  0.49698828278E+02  0.11692454670E+04  0.17061664803E+04  0.00000000000E+00 0. -1.
<mgrwt>
<rscale>  0 0.28803251E+04</rscale>
<asrwt>0</asrwt>
<pdfrwt beam="1">  1        2 0.16673153E+00 0.28803251E+04</pdfrwt>
<pdfrwt beam="2">  1       -2 0.29442765E+00 0.28803251E+04</pdfrwt>
<totfact> 0.66263327E-01</totfact>
</mgrwt>
</event>
<event>
 6    1  0.4630212E-004  0.1269719E+04  0.7818608E-02  0.9053929E-01
          2   -1    0    0  501    0  0.00000000000E+00  0.00000000000E+00  0.15812786918E+04  0.15812786918E+04  0.00000000000E+00 0.  1.
         -2   -1    0    0    0  501 -0.00000000000E+00 -0.00000000000E+00 -0.25488649582E+03  0.25488649582E+03  0.00000000000E+00 0. -1.
         23    2    1    2    0    0  0.13727678211E+03 -0.46304679750E+03  0.78118454403E+02  0.49771661353E+03  0.91444425101E+02 0.  0.
         11    1    3    3    0    0  0.31506801867E+02 -0.96854094505E+02 -0.20747252832E+02  0.10394153494E+03  0.00000000000E+00 0. -1.
        -11    1    3    3    0    0  0.10576998024E+03 -0.36619270300E+03  0.98865707235E+02  0.39377507859E+03  0.00000000000E+00 0.  1.
         22    1    1    2    0    0 -0.13727678211E+03  0.46304679750E+03  0.12482737415E+04  0.13384485741E+04  0.00000000000E+00 0.  1.
<mgrwt>
<rscale>  0 0.12697190E+04</rscale>
<asrwt>0</asrwt>
<pdfrwt beam="1">  1        2 0.24327364E+00 0.12697190E+04</pdfrwt>
<pdfrwt beam="2">  1       -2 0.39213308E-01 0.12697190E+04</pdfrwt>
<totfact> 0.68969849E+01</totfact>
</mgrwt>
</event>
<event>
 6    1  0.4630212E-004  0.1215338E+04  0.7818608E-02  0.9099536E-01
          2   -1    0    0  501    0  0.00000000000E+00  0.00000000000E+00  0.21762479328E+04  0.21762479328E+04  0.00000000000E+00 0.  1.
         -2   -1    0    0    0  501 -0.00000000000E+00 -0.00000000000E+00 -0.16967819021E+03  0.16967819021E+03  0.00000000000E+00 0. -1.
         23    2    1    2    0    0  0.17283004382E+03 -0.43456129880E+03  0.26990383484E+03  0.54739277008E+03  0.89872232712E+02 0.  0.
         13    1    3    3    0    0  0.30113042400E+02 -0.86459759560E+02  0.14564492785E+02  0.92704961010E+02  0.00000000000E+00 0.  1.
        -13    1    3    3    0    0  0.14271700142E+03 -0.34810153924E+03  0.25533934206E+03  0.45468780907E+03  0.00000000000E+00 0. -1.
         22    1    1    2    0    0 -0.17283004382E+03  0.43456129880E+03  0.17366659077E+04  0.17985333529E+04  0.00000000000E+00 0.  1.
<mgrwt>
<rscale>  0 0.12153383E+04</rscale>
<asrwt>0</asrwt>
<pdfrwt beam="1">  1        2 0.33480735E+00 0.12153383E+04</pdfrwt>
<pdfrwt beam="2">  1       -2 0.26104339E-01 0.12153383E+04</pdfrwt>
<totfact> 0.69787108E+01</totfact>
</mgrwt>
</event>
<event>
 6    1  0.4731171E-004  0.3037162E+04  0.7818608E-02  0.8233198E-01
          2   -1    0    0  501    0  0.00000000000E+00  0.00000000000E+00  0.24826017053E+04  0.24826017053E+04  0.00000000000E+00 0.  1.
         -2   -1    0    0    0  501 -0.00000000000E+00 -0.00000000000E+00 -0.92889983966E+03  0.92889983966E+03  0.00000000000E+00 0. -1.
         23    2    1    2    0    0 -0.11583803037E+04  0.97636940539E+03  0.68462086399E+03  0.16649495328E+04  0.90603948951E+02 0.  0.
         13    1    3    3    0    0 -0.56910383313E+03  0.52089894653E+03  0.31264033893E+03  0.83244150959E+03  0.00000000000E+00 0. -1.
        -13    1    3    3    0    0 -0.58927647055E+03  0.45547045887E+03  0.37198052507E+03  0.83250802319E+03  0.00000000000E+00 0.  1.
         22    1    1    2    0    0  0.11583803037E+04 -0.97636940539E+03  0.86908100160E+03  0.17465520121E+04  0.00000000000E+00 0. -1.
<mgrwt>
<rscale>  0 0.30371620E+04</rscale>
<asrwt>0</asrwt>
<pdfrwt beam="1">  1        2 0.38193872E+00 0.30371620E+04</pdfrwt>
<pdfrwt beam="2">  1       -2 0.14290767E+00 0.30371620E+04</pdfrwt>
<totfact> 0.10348362E+00</totfact>
</mgrwt>
</event>
<event>
 6    1  0.4630212E-004  0.1306619E+04  0.7818608E-02  0.9024332E-01
          2   -1    0    0  501    0  0.00000000000E+00  0.00000000000E+00  0.11989057946E+04  0.11989057946E+04  0.00000000000E+00 0.  1.
         -2   -1    0    0    0  501 -0.00000000000E+00 -0.00000000000E+00 -0.35600263449E+03  0.35600263449E+03  0.00000000000E+00 0. -1.
         23    2    1    2    0    0 -0.20039762046E+02  0.23812881960E+03 -0.29566705677E+03  0.39153013053E+03  0.93647786232E+02 0.  0.
         11    1    3    3    0    0  0.31274854022E+02  0.41288184846E+02 -0.77757894927E+02  0.93429764665E+02  0.00000000000E+00 0. -1.
        -11    1    3    3    0    0 -0.51314616069E+02  0.19684063476E+03 -0.21790916184E+03  0.29810036586E+03  0.00000000000E+00 0.  1.
         22    1    1    2    0    0  0.20039762046E+02 -0.23812881960E+03  0.11385702169E+04  0.11633782986E+04  0.00000000000E+00 0.  1.
<mgrwt>
<rscale>  0 0.13066195E+04</rscale>
<asrwt>0</asrwt>
<pdfrwt beam="1">  1        2 0.18444704E+00 0.13066195E+04</pdfrwt>
<pdfrwt beam="2">  1       -2 0.54769637E-01 0.13066195E+04</pdfrwt>
<totfact> 0.58280002E+01</totfact>
</mgrwt>
</event>
<event>
 6    1  0.4630212E-004  0.3248502E+04  0.7818608E-02  0.8176124E-01
          2   -1    0    0  501    0  0.00000000000E+00  0.00000000000E+00  0.13302546332E+04  0.13302546332E+04  0.00000000000E+00 0.  1.
         -2   -1    0    0    0  501 -0.00000000000E+00 -0.00000000000E+00 -0.19832232758E+04  0.19832232758E+04  0.00000000000E+00 0. -1.
         23    2    1    2    0    0  0.17784214897E+02  0.15951219139E+04 -0.63141258424E+03  0.17181112233E+04  0.92163580400E+02 0.  0.
         13    1    3    3    0    0  0.16292343537E+02  0.90037359812E+03 -0.40497001795E+03  0.98738987846E+03  0.00000000000E+00 0. -1.
        -13    1    3    3    0    0  0.14918713596E+01  0.69474831575E+03 -0.22644256628E+03  0.73072134480E+03  0.00000000000E+00 0.  1.
         22    1    1    2    0    0 -0.17784214897E+02 -0.15951219139E+04 -0.21556058354E+02  0.15953666858E+04  0.00000000000E+00 0.  1.
<mgrwt>
<rscale>  0 0.32485024E+04</rscale>
<asrwt>0</asrwt>
<pdfrwt beam="1">  1        2 0.20465456E+00 0.32485024E+04</pdfrwt>
<pdfrwt beam="2">  1       -2 0.30511127E+00 0.32485024E+04</pdfrwt>
<totfact> 0.39366115E-01</totfact>
</mgrwt>
</event>
<event>
 6    1  0.4630212E-004  0.1964482E+04  0.7818608E-02  0.8623409E-01
          2   -1    0    0  501    0  0.00000000000E+00  0.00000000000E+00  0.14850062788E+04  0.14850062788E+04  0.00000000000E+00 0.  1.
         -2   -1    0    0    0  501 -0.00000000000E+00 -0.00000000000E+00 -0.64969275267E+03  0.64969275267E+03  0.00000000000E+00 0. -1.
         23    2    1    2    0    0  0.76626274718E+03  0.53030240384E+03  0.88402310557E+02  0.94043959517E+03  0.90732719691E+02 0.  0.
         13    1    3    3    0    0  0.60149383474E+03  0.45764060834E+03  0.82190249643E+02  0.76025324515E+03  0.00000000000E+00 0. -1.
        -13    1    3    3    0    0  0.16476891244E+03  0.72661795501E+02  0.62120609141E+01  0.18018635002E+03  0.00000000000E+00 0.  1.
         22    1    1    2    0    0 -0.76626274718E+03 -0.53030240384E+03  0.74691121556E+03  0.11942594363E+04  0.00000000000E+00 0.  1.
<mgrwt>
<rscale>  0 0.19644824E+04</rscale>
<asrwt>0</asrwt>
<pdfrwt beam="1">  1        2 0.22846250E+00 0.19644824E+04</pdfrwt>
<pdfrwt beam="2">  1       -2 0.99952732E-01 0.19644824E+04</pdfrwt>
<totfact> 0.99744398E+00</totfact>
</mgrwt>
</event>
<event>
 6    1  0.4630212E-004  0.3019004E+04  0.7818608E-02  0.8238325E-01
          1   -1    0    0  501    0  0.00000000000E+00  0.00000000000E+00  0.16759591963E+04  0.16759591963E+04  0.00000000000E+00 0.  1.
         -1   -1    0    0    0  501 -0.00000000000E+00 -0.00000000000E+00 -0.13595773846E+04  0.13595773846E+04  0.00000000000E+00 0. -1.
         23    2    1    2    0    0  0.11456323877E+03  0.29968503338E+03  0.16400233903E+04  0.16735663597E+04  0.90618897540E+02 0.  0.
         13    1    3    3    0    0  0.56809855866E+02  0.23816851215E+03  0.10942884695E+04  0.11213468930E+04  0.00000000000E+00 0. -1.
        -13    1    3    3    0    0  0.57753382903E+02  0.61516521230E+02  0.54573492078E+03  0.55221946668E+03  0.00000000000E+00 0.  1.
         22    1    1    2    0    0 -0.11456323877E+03 -0.29968503338E+03 -0.13236415786E+04  0.13619702212E+04  0.00000000000E+00 0. -1.
<mgrwt>
<rscale>  0 0.30190040E+04</rscale>
<asrwt>0</asrwt>
<pdfrwt beam="1">  1        1 0.25783988E+00 0.30190040E+04</pdfrwt>
<pdfrwt beam="2">  1       -1 0.20916575E+00 0.30190040E+04</pdfrwt>
<totfact> 0.54781202E-01</totfact>
</mgrwt>
</event>
<event>
 6    1  0.4630212E-004  0.2959035E+04  0.7818608E-02  0.8255526E-01
         -2   -1    0    0    0  501 -0.00000000000E+00  0.00000000000E+00  0.20590114911E+04  0.20590114911E+04  0.00000000000E+00 0. -1.
          2   -1    0    0  501    0  0.00000000000E+00 -0.00000000000E+00 -0.10631176873E+04  0.10631176873E+04  0.00000000000E+00 0.  1.
         23    2    1    2    0    0  0.74458110935E+03  0.59996956871E+03  0.16876556608E+04  0.19419177658E+04  0.92187134054E+02 0.  0.
         13    1    3    3    0    0  0.55055091096E+03  0.41079241110E+03  0.11419613832E+04  0.13326411787E+04  0.00000000000E+00 0. -1.
        -13    1    3    3    0    0  0.19403019839E+03  0.18917715761E+03  0.54569427764E+03  0.60927658702E+03  0.00000000000E+00 0.  1.
         22    1    1    2    0    0 -0.74458110935E+03 -0.59996956871E+03 -0.69176185694E+03  0.11802114126E+04  0.00000000000E+00 0.  1.
<mgrwt>
<rscale>  0 0.29590347E+04</rscale>
<asrwt>0</asrwt>
<pdfrwt beam="1">  1        2 0.16355657E+00 0.29590347E+04</pdfrwt>
<pdfrwt beam="2">  1       -2 0.31677100E+00 0.29590347E+04</pdfrwt>
<totfact> 0.49449649E-01</totfact>
</mgrwt>
</event>
<event>
 6    1  0.4630212E-004  0.2298242E+04  0.7818608E-02  0.8478614E-01
         -2   -1    0    0    0  501 -0.00000000000E+00  0.00000000000E+00  0.39918721516E+03  0.39918721516E+03  0.00000000000E+00 0. -1.
          2   -1    0    0  501    0  0.00000000000E+00 -0.00000000000E+00 -0.33079200963E+04  0.33079200963E+04  0.00000000000E+00 0.  1.
         23    2    1    2    0    0  0.63536455465E+03  0.51400027856E+03 -0.15727121238E+03  0.83684151919E+03  0.87664646988E+02 0.  0.
         13    1    3    3    0    0  0.27326170550E+03  0.21236399355E+03 -0.23158610006E+02  0.34685262961E+03  0.00000000000E+00 0. -1.
        -13    1    3    3    0    0  0.36210284915E+03  0.30163628501E+03 -0.13411260237E+03  0.48998888958E+03  0.00000000000E+00 0.  1.
         22    1    1    2    0    0 -0.63536455465E+03 -0.51400027856E+03 -0.27514616688E+04  0.28702657923E+04  0.00000000000E+00 0.  1.
<mgrwt>
<rscale>  0 0.22982423E+04</rscale>
<asrwt>0</asrwt>
<pdfrwt beam="1">  1        2 0.50891080E+00 0.22982423E+04</pdfrwt>
<pdfrwt beam="2">  1       -2 0.61413416E-01 0.22982423E+04</pdfrwt>
<totfact> 0.24640533E+00</totfact>
</mgrwt>
</event>
<event>
 6    1  0.4630212E-004  0.3076171E+04  0.7818608E-02  0.8222308E-01
         -2   -1    0    0    0  501 -0.00000000000E+00  0.00000000000E+00  0.84190297503E+03  0.84190297503E+03  0.00000000000E+00 0.  1.
          2   -1    0    0  501    0  0.00000000000E+00 -0.00000000000E+00 -0.28099516501E+04  0.28099516501E+04  0.00000000000E+00 0. -1.
         23    2    1    2    0    0  0.15203005638E+03 -0.14651371282E+04 -0.46488188296E+03  0.15472762000E+04  0.90600945744E+02 0.  0.
         13    1    3    3    0    0  0.58086562969E+02 -0.46401782098E+03 -0.10487861907E+03  0.47925578945E+03  0.00000000000E+00 0.  1.
        -13    1    3    3    0    0  0.93943493411E+02 -0.10011193073E+04 -0.36000326389E+03  0.10680204106E+04  0.00000000000E+00 0. -1.
         22    1    1    2    0    0 -0.15203005638E+03  0.14651371282E+04 -0.15031667921E+04  0.21045784251E+04  0.00000000000E+00 0. -1.
<mgrwt>
<rscale>  0 0.30761708E+04</rscale>
<asrwt>0</asrwt>
<pdfrwt beam="1">  1        2 0.43230026E+00 0.30761708E+04</pdfrwt>
<pdfrwt beam="2">  1       -2 0.12952353E+00 0.30761708E+04</pdfrwt>
<totfact> 0.85000987E-01</totfact>
</mgrwt>
</event>
<event>
 6    1  0.4630212E-004  0.2839177E+04  0.7818608E-02  0.8291208E-01
          2   -1    0    0  501    0  0.00000000000E+00  0.00000000000E+00  0.17819010002E+04  0.17819010002E+04  0.00000000000E+00 0.  1.
         -2   -1    0    0    0  501 -0.00000000000E+00 -0.00000000000E+00 -0.11309443990E+04  0.11309443990E+04  0.00000000000E+00 0. -1.
         23    2    1    2    0    0  0.62743269566E+03 -0.68672403757E+03  0.14240532616E+04  0.17033247761E+04  0.90143828547E+02 0.  0.
         13    1    3    3    0    0  0.74318018177E+02 -0.12877059318E+03  0.24045814419E+03  0.28271036875E+03  0.00000000000E+00 0. -1.
        -13    1    3    3    0    0  0.55311467748E+03 -0.55795344438E+03  0.11835951174E+04  0.14206144074E+04  0.00000000000E+00 0.  1.
         22    1    1    2    0    0 -0.62743269566E+03  0.68672403757E+03 -0.77309666038E+03  0.12095206231E+04  0.00000000000E+00 0. -1.
<mgrwt>
<rscale>  0 0.28391766E+04</rscale>
<asrwt>0</asrwt>
<pdfrwt beam="1">  1        2 0.27413862E+00 0.28391766E+04</pdfrwt>
<pdfrwt beam="2">  1       -2 0.17399145E+00 0.28391766E+04</pdfrwt>
<totfact> 0.15299643E+00</totfact>
</mgrwt>
</event>
<event>
 6    1  0.4630212E-004  0.3077335E+04  0.7818608E-02  0.8221986E-01
         -2   -1    0    0    0  501 -0.00000000000E+00  0.00000000000E+00  0.13049183701E+04  0.13049183701E+04  0.00000000000E+00 0. -1.
          2   -1    0    0  501    0  0.00000000000E+00 -0.00000000000E+00 -0.18142883626E+04  0.18142883626E+04  0.00000000000E+00 0.  1.
         23    2    1    2    0    0  0.40138087408E+03  0.14034762489E+04  0.23386854785E+03  0.14811421079E+04  0.90748327871E+02 0.  0.
         11    1    3    3    0    0  0.27697086283E+03  0.10495256768E+04  0.14043107090E+03  0.10945034905E+04  0.00000000000E+00 0.  1.
        -11    1    3    3    0    0  0.12441001125E+03  0.35395057207E+03  0.93437476948E+02  0.38663861740E+03  0.00000000000E+00 0. -1.
         22    1    1    2    0    0 -0.40138087408E+03 -0.14034762489E+04 -0.74323854035E+03  0.16380646248E+04  0.00000000000E+00 0.  1.
<mgrwt>
<rscale>  0 0.30773353E+04</rscale>
<asrwt>0</asrwt>
<pdfrwt beam="1">  1        2 0.27912129E+00 0.30773353E+04</pdfrwt>
<pdfrwt beam="2">  1       -2 0.20075667E+00 0.30773353E+04</pdfrwt>
<totfact> 0.94770103E-01</totfact>
</mgrwt>
</event>
<event>
 6    1  0.4630212E-004  0.2561001E+04  0.7818608E-02  0.8381570E-01
         -2   -1    0    0    0  501 -0.00000000000E+00  0.00000000000E+00  0.11797787786E+04  0.11797787786E+04  0.00000000000E+00 0. -1.
          2   -1    0    0  501    0  0.00000000000E+00 -0.00000000000E+00 -0.13898216136E+04  0.13898216136E+04  0.00000000000E+00 0.  1.
         23    2    1    2    0    0 -0.11049462634E+04  0.47776620753E+03 -0.53784256492E+03  0.13219548267E+04  0.95515156675E+02 0.  0.
         11    1    3    3    0    0 -0.89531139119E+03  0.36009448142E+03 -0.39823016877E+03  0.10439529635E+04  0.00000000000E+00 0. -1.
        -11    1    3    3    0    0 -0.20963487222E+03  0.11767172611E+03 -0.13961239615E+03  0.27800186319E+03  0.00000000000E+00 0.  1.
         22    1    1    2    0    0  0.11049462634E+04 -0.47776620753E+03  0.32779972995E+03  0.12476455655E+04  0.00000000000E+00 0.  1.
<mgrwt>
<rscale>  0 0.25610014E+04</rscale>
<asrwt>0</asrwt>
<pdfrwt beam="1">  1        2 0.21381871E+00 0.25610014E+04</pdfrwt>
<pdfrwt beam="2">  1       -2 0.18150443E+00 0.25610014E+04</pdfrwt>
<totfact> 0.23045194E+00</totfact>
</mgrwt>
</event>
<event>
 6    1  0.4630212E-004  0.3729766E+04  0.7818608E-02  0.8061397E-01
         -2   -1    0    0    0  501 -0.00000000000E+00  0.00000000000E+00  0.18957785418E+04  0.18957785418E+04  0.00000000000E+00 0. -1.
          2   -1    0    0  501    0  0.00000000000E+00 -0.00000000000E+00 -0.18344911122E+04  0.18344911122E+04  0.00000000000E+00 0.  1.
         23    2    1    2    0    0  0.95717360627E+03  0.15072525698E+04 -0.50378393856E+03  0.18574916979E+04  0.92116932557E+02 0.  0.
         13    1    3    3    0    0  0.53414870667E+03  0.90949164893E+03 -0.26964006763E+03  0.10886669217E+04  0.00000000000E+00 0.  1.
        -13    1    3    3    0    0  0.42302489960E+03  0.59776092085E+03 -0.23414387093E+03  0.76882477618E+03  0.00000000000E+00 0. -1.
         22    1    1    2    0    0 -0.95717360627E+03 -0.15072525698E+04  0.56507136820E+03  0.18727779561E+04  0.00000000000E+00 0. -1.
<mgrwt>
<rscale>  0 0.37297662E+04</rscale>
<asrwt>0</asrwt>
<pdfrwt beam="1">  1        2 0.28222940E+00 0.37297662E+04</pdfrwt>
<pdfrwt beam="2">  1       -2 0.29165824E+00 0.37297662E+04</pdfrwt>
<totfact> 0.23801071E-01</totfact>
</mgrwt>
</event>
<event>
 6    1  0.4630212E-004  0.4672804E+04  0.7818608E-02  0.7881063E-01
          2   -1    0    0  501    0  0.00000000000E+00  0.00000000000E+00  0.33309685552E+04  0.33309685552E+04  0.00000000000E+00 0.  1.
         -2   -1    0    0    0  501 -0.00000000000E+00 -0.00000000000E+00 -0.16387952264E+04  0.16387952264E+04  0.00000000000E+00 0. -1.
         23    2    1    2    0    0  0.30534407880E+03  0.89635584557E+03 -0.14237859883E+04  0.17130950428E+04  0.10411184867E+03 0.  0.
         13    1    3    3    0    0  0.23509247204E+03  0.62130947868E+03 -0.10707998807E+04  0.12601215510E+04  0.00000000000E+00 0. -1.
        -13    1    3    3    0    0  0.70251606756E+02  0.27504636689E+03 -0.35298610755E+03  0.45297349185E+03  0.00000000000E+00 0.  1.
         22    1    1    2    0    0 -0.30534407880E+03 -0.89635584557E+03  0.31159593171E+04  0.32566687388E+04  0.00000000000E+00 0.  1.
<mgrwt>
<rscale>  0 0.46728045E+04</rscale>
<asrwt>0</asrwt>
<pdfrwt beam="1">  1        2 0.51245670E+00 0.46728045E+04</pdfrwt>
<pdfrwt beam="2">  1       -2 0.25212234E+00 0.46728045E+04</pdfrwt>
<totfact> 0.49411677E-02</totfact>
</mgrwt>
</event>
<event>
 6    1  0.4630212E-004  0.1586463E+04  0.7818608E-02  0.8828908E-01
          2   -1    0    0  501    0  0.00000000000E+00  0.00000000000E+00  0.80612817506E+03  0.80612817506E+03  0.00000000000E+00 0.  1.
         -2   -1    0    0    0  501 -0.00000000000E+00 -0.00000000000E+00 -0.78054137656E+03  0.78054137656E+03  0.00000000000E+00 0. -1.
         23    2    1    2    0    0  0.36346990029E+03  0.46256200189E+03 -0.51555057727E+03  0.78735507441E+03  0.89786644190E+02 0.  0.
         11    1    3    3    0    0  0.33659864503E+03  0.40469628163E+03 -0.42474637685E+03  0.67637801032E+03  0.00000000000E+00 0.  1.
        -11    1    3    3    0    0  0.26871255260E+02  0.57865720259E+02 -0.90804200426E+02  0.11097706410E+03  0.00000000000E+00 0. -1.
         22    1    1    2    0    0 -0.36346990029E+03 -0.46256200189E+03  0.54113737578E+03  0.79931447720E+03  0.00000000000E+00 0.  1.
<mgrwt>
<rscale>  0 0.15864632E+04</rscale>
<asrwt>0</asrwt>
<pdfrwt beam="1">  1        2 0.12401972E+00 0.15864632E+04</pdfrwt>
<pdfrwt beam="2">  1       -2 0.12008329E+00 0.15864632E+04</pdfrwt>
<totfact> 0.17348938E+01</totfact>
</mgrwt>
</event>
<event>
 6    1  0.4630212E-004  0.4740019E+03  0.7818608E-02  0.1020797E+00
         -2   -1    0    0    0  501 -0.00000000000E+00  0.00000000000E+00  0.10884677154E+03  0.10884677154E+03  0.00000000000E+00 0. -1.
          2   -1    0    0  501    0  0.00000000000E+00 -0.00000000000E+00 -0.51604144122E+03  0.51604144122E+03  0.00000000000E+00 0.  1.
         23    2    1    2    0    0 -0.19666728394E+03 -0.14268968678E+02 -0.59038845750E+02  0.22477060283E+03  0.90302904422E+02 0.  0.
         13    1    3    3    0    0 -0.71717930554E+02 -0.47077810468E+02 -0.91050818702E+01  0.86270993488E+02  0.00000000000E+00 0. -1.
        -13    1    3    3    0    0 -0.12494935339E+03  0.32808841790E+02 -0.49933763880E+02  0.13849960934E+03  0.00000000000E+00 0.  1.
         22    1    1    2    0    0  0.19666728394E+03  0.14268968678E+02 -0.34815582393E+03  0.40011760994E+03  0.00000000000E+00 0.  1.
<mgrwt>
<rscale>  0 0.47400188E+03</rscale>
<asrwt>0</asrwt>
<pdfrwt beam="1">  1        2 0.79390992E-01 0.47400188E+03</pdfrwt>
<pdfrwt beam="2">  1       -2 0.16745657E-01 0.47400188E+03</pdfrwt>
<totfact> 0.17187807E+03</totfact>
</mgrwt>
</event>
<event>
 6    1  0.4630212E-004  0.1344106E+04  0.7818608E-02  0.8995302E-01
         -2   -1    0    0    0  501 -0.00000000000E+00  0.00000000000E+00  0.25489364483E+03  0.25489364483E+03  0.00000000000E+00 0. -1.
          2   -1    0    0  501    0  0.00000000000E+00 -0.00000000000E+00 -0.17719351114E+04  0.17719351114E+04  0.00000000000E+00 0.  1.
         23    2    1    2    0    0  0.33176062119E+03 -0.22681935174E+03  0.42915446142E+02  0.41593530922E+03  0.98225851174E+02 0.  0.
         11    1    3    3    0    0  0.18672960723E+03 -0.12114112332E+03 -0.25176121617E+02  0.22400213186E+03  0.00000000000E+00 0.  1.
        -11    1    3    3    0    0  0.14503101396E+03 -0.10567822843E+03  0.68091567759E+02  0.19193317736E+03  0.00000000000E+00 0. -1.
         22    1    1    2    0    0 -0.33176062119E+03  0.22681935174E+03 -0.15599569127E+04  0.16108934470E+04  0.00000000000E+00 0.  1.
<mgrwt>
<rscale>  0 0.13441056E+04</rscale>
<asrwt>0</asrwt>
<pdfrwt beam="1">  1        2 0.27260540E+00 0.13441056E+04</pdfrwt>
<pdfrwt beam="2">  1       -2 0.39214408E-01 0.13441056E+04</pdfrwt>
<totfact> 0.53736509E+01</totfact>
</mgrwt>
</event>
<event>
 6    1  0.4630212E-004  0.4043749E+04  0.7818608E-02  0.7995779E-01
         -2   -1    0    0    0  501 -0.00000000000E+00  0.00000000000E+00  0.99273094205E+03  0.99273094205E+03  0.00000000000E+00 0. -1.
          2   -1    0    0  501    0  0.00000000000E+00 -0.00000000000E+00 -0.41179107233E+04  0.41179107233E+04  0.00000000000E+00 0.  1.
         23    2    1    2    0    0  0.69010196091E+03 -0.15397356103E+04 -0.29689125381E+04  0.34161075355E+04  0.91228118495E+02 0.  0.
         13    1    3    3    0    0  0.36473309163E+03 -0.86846151481E+03 -0.15767691365E+04  0.18366971826E+04  0.00000000000E+00 0.  1.
        -13    1    3    3    0    0  0.32536886928E+03 -0.67127409545E+03 -0.13921434016E+04  0.15794103529E+04  0.00000000000E+00 0. -1.
         22    1    1    2    0    0 -0.69010196091E+03  0.15397356103E+04 -0.15626724322E+03  0.16945341299E+04  0.00000000000E+00 0. -1.
<mgrwt>
<rscale>  0 0.40437494E+04</rscale>
<asrwt>0</asrwt>
<pdfrwt beam="1">  1        2 0.63352470E+00 0.40437494E+04</pdfrwt>
<pdfrwt beam="2">  1       -2 0.15272784E+00 0.40437494E+04</pdfrwt>
<totfact> 0.61100211E-02</totfact>
</mgrwt>
</event>
<event>
 6    1  0.4630212E-004  0.1486887E+04  0.7818608E-02  0.8893220E-01
          2   -1    0    0  501    0  0.00000000000E+00  0.00000000000E+00  0.16268286348E+04  0.16268286348E+04  0.00000000000E+00 0.  1.
         -2   -1    0    0    0  501 -0.00000000000E+00 -0.00000000000E+00 -0.33974601443E+03  0.33974601443E+03  0.00000000000E+00 0. -1.
         23    2    1    2    0    0  0.40563667008E+03  0.55429176640E+02 -0.17043181240E+03  0.45265198822E+03  0.90737632894E+02 0.  0.
         13    1    3    3    0    0  0.60039023456E+02  0.41159820288E+02 -0.39407223428E+02  0.82775264433E+02  0.00000000000E+00 0. -1.
        -13    1    3    3    0    0  0.34559764663E+03  0.14269356353E+02 -0.13102458898E+03  0.36987672379E+03  0.00000000000E+00 0.  1.
         22    1    1    2    0    0 -0.40563667008E+03 -0.55429176640E+02  0.14575144328E+04  0.15139226610E+04  0.00000000000E+00 0.  1.
<mgrwt>
<rscale>  0 0.14868874E+04</rscale>
<asrwt>0</asrwt>
<pdfrwt beam="1">  1        2 0.25028132E+00 0.14868874E+04</pdfrwt>
<pdfrwt beam="2">  1       -2 0.52268618E-01 0.14868874E+04</pdfrwt>
<totfact> 0.35991124E+01</totfact>
</mgrwt>
</event>
<event>
 6    1  0.4630212E-004  0.4901110E+04  0.7818608E-02  0.7843946E-01
         -2   -1    0    0    0  501 -0.00000000000E+00  0.00000000000E+00  0.30030676641E+04  0.30030676641E+04  0.00000000000E+00 0. -1.
          2   -1    0    0  501    0  0.00000000000E+00 -0.00000000000E+00 -0.19996953718E+04  0.19996953718E+04  0.00000000000E+00 0.  1.
         23    2    1    2    0    0 -0.12198813886E+03 -0.18716241765E+04 -0.11066085685E+04  0.21796659073E+04  0.92210519234E+02 0.  0.
         11    1    3    3    0    0 -0.32124389340E+02 -0.65506468985E+03 -0.33775271086E+03  0.73771174450E+03  0.00000000000E+00 0.  1.
        -11    1    3    3    0    0 -0.89863749524E+02 -0.12165594866E+04 -0.76885585762E+03  0.14419541628E+04  0.00000000000E+00 0. -1.
         22    1    1    2    0    0  0.12198813886E+03  0.18716241765E+04  0.21099808608E+04  0.28230971285E+04  0.00000000000E+00 0. -1.
<mgrwt>
<rscale>  0 0.49011103E+04</rscale>
<asrwt>0</asrwt>
<pdfrwt beam="1">  1        2 0.30764544E+00 0.49011103E+04</pdfrwt>
<pdfrwt beam="2">  1       -2 0.46201041E+00 0.49011103E+04</pdfrwt>
<totfact> 0.14230374E-02</totfact>
</mgrwt>
</event>
<event>
 6    1  0.4630212E-004  0.7968473E+03  0.7818608E-02  0.9564592E-01
          2   -1    0    0  501    0  0.00000000000E+00  0.00000000000E+00  0.65957829326E+03  0.65957829326E+03  0.00000000000E+00 0.  1.
         -2   -1    0    0    0  501 -0.00000000000E+00 -0.00000000000E+00 -0.24067107749E+03  0.24067107749E+03  0.00000000000E+00 0. -1.
         23    2    1    2    0    0  0.27826956124E+03 -0.14524954902E+03 -0.52010853086E+02  0.33430307668E+03  0.10257698591E+03 0.  0.
         13    1    3    3    0    0  0.17482811231E+03 -0.14399721177E+03 -0.42165338217E+02  0.23038659162E+03  0.00000000000E+00 0.  1.
        -13    1    3    3    0    0  0.10344144893E+03 -0.12523372565E+01 -0.98455148693E+01  0.10391648507E+03  0.00000000000E+00 0. -1.
         22    1    1    2    0    0 -0.27826956124E+03  0.14524954902E+03  0.47091806885E+03  0.56594629407E+03  0.00000000000E+00 0.  1.
<mgrwt>
<rscale>  0 0.79684733E+03</rscale>
<asrwt>0</asrwt>
<pdfrwt beam="1">  1        2 0.10147358E+00 0.79684733E+03</pdfrwt>
<pdfrwt beam="2">  1       -2 0.37026320E-01 0.79684733E+03</pdfrwt>
<totfact> 0.30520398E+02</totfact>
</mgrwt>
</event>
<event>
 6    1  0.4630212E-004  0.7216441E+03  0.7818608E-02  0.9680917E-01
          2   -1    0    0  501    0  0.00000000000E+00  0.00000000000E+00  0.30703773165E+03  0.30703773165E+03  0.00000000000E+00 0.  1.
         -2   -1    0    0    0  501 -0.00000000000E+00 -0.00000000000E+00 -0.42402787572E+03  0.42402787572E+03  0.00000000000E+00 0. -1.
         23    2    1    2    0    0 -0.20395603471E+03 -0.20274328980E+03  0.15465006700E+03  0.33547578201E+03  0.76970458223E+02 0.  0.
         13    1    3    3    0    0 -0.13738486037E+03 -0.83587159163E+02  0.75001139850E+02  0.17744459421E+03  0.00000000000E+00 0.  1.
        -13    1    3    3    0    0 -0.66571174341E+02 -0.11915613064E+03  0.79648927150E+02  0.15803118780E+03  0.00000000000E+00 0. -1.
         22    1    1    2    0    0  0.20395603471E+03  0.20274328980E+03 -0.27164021107E+03  0.39558982536E+03  0.00000000000E+00 0. -1.
<mgrwt>
<rscale>  0 0.72164411E+03</rscale>
<asrwt>0</asrwt>
<pdfrwt beam="1">  1        2 0.47236574E-01 0.72164411E+03</pdfrwt>
<pdfrwt beam="2">  1       -2 0.65235058E-01 0.72164411E+03</pdfrwt>
<totfact> 0.23396970E+02</totfact>
</mgrwt>
</event>
<event>
 6    1  0.4630212E-004  0.1860004E+04  0.7818608E-02  0.8675025E-01
         -2   -1    0    0    0  501 -0.00000000000E+00  0.00000000000E+00  0.10297011560E+04  0.10297011560E+04  0.00000000000E+00 0. -1.
          2   -1    0    0  501    0  0.00000000000E+00 -0.00000000000E+00 -0.83995623161E+03  0.83995623161E+03  0.00000000000E+00 0.  1.
         23    2    1    2    0    0  0.16231257371E+03 -0.21590947905E+03  0.98739519117E+03  0.10275123747E+04  0.88713820612E+02 0.  0.
         13    1    3    3    0    0  0.23868874296E+02 -0.10278084761E+03  0.36284932150E+03  0.37787994907E+03  0.00000000000E+00 0. -1.
        -13    1    3    3    0    0  0.13844369942E+03 -0.11312863144E+03  0.62454586966E+03  0.64963242566E+03  0.00000000000E+00 0.  1.
         22    1    1    2    0    0 -0.16231257371E+03  0.21590947905E+03 -0.79765026674E+03  0.84214501291E+03  0.00000000000E+00 0.  1.
<mgrwt>
<rscale>  0 0.18600042E+04</rscale>
<asrwt>0</asrwt>
<pdfrwt beam="1">  1        2 0.12922404E+00 0.18600042E+04</pdfrwt>
<pdfrwt beam="2">  1       -2 0.15841556E+00 0.18600042E+04</pdfrwt>
<totfact> 0.78409276E+00</totfact>
</mgrwt>
</event>
<event>
 6    1  0.4630212E-004  0.1653093E+04  0.7818608E-02  0.8788579E-01
         -2   -1    0    0    0  501 -0.00000000000E+00  0.00000000000E+00  0.84481631089E+03  0.84481631089E+03  0.00000000000E+00 0. -1.
          2   -1    0    0  501    0  0.00000000000E+00 -0.00000000000E+00 -0.80867206115E+03  0.80867206115E+03  0.00000000000E+00 0.  1.
         23    2    1    2    0    0  0.23120118162E+03  0.72048817798E+03  0.34449105785E+03  0.83639905314E+03  0.91280261604E+02 0.  0.
         11    1    3    3    0    0  0.59867758206E+02  0.94351461697E+02  0.33925379180E+02  0.11677875727E+03  0.00000000000E+00 0. -1.
        -11    1    3    3    0    0  0.17133342342E+03  0.62613671628E+03  0.31056567867E+03  0.71962029587E+03  0.00000000000E+00 0.  1.
         22    1    1    2    0    0 -0.23120118162E+03 -0.72048817798E+03 -0.30834680811E+03  0.81708931890E+03  0.00000000000E+00 0.  1.
<mgrwt>
<rscale>  0 0.16530933E+04</rscale>
<asrwt>0</asrwt>
<pdfrwt beam="1">  1        2 0.12441109E+00 0.16530933E+04</pdfrwt>
<pdfrwt beam="2">  1       -2 0.12997174E+00 0.16530933E+04</pdfrwt>
<totfact> 0.14088130E+01</totfact>
</mgrwt>
</event>
<event>
 6    1  0.4630212E-004  0.8272123E+03  0.7818608E-02  0.9521443E-01
         -2   -1    0    0    0  501 -0.00000000000E+00  0.00000000000E+00  0.83789374382E+02  0.83789374382E+02  0.00000000000E+00 0. -1.
          2   -1    0    0  501    0  0.00000000000E+00 -0.00000000000E+00 -0.20416674307E+04  0.20416674307E+04  0.00000000000E+00 0.  1.
         23    2    1    2    0    0 -0.96153572914E+01 -0.39994972598E+03 -0.11950548638E+04  0.12640907613E+04  0.98575284990E+02 0.  0.
         13    1    3    3    0    0  0.24997055328E+02 -0.29280836515E+03 -0.94983015532E+03  0.99425294338E+03  0.00000000000E+00 0.  1.
        -13    1    3    3    0    0 -0.34612412620E+02 -0.10714136083E+03 -0.24522470851E+03  0.26983781791E+03  0.00000000000E+00 0. -1.
         22    1    1    2    0    0  0.96153572914E+01  0.39994972598E+03 -0.76282319254E+03  0.86136604384E+03  0.00000000000E+00 0.  1.
<mgrwt>
<rscale>  0 0.82721227E+03</rscale>
<asrwt>0</asrwt>
<pdfrwt beam="1">  1        2 0.31410268E+00 0.82721227E+03</pdfrwt>
<pdfrwt beam="2">  1       -2 0.12890673E-01 0.82721227E+03</pdfrwt>
<totfact> 0.29151892E+02</totfact>
</mgrwt>
</event>
<event>
 6    1  0.4630212E-004  0.1312630E+04  0.7818608E-02  0.9019609E-01
         -2   -1    0    0    0  501 -0.00000000000E+00  0.00000000000E+00  0.57794241487E+03  0.57794241487E+03  0.00000000000E+00 0. -1.
          2   -1    0    0  501    0  0.00000000000E+00 -0.00000000000E+00 -0.74531571900E+03  0.74531571900E+03  0.00000000000E+00 0.  1.
         23    2    1    2    0    0  0.32224523754E+03  0.56314998216E+03 -0.15832852867E+03  0.67436545902E+03  0.93386047149E+02 0.  0.
         13    1    3    3    0    0  0.12836109443E+03  0.17447312572E+03 -0.90500196788E+02  0.23475035204E+03  0.00000000000E+00 0. -1.
        -13    1    3    3    0    0  0.19388414310E+03  0.38867685644E+03 -0.67828331882E+02  0.43961510698E+03  0.00000000000E+00 0.  1.
         22    1    1    2    0    0 -0.32224523754E+03 -0.56314998216E+03 -0.90447754651E+01  0.64889267486E+03  0.00000000000E+00 0.  1.
<mgrwt>
<rscale>  0 0.13126303E+04</rscale>
<asrwt>0</asrwt>
<pdfrwt beam="1">  1        2 0.11466396E+00 0.13126303E+04</pdfrwt>
<pdfrwt beam="2">  1       -2 0.88914218E-01 0.13126303E+04</pdfrwt>
<totfact> 0.40254085E+01</totfact>
</mgrwt>
</event>
<event>
 6    1  0.4630212E-004  0.3604684E+04  0.7818608E-02  0.8089420E-01
         -2   -1    0    0    0  501 -0.00000000000E+00  0.00000000000E+00  0.20384044213E+04  0.20384044213E+04  0.00000000000E+00 0. -1.
          2   -1    0    0  501    0  0.00000000000E+00 -0.00000000000E+00 -0.15936170424E+04  0.15936170424E+04  0.00000000000E+00 0.  1.
         23    2    1    2    0    0  0.87335588732E+03 -0.11573438239E+04  0.12993650760E+04  0.19490187087E+04  0.90161483769E+02 0.  0.
         13    1    3    3    0    0  0.22626209177E+03 -0.24170877642E+03  0.31553703894E+03  0.45736341099E+03  0.00000000000E+00 0. -1.
        -13    1    3    3    0    0  0.64709379555E+03 -0.91563504752E+03  0.98382803710E+03  0.14916552977E+04  0.00000000000E+00 0.  1.
         22    1    1    2    0    0 -0.87335588732E+03  0.11573438239E+04 -0.85457769717E+03  0.16830027550E+04  0.00000000000E+00 0. -1.
<mgrwt>
<rscale>  0 0.36046836E+04</rscale>
<asrwt>0</asrwt>
<pdfrwt beam="1">  1        2 0.24517185E+00 0.36046836E+04</pdfrwt>
<pdfrwt beam="2">  1       -2 0.31360068E+00 0.36046836E+04</pdfrwt>
<totfact> 0.24018299E-01</totfact>
</mgrwt>
</event>
<event>
 6    1  0.4630212E-004  0.1918627E+04  0.7818608E-02  0.8645640E-01
          2   -1    0    0  501    0  0.00000000000E+00  0.00000000000E+00  0.24893830891E+04  0.24893830891E+04  0.00000000000E+00 0.  1.
         -2   -1    0    0    0  501 -0.00000000000E+00 -0.00000000000E+00 -0.36968291437E+03  0.36968291437E+03  0.00000000000E+00 0. -1.
         23    2    1    2    0    0  0.34150856537E+03 -0.40599207085E+03  0.22494486598E+04  0.23129045519E+04  0.89724754481E+02 0.  0.
         13    1    3    3    0    0  0.17156773659E+03 -0.19102314304E+03  0.12785052295E+04  0.13040325729E+04  0.00000000000E+00 0.  1.
        -13    1    3    3    0    0  0.16994082878E+03 -0.21496892781E+03  0.97094343025E+03  0.10088719790E+04  0.00000000000E+00 0. -1.
         22    1    1    2    0    0 -0.34150856537E+03  0.40599207085E+03 -0.12974848502E+03  0.54616145157E+03  0.00000000000E+00 0. -1.
<mgrwt>
<rscale>  0 0.19186270E+04</rscale>
<asrwt>0</asrwt>
<pdfrwt beam="1">  1        2 0.38298200E+00 0.19186270E+04</pdfrwt>
<pdfrwt beam="2">  1       -2 0.56874296E-01 0.19186270E+04</pdfrwt>
<totfact> 0.95787316E+00</totfact>
</mgrwt>
</event>
<event>
 6    1  0.4630212E-004  0.1725228E+04  0.7818608E-02  0.8747105E-01
          2   -1    0    0  501    0  0.00000000000E+00  0.00000000000E+00  0.10144553381E+04  0.10144553381E+04  0.00000000000E+00 0.  1.
         -2   -1    0    0    0  501 -0.00000000000E+00 -0.00000000000E+00 -0.73349969921E+03  0.73349969921E+03  0.00000000000E+00 0. -1.
         23    2    1    2    0    0 -0.71167417085E+03  0.43887028087E+03 -0.64131958878E+02  0.84342604441E+03  0.90373311024E+02 0.  0.
         11    1    3    3    0    0 -0.20409040101E+03  0.17524825817E+03 -0.17977822613E+02  0.26960720666E+03  0.00000000000E+00 0. -1.
        -11    1    3    3    0    0 -0.50758376985E+03  0.26362202269E+03 -0.46154136266E+02  0.57381883775E+03  0.00000000000E+00 0.  1.
         22    1    1    2    0    0  0.71167417085E+03 -0.43887028087E+03  0.34508759778E+03  0.90452899292E+03  0.00000000000E+00 0.  1.
<mgrwt>
<rscale>  0 0.17252277E+04</rscale>
<asrwt>0</asrwt>
<pdfrwt beam="1">  1        2 0.15607005E+00 0.17252277E+04</pdfrwt>
<pdfrwt beam="2">  1       -2 0.11284611E+00 0.17252277E+04</pdfrwt>
<totfact> 0.14460318E+01</totfact>
</mgrwt>
</event>
<event>
 6    1  0.4630212E-004  0.1704461E+04  0.7818608E-02  0.8758824E-01
         -2   -1    0    0    0  501 -0.00000000000E+00  0.00000000000E+00  0.11792360160E+04  0.11792360160E+04  0.00000000000E+00 0. -1.
          2   -1    0    0  501    0  0.00000000000E+00 -0.00000000000E+00 -0.61590438870E+03  0.61590438870E+03  0.00000000000E+00 0.  1.
         23    2    1    2    0    0  0.42719737087E+03  0.67205721272E+03  0.59434982899E+03  0.99819585221E+03  0.94787917380E+02 0.  0.
         11    1    3    3    0    0  0.21569992297E+03  0.41177497242E+03  0.31266469620E+03  0.56021807980E+03  0.00000000000E+00 0.  1.
        -11    1    3    3    0    0  0.21149744790E+03  0.26028224030E+03  0.28168513280E+03  0.43797777241E+03  0.00000000000E+00 0. -1.
         22    1    1    2    0    0 -0.42719737087E+03 -0.67205721272E+03 -0.31018201729E+02  0.79694455246E+03  0.00000000000E+00 0. -1.
<mgrwt>
<rscale>  0 0.17044608E+04</rscale>
<asrwt>0</asrwt>
<pdfrwt beam="1">  1        2 0.94754521E-01 0.17044608E+04</pdfrwt>
<pdfrwt beam="2">  1       -2 0.18142093E+00 0.17044608E+04</pdfrwt>
<totfact> 0.80943736E+00</totfact>
</mgrwt>
</event>
<event>
 6    1  0.4630212E-004  0.4682717E+04  0.7818608E-02  0.7879407E-01
          1   -1    0    0  501    0  0.00000000000E+00  0.00000000000E+00  0.25918129315E+04  0.25918129315E+04  0.00000000000E+00 0. -1.
         -1   -1    0    0    0  501 -0.00000000000E+00 -0.00000000000E+00 -0.21151062121E+04  0.21151062121E+04  0.00000000000E+00 0.  1.
         23    2    1    2    0    0  0.12311109266E+04  0.10676191019E+04  0.19271571237E+04  0.25253483710E+04  0.89471531380E+02 0.  0.
         13    1    3    3    0    0  0.57693826104E+03  0.55916353893E+03  0.95643240850E+03  0.12491135146E+04  0.00000000000E+00 0. -1.
        -13    1    3    3    0    0  0.65417266560E+03  0.50845556295E+03  0.97072471518E+03  0.12762348564E+04  0.00000000000E+00 0.  1.
         22    1    1    2    0    0 -0.12311109266E+04 -0.10676191019E+04 -0.14504504043E+04  0.21815707726E+04  0.00000000000E+00 0.  1.
<mgrwt>
<rscale>  0 0.46827170E+04</rscale>
<asrwt>0</asrwt>
<pdfrwt beam="1">  1        1 0.39874045E+00 0.46827170E+04</pdfrwt>
<pdfrwt beam="2">  1       -1 0.32540096E+00 0.46827170E+04</pdfrwt>
<totfact> 0.19533415E-02</totfact>
</mgrwt>
</event>
<event>
 6    1  0.4630212E-004  0.4445842E+04  0.7818608E-02  0.7920188E-01
          2   -1    0    0  501    0  0.00000000000E+00  0.00000000000E+00  0.23175199928E+04  0.23175199928E+04  0.00000000000E+00 0.  1.
         -2   -1    0    0    0  501 -0.00000000000E+00 -0.00000000000E+00 -0.21321830134E+04  0.21321830134E+04  0.00000000000E+00 0. -1.
         23    2    1    2    0    0 -0.20863354632E+04 -0.26361656616E+03  0.81092999158E+03  0.22556984539E+04  0.90987386872E+02 0.  0.
         11    1    3    3    0    0 -0.12539130436E+04 -0.18871959706E+03  0.52389961073E+03  0.13719999305E+04  0.00000000000E+00 0. -1.
        -11    1    3    3    0    0 -0.83242241958E+03 -0.74896969096E+02  0.28703038085E+03  0.88369852333E+03  0.00000000000E+00 0.  1.
         22    1    1    2    0    0  0.20863354632E+04  0.26361656616E+03 -0.62559301217E+03  0.21940045524E+04  0.00000000000E+00 0. -1.
<mgrwt>
<rscale>  0 0.44458415E+04</rscale>
<asrwt>0</asrwt>
<pdfrwt beam="1">  1        2 0.35654154E+00 0.44458415E+04</pdfrwt>
<pdfrwt beam="2">  1       -2 0.32802816E+00 0.44458415E+04</pdfrwt>
<totfact> 0.72001593E-02</totfact>
</mgrwt>
</event>
<event>
 6    1  0.4630212E-004  0.1515562E+04  0.7818608E-02  0.8874170E-01
          2   -1    0    0  501    0  0.00000000000E+00  0.00000000000E+00  0.92023096621E+03  0.92023096621E+03  0.00000000000E+00 0.  1.
         -2   -1    0    0    0  501 -0.00000000000E+00 -0.00000000000E+00 -0.62400837378E+03  0.62400837378E+03  0.00000000000E+00 0. -1.
         23    2    1    2    0    0 -0.10430400145E+03  0.61616228948E+03  0.58036799642E+03  0.85774541991E+03  0.91459840432E+02 0.  0.
         11    1    3    3    0    0 -0.13855641063E+02  0.35376599960E+03  0.32588489832E+03  0.48118949304E+03  0.00000000000E+00 0.  1.
        -11    1    3    3    0    0 -0.90448360390E+02  0.26239628988E+03  0.25448309810E+03  0.37655592687E+03  0.00000000000E+00 0. -1.
         22    1    1    2    0    0  0.10430400145E+03 -0.61616228948E+03 -0.28414540399E+03  0.68649392008E+03  0.00000000000E+00 0.  1.
<mgrwt>
<rscale>  0 0.15155617E+04</rscale>
<asrwt>0</asrwt>
<pdfrwt beam="1">  1        2 0.14157399E+00 0.15155617E+04</pdfrwt>
<pdfrwt beam="2">  1       -2 0.96001288E-01 0.15155617E+04</pdfrwt>
<totfact> 0.24944190E+01</totfact>
</mgrwt>
</event>
<event>
 6    1  0.4630212E-004  0.4588842E+04  0.7818608E-02  0.7895265E-01
          2   -1    0    0  501    0  0.00000000000E+00  0.00000000000E+00  0.19973522100E+04  0.19973522100E+04  0.00000000000E+00 0.  1.
         -2   -1    0    0    0  501 -0.00000000000E+00 -0.00000000000E+00 -0.26356732569E+04  0.26356732569E+04  0.00000000000E+00 0. -1.
         23    2    1    2    0    0 -0.13518940986E+04  0.37031818235E+03 -0.21521309982E+04  0.25699273649E+04  0.90031200218E+02 0.  0.
         11    1    3    3    0    0 -0.12303795449E+04  0.32353564450E+03 -0.19080455117E+04  0.22932829770E+04  0.00000000000E+00 0.  1.
        -11    1    3    3    0    0 -0.12151455379E+03  0.46782537844E+02 -0.24408548650E+03  0.27664438788E+03  0.00000000000E+00 0. -1.
         22    1    1    2    0    0  0.13518940986E+04 -0.37031818235E+03  0.15138099513E+04  0.20630981021E+04  0.00000000000E+00 0.  1.
<mgrwt>
<rscale>  0 0.45888420E+04</rscale>
<asrwt>0</asrwt>
<pdfrwt beam="1">  1        2 0.30728496E+00 0.45888420E+04</pdfrwt>
<pdfrwt beam="2">  1       -2 0.40548819E+00 0.45888420E+04</pdfrwt>
<totfact> 0.34469511E-02</totfact>
</mgrwt>
</event>
<event>
 6    1  0.4630212E-004  0.1441368E+04  0.7818608E-02  0.8924407E-01
         -2   -1    0    0    0  501 -0.00000000000E+00  0.00000000000E+00  0.51554943610E+03  0.51554943610E+03  0.00000000000E+00 0. -1.
          2   -1    0    0  501    0  0.00000000000E+00 -0.00000000000E+00 -0.10074401789E+04  0.10074401789E+04  0.00000000000E+00 0.  1.
         23    2    1    2    0    0  0.70536182668E+03 -0.73723694473E+02 -0.12793554266E+03  0.72584855008E+03  0.86707121536E+02 0.  0.
         11    1    3    3    0    0  0.11021647813E+03 -0.11837466605E+02 -0.52840563674E+02  0.12280033728E+03  0.00000000000E+00 0.  1.
        -11    1    3    3    0    0  0.59514534855E+03 -0.61886227869E+02 -0.75094978989E+02  0.60304821280E+03  0.00000000000E+00 0. -1.
         22    1    1    2    0    0 -0.70536182668E+03  0.73723694473E+02 -0.36395520013E+03  0.79714106491E+03  0.00000000000E+00 0. -1.
<mgrwt>
<rscale>  0 0.14413677E+04</rscale>
<asrwt>0</asrwt>
<pdfrwt beam="1">  1        2 0.15499080E+00 0.14413677E+04</pdfrwt>
<pdfrwt beam="2">  1       -2 0.79315298E-01 0.14413677E+04</pdfrwt>
<totfact> 0.34077972E+01</totfact>
</mgrwt>
</event>
<event>
 6    1  0.4630212E-004  0.1374897E+04  0.7818608E-02  0.8972192E-01
         -2   -1    0    0    0  501 -0.00000000000E+00  0.00000000000E+00  0.37124767063E+03  0.37124767063E+03  0.00000000000E+00 0. -1.
          2   -1    0    0  501    0  0.00000000000E+00 -0.00000000000E+00 -0.12729658082E+04  0.12729658082E+04  0.00000000000E+00 0.  1.
         23    2    1    2    0    0 -0.42213348152E+02  0.66360436524E+03 -0.64643935960E+03  0.93194950054E+03  0.92159131924E+02 0.  0.
         13    1    3    3    0    0 -0.65733939168E+02  0.42436851338E+03 -0.38433367669E+03  0.57630023507E+03  0.00000000000E+00 0. -1.
        -13    1    3    3    0    0  0.23520591016E+02  0.23923585186E+03 -0.26210568290E+03  0.35564926547E+03  0.00000000000E+00 0.  1.
         22    1    1    2    0    0  0.42213348152E+02 -0.66360436524E+03 -0.25527877801E+03  0.71226397833E+03  0.00000000000E+00 0. -1.
<mgrwt>
<rscale>  0 0.13748972E+04</rscale>
<asrwt>0</asrwt>
<pdfrwt beam="1">  1        2 0.19584090E+00 0.13748972E+04</pdfrwt>
<pdfrwt beam="2">  1       -2 0.57115025E-01 0.13748972E+04</pdfrwt>
<totfact> 0.48029315E+01</totfact>
</mgrwt>
</event>
<event>
 6    1  0.4630212E-004  0.4865169E+03  0.7818608E-02  0.1017359E+00
          2   -1    0    0  501    0  0.00000000000E+00  0.00000000000E+00  0.60485922045E+03  0.60485922045E+03  0.00000000000E+00 0.  1.
         -2   -1    0    0    0  501 -0.00000000000E+00 -0.00000000000E+00 -0.97832123025E+02  0.97832123025E+02  0.00000000000E+00 0. -1.
         23    2    1    2    0    0  0.17678302135E+03 -0.98838332516E+01  0.48497593253E+03  0.52426438175E+03  0.91112897208E+02 0.  0.
         13    1    3    3    0    0  0.87882595636E+02 -0.73095466981E+01  0.12189837323E+03  0.15045262870E+03  0.00000000000E+00 0. -1.
        -13    1    3    3    0    0  0.88900425718E+02 -0.25742865536E+01  0.36307755930E+03  0.37381175305E+03  0.00000000000E+00 0.  1.
         22    1    1    2    0    0 -0.17678302135E+03  0.98838332516E+01  0.22051164898E+02  0.17842696173E+03  0.00000000000E+00 0. -1.
<mgrwt>
<rscale>  0 0.48651685E+03</rscale>
<asrwt>0</asrwt>
<pdfrwt beam="1">  1        2 0.93055262E-01 0.48651685E+03</pdfrwt>
<pdfrwt beam="2">  1       -2 0.15051096E-01 0.48651685E+03</pdfrwt>
<totfact> 0.17089541E+03</totfact>
</mgrwt>
</event>
<event>
 6    1  0.4630212E-004  0.3366432E+04  0.7818608E-02  0.8146195E-01
          2   -1    0    0  501    0  0.00000000000E+00  0.00000000000E+00  0.21068787138E+04  0.21068787138E+04  0.00000000000E+00 0.  1.
         -2   -1    0    0    0  501 -0.00000000000E+00 -0.00000000000E+00 -0.13447455510E+04  0.13447455510E+04  0.00000000000E+00 0. -1.
         23    2    1    2    0    0 -0.94039807609E+03 -0.79296710037E+03 -0.79499864463E+03  0.14672339732E+04  0.87219970569E+02 0.  0.
         13    1    3    3    0    0 -0.30124481153E+03 -0.21602390842E+03 -0.27236210101E+03  0.45999552123E+03  0.00000000000E+00 0.  1.
        -13    1    3    3    0    0 -0.63915326455E+03 -0.57694319196E+03 -0.52263654362E+03  0.10072384519E+04  0.00000000000E+00 0. -1.
         22    1    1    2    0    0  0.94039807609E+03  0.79296710037E+03  0.15571318074E+04  0.19843902916E+04  0.00000000000E+00 0.  1.
<mgrwt>
<rscale>  0 0.33664318E+04</rscale>
<asrwt>0</asrwt>
<pdfrwt beam="1">  1        2 0.32413519E+00 0.33664318E+04</pdfrwt>
<pdfrwt beam="2">  1       -2 0.20688393E+00 0.33664318E+04</pdfrwt>
<totfact> 0.58029104E-01</totfact>
</mgrwt>
</event>
<event>
 6    1  0.4630212E-004  0.2817748E+04  0.7818608E-02  0.8297780E-01
          1   -1    0    0  501    0  0.00000000000E+00  0.00000000000E+00  0.13106798899E+04  0.13106798899E+04  0.00000000000E+00 0. -1.
         -1   -1    0    0    0  501 -0.00000000000E+00 -0.00000000000E+00 -0.15144242311E+04  0.15144242311E+04  0.00000000000E+00 0.  1.
         23    2    1    2    0    0  0.86673271798E+03  0.23424597684E+03 -0.11886399063E+04  0.14923940789E+04  0.90986139802E+02 0.  0.
         13    1    3    3    0    0  0.52733773247E+03  0.18246609059E+03 -0.69989813594E+03  0.89511806986E+03  0.00000000000E+00 0. -1.
        -13    1    3    3    0    0  0.33939498551E+03  0.51779886252E+02 -0.48874177039E+03  0.59727600900E+03  0.00000000000E+00 0.  1.
         22    1    1    2    0    0 -0.86673271798E+03 -0.23424597684E+03  0.98489556514E+03  0.13327100421E+04  0.00000000000E+00 0. -1.
<mgrwt>
<rscale>  0 0.28177476E+04</rscale>
<asrwt>0</asrwt>
<pdfrwt beam="1">  1        1 0.20164306E+00 0.28177476E+04</pdfrwt>
<pdfrwt beam="2">  1       -1 0.23298834E+00 0.28177476E+04</pdfrwt>
<totfact> 0.69287595E-01</totfact>
</mgrwt>
</event>
<event>
 6    1  0.4630212E-004  0.2074431E+04  0.7818608E-02  0.8572591E-01
         -2   -1    0    0    0  501 -0.00000000000E+00  0.00000000000E+00  0.93415564624E+03  0.93415564624E+03  0.00000000000E+00 0. -1.
          2   -1    0    0  501    0  0.00000000000E+00 -0.00000000000E+00 -0.11516454282E+04  0.11516454282E+04  0.00000000000E+00 0.  1.
         23    2    1    2    0    0  0.84886375950E+03  0.32212263169E+02 -0.70372036301E+03  0.11070122872E+04  0.92986787142E+02 0.  0.
         13    1    3    3    0    0  0.28643913048E+03 -0.27780732782E+02 -0.21046459700E+03  0.35653119243E+03  0.00000000000E+00 0.  1.
        -13    1    3    3    0    0  0.56242462902E+03  0.59992995951E+02 -0.49325576601E+03  0.75048109476E+03  0.00000000000E+00 0. -1.
         22    1    1    2    0    0 -0.84886375950E+03 -0.32212263169E+02  0.48623058105E+03  0.97878878725E+03  0.00000000000E+00 0. -1.
<mgrwt>
<rscale>  0 0.20744311E+04</rscale>
<asrwt>0</asrwt>
<pdfrwt beam="1">  1        2 0.17717622E+00 0.20744311E+04</pdfrwt>
<pdfrwt beam="2">  1       -2 0.14371625E+00 0.20744311E+04</pdfrwt>
<totfact> 0.62745286E+00</totfact>
</mgrwt>
</event>
<event>
 6    1  0.4630212E-004  0.1341662E+04  0.7818608E-02  0.8997164E-01
          2   -1    0    0  501    0  0.00000000000E+00  0.00000000000E+00  0.10395534431E+04  0.10395534431E+04  0.00000000000E+00 0.  1.
         -2   -1    0    0    0  501 -0.00000000000E+00 -0.00000000000E+00 -0.43289174198E+03  0.43289174198E+03  0.00000000000E+00 0. -1.
         23    2    1    2    0    0 -0.65653361333E+03  0.12134153556E+03  0.28755570126E+03  0.73245275752E+03  0.89658279015E+02 0.  0.
         11    1    3    3    0    0 -0.35347178103E+03  0.24848715296E+02  0.17377085156E+03  0.39465943228E+03  0.00000000000E+00 0. -1.
        -11    1    3    3    0    0 -0.30306183229E+03  0.96492820262E+02  0.11378484971E+03  0.33779332524E+03  0.00000000000E+00 0.  1.
         22    1    1    2    0    0  0.65653361333E+03 -0.12134153556E+03  0.31910599984E+03  0.73999242754E+03  0.00000000000E+00 0. -1.
<mgrwt>
<rscale>  0 0.13416618E+04</rscale>
<asrwt>0</asrwt>
<pdfrwt beam="1">  1        2 0.15993130E+00 0.13416618E+04</pdfrwt>
<pdfrwt beam="2">  1       -2 0.66598730E-01 0.13416618E+04</pdfrwt>
<totfact> 0.48128653E+01</totfact>
</mgrwt>
</event>
<event>
 6    1  0.4630212E-004  0.2935557E+04  0.7818608E-02  0.8262376E-01
         -2   -1    0    0    0  501 -0.00000000000E+00  0.00000000000E+00  0.81426484268E+03  0.81426484268E+03  0.00000000000E+00 0. -1.
          2   -1    0    0  501    0  0.00000000000E+00 -0.00000000000E+00 -0.26457895401E+04  0.26457895401E+04  0.00000000000E+00 0.  1.
         23    2    1    2    0    0  0.33501405253E+03  0.10573216533E+04 -0.20472290579E+04  0.23301464817E+04  0.90952277383E+02 0.  0.
         13    1    3    3    0    0  0.31628846993E+03  0.91986247982E+03 -0.18284594975E+04  0.20710986244E+04  0.00000000000E+00 0.  1.
        -13    1    3    3    0    0  0.18725582594E+02  0.13745917344E+03 -0.21876956035E+03  0.25904785724E+03  0.00000000000E+00 0. -1.
         22    1    1    2    0    0 -0.33501405253E+03 -0.10573216533E+04  0.21570436047E+03  0.11299079011E+04  0.00000000000E+00 0. -1.
<mgrwt>
<rscale>  0 0.29355568E+04</rscale>
<asrwt>0</asrwt>
<pdfrwt beam="1">  1        2 0.40704454E+00 0.29355568E+04</pdfrwt>
<pdfrwt beam="2">  1       -2 0.12527152E+00 0.29355568E+04</pdfrwt>
<totfact> 0.11732203E+00</totfact>
</mgrwt>
</event>
<event>
 6    1  0.4630212E-004  0.3159158E+04  0.7818608E-02  0.8199687E-01
          2   -1    0    0  501    0  0.00000000000E+00  0.00000000000E+00  0.37961694161E+04  0.37961694161E+04  0.00000000000E+00 0.  1.
         -2   -1    0    0    0  501 -0.00000000000E+00 -0.00000000000E+00 -0.65725995167E+03  0.65725995167E+03  0.00000000000E+00 0. -1.
         23    2    1    2    0    0  0.22780589715E+03  0.71472362471E+03  0.35282458598E+04  0.36082618014E+04  0.91153682329E+02 0.  0.
         11    1    3    3    0    0  0.22121516356E+03  0.58043388075E+03  0.29172007253E+04  0.29825994887E+04  0.00000000000E+00 0. -1.
        -11    1    3    3    0    0  0.65907335905E+01  0.13428974396E+03  0.61104513454E+03  0.62566231271E+03  0.00000000000E+00 0.  1.
         22    1    1    2    0    0 -0.22780589715E+03 -0.71472362471E+03 -0.38933639537E+03  0.84516756637E+03  0.00000000000E+00 0. -1.
<mgrwt>
<rscale>  0 0.31591582E+04</rscale>
<asrwt>0</asrwt>
<pdfrwt beam="1">  1        2 0.58402606E+00 0.31591582E+04</pdfrwt>
<pdfrwt beam="2">  1       -2 0.10111692E+00 0.31591582E+04</pdfrwt>
<totfact> 0.33559418E-01</totfact>
</mgrwt>
</event>
<event>
 6    1  0.4630212E-004  0.2658883E+04  0.7818608E-02  0.8348470E-01
         -2   -1    0    0    0  501 -0.00000000000E+00  0.00000000000E+00  0.11864936290E+04  0.11864936290E+04  0.00000000000E+00 0. -1.
          2   -1    0    0  501    0  0.00000000000E+00 -0.00000000000E+00 -0.14896120130E+04  0.14896120130E+04  0.00000000000E+00 0.  1.
         23    2    1    2    0    0  0.49202814917E+02 -0.67552529371E+03 -0.13012653899E+04  0.14698499540E+04  0.91716589293E+02 0.  0.
         13    1    3    3    0    0 -0.19421093511E+02 -0.31296377296E+03 -0.55970123371E+03  0.64155200341E+03  0.00000000000E+00 0. -1.
        -13    1    3    3    0    0  0.68623908427E+02 -0.36256152075E+03 -0.74156415620E+03  0.82829795056E+03  0.00000000000E+00 0.  1.
         22    1    1    2    0    0 -0.49202814917E+02  0.67552529371E+03  0.99814700591E+03  0.12062556880E+04  0.00000000000E+00 0. -1.
<mgrwt>
<rscale>  0 0.26588833E+04</rscale>
<asrwt>0</asrwt>
<pdfrwt beam="1">  1        2 0.22917108E+00 0.26588833E+04</pdfrwt>
<pdfrwt beam="2">  1       -2 0.18253748E+00 0.26588833E+04</pdfrwt>
<totfact> 0.19730003E+00</totfact>
</mgrwt>
</event>
<event>
 6    1  0.4630212E-004  0.2739937E+04  0.7818608E-02  0.8322162E-01
         -2   -1    0    0    0  501 -0.00000000000E+00  0.00000000000E+00  0.13325060886E+04  0.13325060886E+04  0.00000000000E+00 0. -1.
          2   -1    0    0  501    0  0.00000000000E+00 -0.00000000000E+00 -0.14084838351E+04  0.14084838351E+04  0.00000000000E+00 0.  1.
         23    2    1    2    0    0  0.11270451580E+04 -0.17796588328E+02  0.73783558496E+03  0.13507238897E+04  0.97499584944E+02 0.  0.
         13    1    3    3    0    0  0.18457307982E+03 -0.29948335058E+02  0.15174408492E+03  0.24081194296E+03  0.00000000000E+00 0.  1.
        -13    1    3    3    0    0  0.94247207818E+03  0.12151746730E+02  0.58609150004E+03  0.11099119467E+04  0.00000000000E+00 0. -1.
         22    1    1    2    0    0 -0.11270451580E+04  0.17796588328E+02 -0.81381333143E+03  0.13902660339E+04  0.00000000000E+00 0.  1.
<mgrwt>
<rscale>  0 0.27399367E+04</rscale>
<asrwt>0</asrwt>
<pdfrwt beam="1">  1        2 0.21668982E+00 0.27399367E+04</pdfrwt>
<pdfrwt beam="2">  1       -2 0.20500094E+00 0.27399367E+04</pdfrwt>
<totfact> 0.15436931E+00</totfact>
</mgrwt>
</event>
<event>
 6    1  0.4630212E-004  0.1804161E+04  0.7818608E-02  0.8704090E-01
         -2   -1    0    0    0  501 -0.00000000000E+00  0.00000000000E+00  0.79231307719E+03  0.79231307719E+03  0.00000000000E+00 0. -1.
          2   -1    0    0  501    0  0.00000000000E+00 -0.00000000000E+00 -0.10270552549E+04  0.10270552549E+04  0.00000000000E+00 0.  1.
         23    2    1    2    0    0 -0.22608095021E+02 -0.89067907763E+03 -0.24398347277E+03  0.92835444511E+03  0.92161247272E+02 0.  0.
         13    1    3    3    0    0 -0.45271350620E+02 -0.82493080753E+03 -0.22438592511E+03  0.85610126491E+03  0.00000000000E+00 0. -1.
        -13    1    3    3    0    0  0.22663255598E+02 -0.65748270094E+02 -0.19597547663E+02  0.72253180201E+02  0.00000000000E+00 0.  1.
         22    1    1    2    0    0  0.22608095021E+02  0.89067907763E+03  0.92412950452E+01  0.89101388699E+03  0.00000000000E+00 0. -1.
<mgrwt>
<rscale>  0 0.18041611E+04</rscale>
<asrwt>0</asrwt>
<pdfrwt beam="1">  1        2 0.15800850E+00 0.18041611E+04</pdfrwt>
<pdfrwt beam="2">  1       -2 0.12189432E+00 0.18041611E+04</pdfrwt>
<totfact> 0.11666059E+01</totfact>
</mgrwt>
</event>
<event>
 6    1  0.4630212E-004  0.1475053E+04  0.7818608E-02  0.8901214E-01
          2   -1    0    0  501    0  0.00000000000E+00  0.00000000000E+00  0.26844830232E+04  0.26844830232E+04  0.00000000000E+00 0.  1.
         -2   -1    0    0    0  501 -0.00000000000E+00 -0.00000000000E+00 -0.20262574840E+03  0.20262574840E+03  0.00000000000E+00 0. -1.
         23    2    1    2    0    0 -0.47824395928E+03  0.55312985577E+03  0.11124447758E+04  0.13347040195E+04  0.96080791873E+02 0.  0.
         11    1    3    3    0    0 -0.20740809481E+03  0.25687860563E+03  0.58709498279E+03  0.67356161904E+03  0.00000000000E+00 0.  1.
        -11    1    3    3    0    0 -0.27083586447E+03  0.29625125014E+03  0.52534979304E+03  0.66114240050E+03  0.00000000000E+00 0. -1.
         22    1    1    2    0    0  0.47824395928E+03 -0.55312985577E+03  0.13694124990E+04  0.15524047521E+04  0.00000000000E+00 0. -1.
<mgrwt>
<rscale>  0 0.14750531E+04</rscale>
<asrwt>0</asrwt>
<pdfrwt beam="1">  1        2 0.41299736E+00 0.14750531E+04</pdfrwt>
<pdfrwt beam="2">  1       -2 0.31173194E-01 0.14750531E+04</pdfrwt>
<totfact> 0.25171256E+01</totfact>
</mgrwt>
</event>
<event>
 6    1  0.4630212E-004  0.3716277E+04  0.7818608E-02  0.8064364E-01
          2   -1    0    0  501    0  0.00000000000E+00  0.00000000000E+00  0.18146203724E+04  0.18146203724E+04  0.00000000000E+00 0.  1.
         -2   -1    0    0    0  501 -0.00000000000E+00 -0.00000000000E+00 -0.19027001716E+04  0.19027001716E+04  0.00000000000E+00 0. -1.
         23    2    1    2    0    0 -0.78232870268E+03 -0.16718942585E+04  0.15867866888E+03  0.18550213327E+04  0.93040927755E+02 0.  0.
         13    1    3    3    0    0 -0.39628042807E+03 -0.84225300270E+03  0.12666338602E+03  0.93939976133E+03  0.00000000000E+00 0.  1.
        -13    1    3    3    0    0 -0.38604827461E+03 -0.82964125581E+03  0.32015282867E+02  0.91562157140E+03  0.00000000000E+00 0. -1.
         22    1    1    2    0    0  0.78232870268E+03  0.16718942585E+04 -0.24675846816E+03  0.18622992113E+04  0.00000000000E+00 0. -1.
<mgrwt>
<rscale>  0 0.37162769E+04</rscale>
<asrwt>0</asrwt>
<pdfrwt beam="1">  1        2 0.27917236E+00 0.37162769E+04</pdfrwt>
<pdfrwt beam="2">  1       -2 0.29272310E+00 0.37162769E+04</pdfrwt>
<totfact> 0.24076536E-01</totfact>
</mgrwt>
</event>
<event>
 6    1  0.4630212E-004  0.2415511E+04  0.7818608E-02  0.8433719E-01
         -2   -1    0    0    0  501 -0.00000000000E+00  0.00000000000E+00  0.96788300827E+03  0.96788300827E+03  0.00000000000E+00 0. -1.
          2   -1    0    0  501    0  0.00000000000E+00 -0.00000000000E+00 -0.15070764191E+04  0.15070764191E+04  0.00000000000E+00 0.  1.
         23    2    1    2    0    0 -0.20179467329E+03  0.64471661020E+03 -0.12936643045E+04  0.14622368952E+04  0.90492029707E+02 0.  0.
         13    1    3    3    0    0 -0.77688337151E+02  0.12476359863E+03 -0.27107700550E+03  0.30835722172E+03  0.00000000000E+00 0. -1.
        -13    1    3    3    0    0 -0.12410633614E+03  0.51995301157E+03 -0.10225872990E+04  0.11538796735E+04  0.00000000000E+00 0.  1.
         22    1    1    2    0    0  0.20179467329E+03 -0.64471661020E+03  0.75447089368E+03  0.10127225321E+04  0.00000000000E+00 0. -1.
<mgrwt>
<rscale>  0 0.24155113E+04</rscale>
<asrwt>0</asrwt>
<pdfrwt beam="1">  1        2 0.23185791E+00 0.24155113E+04</pdfrwt>
<pdfrwt beam="2">  1       -2 0.14890508E+00 0.24155113E+04</pdfrwt>
<totfact> 0.34513541E+00</totfact>
</mgrwt>
</event>
<event>
 6    1  0.4630212E-004  0.1407063E+04  0.7818608E-02  0.8948722E-01
         -2   -1    0    0    0  501 -0.00000000000E+00  0.00000000000E+00  0.27323579400E+03  0.27323579400E+03  0.00000000000E+00 0. -1.
          2   -1    0    0  501    0  0.00000000000E+00 -0.00000000000E+00 -0.18114624104E+04  0.18114624104E+04  0.00000000000E+00 0.  1.
         23    2    1    2    0    0  0.33561423502E+03  0.59036559975E+03 -0.10275117701E+04  0.12349934849E+04  0.90884618893E+02 0.  0.
         11    1    3    3    0    0  0.23311913138E+03  0.32177968671E+03 -0.57745322702E+03  0.70095572299E+03  0.00000000000E+00 0. -1.
        -11    1    3    3    0    0  0.10249510363E+03  0.26858591304E+03 -0.45005854311E+03  0.53403776194E+03  0.00000000000E+00 0.  1.
         22    1    1    2    0    0 -0.33561423502E+03 -0.59036559975E+03 -0.51071484630E+03  0.84970471950E+03  0.00000000000E+00 0. -1.
<mgrwt>
<rscale>  0 0.14070627E+04</rscale>
<asrwt>0</asrwt>
<pdfrwt beam="1">  1        2 0.27868654E+00 0.14070627E+04</pdfrwt>
<pdfrwt beam="2">  1       -2 0.42036274E-01 0.14070627E+04</pdfrwt>
<totfact> 0.44368350E+01</totfact>
</mgrwt>
</event>
<event>
 6    1  0.4630212E-004  0.3369575E+03  0.7818608E-02  0.1068099E+00
         -2   -1    0    0    0  501 -0.00000000000E+00  0.00000000000E+00  0.29829102521E+02  0.29829102521E+02  0.00000000000E+00 0. -1.
          2   -1    0    0  501    0  0.00000000000E+00 -0.00000000000E+00 -0.95159041040E+03  0.95159041040E+03  0.00000000000E+00 0.  1.
         23    2    1    2    0    0 -0.93368222385E+02  0.26986895304E+01 -0.85902469283E+03  0.86889933365E+03  0.91311123332E+02 0.  0.
         13    1    3    3    0    0 -0.82578738315E+02  0.33718030685E+02 -0.46289813586E+03  0.47141365890E+03  0.00000000000E+00 0. -1.
        -13    1    3    3    0    0 -0.10789484069E+02 -0.31019341154E+02 -0.39612655697E+03  0.39748567475E+03  0.00000000000E+00 0.  1.
         22    1    1    2    0    0  0.93368222385E+02 -0.26986895304E+01 -0.62736615054E+02  0.11252017928E+03  0.00000000000E+00 0. -1.
<mgrwt>
<rscale>  0 0.33695749E+03</rscale>
<asrwt>0</asrwt>
<pdfrwt beam="1">  1        2 0.14639851E+00 0.33695749E+03</pdfrwt>
<pdfrwt beam="2">  1       -2 0.45890932E-02 0.33695749E+03</pdfrwt>
<totfact> 0.63045094E+03</totfact>
</mgrwt>
</event>
<event>
 6    1  0.4630212E-004  0.1421215E+04  0.7818608E-02  0.8938604E-01
          2   -1    0    0  501    0  0.00000000000E+00  0.00000000000E+00  0.11263978690E+04  0.11263978690E+04  0.00000000000E+00 0. -1.
         -2   -1    0    0    0  501 -0.00000000000E+00 -0.00000000000E+00 -0.44829877604E+03  0.44829877604E+03  0.00000000000E+00 0.  1.
         23    2    1    2    0    0 -0.23094790992E+03 -0.11587011595E+03 -0.38933142364E+03  0.47643860220E+03  0.93015930696E+02 0.  0.
         11    1    3    3    0    0 -0.97001963282E+02 -0.99910306852E+02 -0.18380767372E+03  0.23060076152E+03  0.00000000000E+00 0.  1.
        -11    1    3    3    0    0 -0.13394594664E+03 -0.15959809100E+02 -0.20552374992E+03  0.24583784068E+03  0.00000000000E+00 0. -1.
         22    1    1    2    0    0  0.23094790992E+03  0.11587011595E+03  0.10674305166E+04  0.10982580428E+04  0.00000000000E+00 0. -1.
<mgrwt>
<rscale>  0 0.14212147E+04</rscale>
<asrwt>0</asrwt>
<pdfrwt beam="1">  1        2 0.17329198E+00 0.14212147E+04</pdfrwt>
<pdfrwt beam="2">  1       -2 0.68969043E-01 0.14212147E+04</pdfrwt>
<totfact> 0.39166304E+01</totfact>
</mgrwt>
</event>
<event>
 6    1  0.4630212E-004  0.1202623E+04  0.7818608E-02  0.9110564E-01
          2   -1    0    0  501    0  0.00000000000E+00  0.00000000000E+00  0.34679609320E+03  0.34679609320E+03  0.00000000000E+00 0.  1.
         -2   -1    0    0    0  501 -0.00000000000E+00 -0.00000000000E+00 -0.10426165766E+04  0.10426165766E+04  0.00000000000E+00 0. -1.
         23    2    1    2    0    0  0.46545264554E+03 -0.70896190028E+02  0.75855214541E+02  0.48544595702E+03  0.90726669761E+02 0.  0.
         11    1    3    3    0    0  0.13756509703E+03 -0.53122096155E+02 -0.39495130396E+01  0.14751851299E+03  0.00000000000E+00 0. -1.
        -11    1    3    3    0    0  0.32788754852E+03 -0.17774093873E+02  0.79804727580E+02  0.33792744403E+03  0.00000000000E+00 0.  1.
         22    1    1    2    0    0 -0.46545264554E+03  0.70896190028E+02 -0.77167569791E+03  0.90396671274E+03  0.00000000000E+00 0. -1.
<mgrwt>
<rscale>  0 0.12026227E+04</rscale>
<asrwt>0</asrwt>
<pdfrwt beam="1">  1        2 0.53353245E-01 0.12026227E+04</pdfrwt>
<pdfrwt beam="2">  1       -2 0.16040255E+00 0.12026227E+04</pdfrwt>
<totfact> 0.23016969E+01</totfact>
</mgrwt>
</event>
<event>
 6    1  0.4630212E-004  0.1842772E+04  0.7818608E-02  0.8683879E-01
         -2   -1    0    0    0  501 -0.00000000000E+00  0.00000000000E+00  0.48620704761E+03  0.48620704761E+03  0.00000000000E+00 0. -1.
          2   -1    0    0  501    0  0.00000000000E+00 -0.00000000000E+00 -0.17460707830E+04  0.17460707830E+04  0.00000000000E+00 0.  1.
         23    2    1    2    0    0  0.60433422432E+03  0.34804562367E+03 -0.13567895144E+04  0.15281825122E+04  0.90046616933E+02 0.  0.
         13    1    3    3    0    0  0.41749031095E+03  0.24188640755E+03 -0.10248858394E+04  0.11327833763E+04  0.00000000000E+00 0. -1.
        -13    1    3    3    0    0  0.18684391337E+03  0.10615921612E+03 -0.33190367506E+03  0.39539913587E+03  0.00000000000E+00 0.  1.
         22    1    1    2    0    0 -0.60433422432E+03 -0.34804562367E+03  0.96925779005E+02  0.70409531846E+03  0.00000000000E+00 0. -1.
<mgrwt>
<rscale>  0 0.18427717E+04</rscale>
<asrwt>0</asrwt>
<pdfrwt beam="1">  1        2 0.26862628E+00 0.18427717E+04</pdfrwt>
<pdfrwt beam="2">  1       -2 0.74801083E-01 0.18427717E+04</pdfrwt>
<totfact> 0.13969906E+01</totfact>
</mgrwt>
</event>
<event>
 6    1  0.4630212E-004  0.1861808E+04  0.7818608E-02  0.8674104E-01
          2   -1    0    0  501    0  0.00000000000E+00  0.00000000000E+00  0.21036103744E+04  0.21036103744E+04  0.00000000000E+00 0.  1.
         -2   -1    0    0    0  501 -0.00000000000E+00 -0.00000000000E+00 -0.41194984724E+03  0.41194984724E+03  0.00000000000E+00 0. -1.
         23    2    1    2    0    0  0.29263197534E+03  0.62370937444E+03  0.62837153432E+01  0.69480712071E+03  0.89836480089E+02 0.  0.
         11    1    3    3    0    0  0.12783196405E+03  0.37568158508E+03 -0.37339338159E+01  0.39685212191E+03  0.00000000000E+00 0.  1.
        -11    1    3    3    0    0  0.16480001129E+03  0.24802778935E+03  0.10017649159E+02  0.29795499880E+03  0.00000000000E+00 0. -1.
         22    1    1    2    0    0 -0.29263197534E+03 -0.62370937444E+03  0.16853768118E+04  0.18207531009E+04  0.00000000000E+00 0.  1.
<mgrwt>
<rscale>  0 0.18618077E+04</rscale>
<asrwt>0</asrwt>
<pdfrwt beam="1">  1        2 0.32363236E+00 0.18618077E+04</pdfrwt>
<pdfrwt beam="2">  1       -2 0.63376901E-01 0.18618077E+04</pdfrwt>
<totfact> 0.12664698E+01</totfact>
</mgrwt>
</event>
<event>
 6    1  0.4630212E-004  0.2614797E+04  0.7818608E-02  0.8363192E-01
         -4   -1    0    0    0  501 -0.00000000000E+00  0.00000000000E+00  0.74033904112E+03  0.74033904112E+03  0.00000000000E+00 0. -1.
          4   -1    0    0  501    0  0.00000000000E+00 -0.00000000000E+00 -0.23087938151E+04  0.23087938151E+04  0.00000000000E+00 0.  1.
         23    2    1    2    0    0  0.96504837937E+03  0.32072341517E+03  0.16991603225E+03  0.10351529796E+04  0.92132239346E+02 0.  0.
         13    1    3    3    0    0  0.17080301517E+02  0.29180710526E+01 -0.88791110996E+01  0.19470245312E+02  0.00000000000E+00 0. -1.
        -13    1    3    3    0    0  0.94796807785E+03  0.31780534412E+03  0.17879514335E+03  0.10156827343E+04  0.00000000000E+00 0.  1.
         22    1    1    2    0    0 -0.96504837937E+03 -0.32072341517E+03 -0.17383708062E+04  0.20139798766E+04  0.00000000000E+00 0.  1.
<mgrwt>
<rscale>  0 0.26147965E+04</rscale>
<asrwt>0</asrwt>
<pdfrwt beam="1">  1        4 0.35519904E+00 0.26147965E+04</pdfrwt>
<pdfrwt beam="2">  1       -4 0.11389832E+00 0.26147965E+04</pdfrwt>
<totfact> 0.14539318E-02</totfact>
</mgrwt>
</event>
<event>
 6    1  0.4630212E-004  0.6990342E+03  0.7818608E-02  0.9718885E-01
          2   -1    0    0  501    0  0.00000000000E+00  0.00000000000E+00  0.34311116498E+03  0.34311116498E+03  0.00000000000E+00 0.  1.
         -2   -1    0    0    0  501 -0.00000000000E+00 -0.00000000000E+00 -0.35604260299E+03  0.35604260299E+03  0.00000000000E+00 0. -1.
         23    2    1    2    0    0 -0.10288654593E+03  0.65500645272E+02 -0.32784783487E+03  0.36144337004E+03  0.91000720062E+02 0.  0.
         11    1    3    3    0    0 -0.11285012108E+03  0.75667591007E+02 -0.27532113169E+03  0.30702192057E+03  0.00000000000E+00 0.  1.
        -11    1    3    3    0    0  0.99635751484E+01 -0.10166945735E+02 -0.52526703172E+02  0.54421449461E+02  0.00000000000E+00 0. -1.
         22    1    1    2    0    0  0.10288654593E+03 -0.65500645272E+02  0.31491639685E+03  0.33771039793E+03  0.00000000000E+00 0.  1.
<mgrwt>
<rscale>  0 0.69903417E+03</rscale>
<asrwt>0</asrwt>
<pdfrwt beam="1">  1        2 0.52786333E-01 0.69903417E+03</pdfrwt>
<pdfrwt beam="2">  1       -2 0.54775785E-01 0.69903417E+03</pdfrwt>
<totfact> 0.29910019E+02</totfact>
</mgrwt>
</event>
<event>
 6    1  0.4630212E-004  0.2724601E+04  0.7818608E-02  0.8327067E-01
          2   -1    0    0  501    0  0.00000000000E+00  0.00000000000E+00  0.25159429726E+04  0.25159429726E+04  0.00000000000E+00 0.  1.
         -2   -1    0    0    0  501 -0.00000000000E+00 -0.00000000000E+00 -0.73764105762E+03  0.73764105762E+03  0.00000000000E+00 0. -1.
         23    2    1    2    0    0  0.10194148603E+04  0.59577592104E+03  0.16982164441E+04  0.20701275299E+04  0.85634651668E+02 0.  0.
         13    1    3    3    0    0  0.30250054638E+03  0.21153988147E+03  0.57622649414E+03  0.68431913211E+03  0.00000000000E+00 0.  1.
        -13    1    3    3    0    0  0.71691431393E+03  0.38423603956E+03  0.11219899500E+04  0.13858083978E+04  0.00000000000E+00 0. -1.
         22    1    1    2    0    0 -0.10194148603E+04 -0.59577592104E+03  0.80085470877E+02  0.11834565003E+04  0.00000000000E+00 0. -1.
<mgrwt>
<rscale>  0 0.27246011E+04</rscale>
<asrwt>0</asrwt>
<pdfrwt beam="1">  1        2 0.38706815E+00 0.27246011E+04</pdfrwt>
<pdfrwt beam="2">  1       -2 0.11348324E+00 0.27246011E+04</pdfrwt>
<totfact> 0.18167508E+00</totfact>
</mgrwt>
</event>
<event>
 6    1  0.4630212E-004  0.4734137E+03  0.7818608E-02  0.1020961E+00
          2   -1    0    0  501    0  0.00000000000E+00  0.00000000000E+00  0.10887874556E+04  0.10887874556E+04  0.00000000000E+00 0.  1.
         -2   -1    0    0    0  501 -0.00000000000E+00 -0.00000000000E+00 -0.51461042748E+02  0.51461042748E+02  0.00000000000E+00 0. -1.
         23    2    1    2    0    0  0.41718994949E+02 -0.19528439375E+03  0.80513939148E+03  0.83400140550E+03  0.86211575151E+02 0.  0.
         11    1    3    3    0    0  0.16541089837E+02 -0.96686318402E+02  0.56086554120E+03  0.56937861492E+03  0.00000000000E+00 0. -1.
        -11    1    3    3    0    0  0.25177905112E+02 -0.98598075345E+02  0.24427385027E+03  0.26462279058E+03  0.00000000000E+00 0.  1.
         22    1    1    2    0    0 -0.41718994949E+02  0.19528439375E+03  0.23218702137E+03  0.30624709284E+03  0.00000000000E+00 0. -1.
<mgrwt>
<rscale>  0 0.47341372E+03</rscale>
<asrwt>0</asrwt>
<pdfrwt beam="1">  1        2 0.16750575E+00 0.47341372E+03</pdfrwt>
<pdfrwt beam="2">  1       -2 0.79170843E-02 0.47341372E+03</pdfrwt>
<totfact> 0.22304882E+03</totfact>
</mgrwt>
</event>
<event>
 6    1  0.4630212E-004  0.1733610E+04  0.7818608E-02  0.8742424E-01
         -2   -1    0    0    0  501 -0.00000000000E+00  0.00000000000E+00  0.99951227168E+03  0.99951227168E+03  0.00000000000E+00 0. -1.
          2   -1    0    0  501    0  0.00000000000E+00 -0.00000000000E+00 -0.75171741042E+03  0.75171741042E+03  0.00000000000E+00 0.  1.
         23    2    1    2    0    0  0.50867632223E+03  0.69390871676E+03  0.34216415267E+02  0.86473283463E+03  0.79568864600E+02 0.  0.
         13    1    3    3    0    0  0.22321424925E+03  0.23996201600E+03  0.18824918350E+02  0.32826932196E+03  0.00000000000E+00 0. -1.
        -13    1    3    3    0    0  0.28546207298E+03  0.45394670076E+03  0.15391496917E+02  0.53646351266E+03  0.00000000000E+00 0.  1.
         22    1    1    2    0    0 -0.50867632223E+03 -0.69390871676E+03  0.21357844599E+03  0.88649684748E+03  0.00000000000E+00 0.  1.
<mgrwt>
<rscale>  0 0.17336098E+04</rscale>
<asrwt>0</asrwt>
<pdfrwt beam="1">  1        2 0.11564883E+00 0.17336098E+04</pdfrwt>
<pdfrwt beam="2">  1       -2 0.15377112E+00 0.17336098E+04</pdfrwt>
<totfact> 0.99459602E+00</totfact>
</mgrwt>
</event>
<event>
 6    1  0.4630212E-004  0.1542642E+04  0.7818608E-02  0.8856581E-01
          2   -1    0    0  501    0  0.00000000000E+00  0.00000000000E+00  0.13529221887E+04  0.13529221887E+04  0.00000000000E+00 0.  1.
         -2   -1    0    0    0  501 -0.00000000000E+00 -0.00000000000E+00 -0.43974169418E+03  0.43974169418E+03  0.00000000000E+00 0. -1.
         23    2    1    2    0    0  0.72558120947E+03 -0.11976333683E+03  0.71771600623E+03  0.10317317476E+04  0.92427187234E+02 0.  0.
         13    1    3    3    0    0  0.26995914722E+03 -0.25500081459E+01  0.28430429409E+03  0.39206297370E+03  0.00000000000E+00 0.  1.
        -13    1    3    3    0    0  0.45562206224E+03 -0.11721332869E+03  0.43341171215E+03  0.63966877386E+03  0.00000000000E+00 0. -1.
         22    1    1    2    0    0 -0.72558120947E+03  0.11976333683E+03  0.19546448830E+03  0.76093213532E+03  0.00000000000E+00 0. -1.
<mgrwt>
<rscale>  0 0.15426423E+04</rscale>
<asrwt>0</asrwt>
<pdfrwt beam="1">  1        2 0.20814187E+00 0.15426423E+04</pdfrwt>
<pdfrwt beam="2">  1       -2 0.67652569E-01 0.15426423E+04</pdfrwt>
<totfact> 0.29701170E+01</totfact>
</mgrwt>
</event>
<event>
 6    1  0.4630212E-004  0.3370242E+04  0.7818608E-02  0.8145249E-01
         -4   -1    0    0    0  501 -0.00000000000E+00  0.00000000000E+00  0.25132877611E+04  0.25132877611E+04  0.00000000000E+00 0. -1.
          4   -1    0    0  501    0  0.00000000000E+00 -0.00000000000E+00 -0.11298480917E+04  0.11298480917E+04  0.00000000000E+00 0.  1.
         23    2    1    2    0    0  0.61806048229E+03  0.91262663780E+03 -0.68393313063E+03  0.13002921888E+04  0.90050593064E+02 0.  0.
         13    1    3    3    0    0  0.24275069230E+03  0.34884579082E+03 -0.21305609103E+03  0.47540948908E+03  0.00000000000E+00 0. -1.
        -13    1    3    3    0    0  0.37530979000E+03  0.56378084698E+03 -0.47087703960E+03  0.82488269973E+03  0.00000000000E+00 0.  1.
         22    1    1    2    0    0 -0.61806048229E+03 -0.91262663780E+03  0.20673728000E+04  0.23428436640E+04  0.00000000000E+00 0. -1.
<mgrwt>
<rscale>  0 0.33702424E+04</rscale>
<asrwt>0</asrwt>
<pdfrwt beam="1">  1        4 0.17382278E+00 0.33702424E+04</pdfrwt>
<pdfrwt beam="2">  1       -4 0.38665965E+00 0.33702424E+04</pdfrwt>
<totfact> 0.27453794E-03</totfact>
</mgrwt>
</event>
<event>
 6    1  0.4630212E-004  0.3495879E+04  0.7818608E-02  0.8114767E-01
         -2   -1    0    0    0  501 -0.00000000000E+00  0.00000000000E+00  0.12335859765E+04  0.12335859765E+04  0.00000000000E+00 0. -1.
          2   -1    0    0  501    0  0.00000000000E+00 -0.00000000000E+00 -0.24767573848E+04  0.24767573848E+04  0.00000000000E+00 0.  1.
         23    2    1    2    0    0 -0.62582157936E+03 -0.16150174867E+04 -0.38190208828E+03  0.17759910218E+04  0.91437262927E+02 0.  0.
         11    1    3    3    0    0 -0.19105429389E+03 -0.54206499979E+03 -0.16703255658E+03  0.59852826347E+03  0.00000000000E+00 0. -1.
        -11    1    3    3    0    0 -0.43476728547E+03 -0.10729524869E+04 -0.21486953170E+03  0.11774627583E+04  0.00000000000E+00 0.  1.
         22    1    1    2    0    0  0.62582157936E+03  0.16150174867E+04 -0.86126932001E+03  0.19343523394E+04  0.00000000000E+00 0. -1.
<mgrwt>
<rscale>  0 0.34958794E+04</rscale>
<asrwt>0</asrwt>
<pdfrwt beam="1">  1        2 0.38103960E+00 0.34958794E+04</pdfrwt>
<pdfrwt beam="2">  1       -2 0.18978246E+00 0.34958794E+04</pdfrwt>
<totfact> 0.45898763E-01</totfact>
</mgrwt>
</event>
<event>
 6    1  0.4630212E-004  0.2615719E+04  0.7818608E-02  0.8362881E-01
          2   -1    0    0  501    0  0.00000000000E+00  0.00000000000E+00  0.25682217264E+04  0.25682217264E+04  0.00000000000E+00 0.  1.
         -2   -1    0    0    0  501 -0.00000000000E+00 -0.00000000000E+00 -0.66602347169E+03  0.66602347169E+03  0.00000000000E+00 0. -1.
         23    2    1    2    0    0 -0.11711571589E+04 -0.41076092909E+03  0.44845380477E+03  0.13227780763E+04  0.91090023822E+02 0.  0.
         11    1    3    3    0    0 -0.24863126596E+03 -0.52370200192E+02  0.10908888051E+03  0.27651496909E+03  0.00000000000E+00 0. -1.
        -11    1    3    3    0    0 -0.92252589298E+03 -0.35839072889E+03  0.33936492426E+03  0.10462631073E+04  0.00000000000E+00 0.  1.
         22    1    1    2    0    0  0.11711571589E+04  0.41076092909E+03  0.14537444499E+04  0.19114671217E+04  0.00000000000E+00 0.  1.
<mgrwt>
<rscale>  0 0.26157186E+04</rscale>
<asrwt>0</asrwt>
<pdfrwt beam="1">  1        2 0.39511103E+00 0.26157186E+04</pdfrwt>
<pdfrwt beam="2">  1       -2 0.10246515E+00 0.26157186E+04</pdfrwt>
<totfact> 0.21867869E+00</totfact>
</mgrwt>
</event>
<event>
 6    1  0.4630212E-004  0.1669494E+04  0.7818608E-02  0.8778957E-01
         -2   -1    0    0    0  501 -0.00000000000E+00  0.00000000000E+00  0.58241982645E+03  0.58241982645E+03  0.00000000000E+00 0. -1.
          2   -1    0    0  501    0  0.00000000000E+00 -0.00000000000E+00 -0.11963921551E+04  0.11963921551E+04  0.00000000000E+00 0.  1.
         23    2    1    2    0    0  0.80296940154E+03 -0.27544163958E+02 -0.53976219343E+03  0.97195035463E+03  0.88463131521E+02 0.  0.
         11    1    3    3    0    0  0.27223924754E+03  0.32121021592E+02 -0.17600447966E+03  0.32576608908E+03  0.00000000000E+00 0. -1.
        -11    1    3    3    0    0  0.53073015399E+03 -0.59665185550E+02 -0.36375771376E+03  0.64618426555E+03  0.00000000000E+00 0.  1.
         22    1    1    2    0    0 -0.80296940154E+03  0.27544163958E+02 -0.74210135186E+02  0.80686162688E+03  0.00000000000E+00 0. -1.
<mgrwt>
<rscale>  0 0.16694939E+04</rscale>
<asrwt>0</asrwt>
<pdfrwt beam="1">  1        2 0.18406033E+00 0.16694939E+04</pdfrwt>
<pdfrwt beam="2">  1       -2 0.89603050E-01 0.16694939E+04</pdfrwt>
<totfact> 0.19387479E+01</totfact>
</mgrwt>
</event>
<event>
 6    1  0.4630212E-004  0.1802198E+04  0.7818608E-02  0.8705131E-01
         -2   -1    0    0    0  501 -0.00000000000E+00  0.00000000000E+00  0.11862273943E+04  0.11862273943E+04  0.00000000000E+00 0. -1.
          2   -1    0    0  501    0  0.00000000000E+00 -0.00000000000E+00 -0.68450601093E+03  0.68450601093E+03  0.00000000000E+00 0.  1.
         23    2    1    2    0    0 -0.48529052998E+03 -0.68557689914E+03  0.58372991356E+03  0.10267855501E+04  0.89584433408E+02 0.  0.
         13    1    3    3    0    0 -0.99424971862E+02 -0.18504386007E+03  0.18175909310E+03  0.27778215044E+03  0.00000000000E+00 0.  1.
        -13    1    3    3    0    0 -0.38586555812E+03 -0.50053303907E+03  0.40197082046E+03  0.74900339962E+03  0.00000000000E+00 0. -1.
         22    1    1    2    0    0  0.48529052998E+03  0.68557689914E+03 -0.82008530237E+02  0.84394785512E+03  0.00000000000E+00 0.  1.
<mgrwt>
<rscale>  0 0.18021984E+04</rscale>
<asrwt>0</asrwt>
<pdfrwt beam="1">  1        2 0.10530862E+00 0.18021984E+04</pdfrwt>
<pdfrwt beam="2">  1       -2 0.18249652E+00 0.18021984E+04</pdfrwt>
<totfact> 0.69287126E+00</totfact>
</mgrwt>
</event>
<event>
 6    1  0.4630212E-004  0.3750114E+04  0.7818608E-02  0.8056946E-01
         -2   -1    0    0    0  501 -0.00000000000E+00  0.00000000000E+00  0.91310871502E+03  0.91310871502E+03  0.00000000000E+00 0. -1.
          2   -1    0    0  501    0  0.00000000000E+00 -0.00000000000E+00 -0.38504055309E+04  0.38504055309E+04  0.00000000000E+00 0.  1.
         23    2    1    2    0    0 -0.10490550927E+04  0.54667705690E+03 -0.33156101567E+04  0.35215426779E+04  0.92842493792E+02 0.  0.
         11    1    3    3    0    0 -0.26988683887E+03  0.96047990251E+02 -0.81045152239E+03  0.85959047945E+03  0.00000000000E+00 0. -1.
        -11    1    3    3    0    0 -0.77916825388E+03  0.45062906665E+03 -0.25051586343E+04  0.26619521984E+04  0.00000000000E+00 0.  1.
         22    1    1    2    0    0  0.10490550927E+04 -0.54667705690E+03  0.37831334077E+03  0.12419715681E+04  0.00000000000E+00 0. -1.
<mgrwt>
<rscale>  0 0.37501140E+04</rscale>
<asrwt>0</asrwt>
<pdfrwt beam="1">  1        2 0.59237010E+00 0.37501140E+04</pdfrwt>
<pdfrwt beam="2">  1       -2 0.14047826E+00 0.37501140E+04</pdfrwt>
<totfact> 0.12841645E-01</totfact>
</mgrwt>
</event>
<event>
 6    1  0.4630212E-004  0.1767362E+04  0.7818608E-02  0.8723851E-01
         -2   -1    0    0    0  501 -0.00000000000E+00  0.00000000000E+00  0.36776447912E+03  0.36776447912E+03  0.00000000000E+00 0. -1.
          2   -1    0    0  501    0  0.00000000000E+00 -0.00000000000E+00 -0.21233475864E+04  0.21233475864E+04  0.00000000000E+00 0.  1.
         23    2    1    2    0    0 -0.41599951124E+03  0.77448579016E+03 -0.96702448118E+03  0.13101342760E+04  0.91823970016E+02 0.  0.
         11    1    3    3    0    0 -0.25071407339E+03  0.46433564378E+03 -0.51274208965E+03  0.73577821875E+03  0.00000000000E+00 0. -1.
        -11    1    3    3    0    0 -0.16528543784E+03  0.31015014637E+03 -0.45428239153E+03  0.57435605727E+03  0.00000000000E+00 0.  1.
         22    1    1    2    0    0  0.41599951124E+03 -0.77448579016E+03 -0.78855862606E+03  0.11809777895E+04  0.00000000000E+00 0. -1.
<mgrwt>
<rscale>  0 0.17673617E+04</rscale>
<asrwt>0</asrwt>
<pdfrwt beam="1">  1        2 0.32666886E+00 0.17673617E+04</pdfrwt>
<pdfrwt beam="2">  1       -2 0.56579150E-01 0.17673617E+04</pdfrwt>
<totfact> 0.15819054E+01</totfact>
</mgrwt>
</event>
<event>
 6    1  0.4630212E-004  0.4340268E+04  0.7818608E-02  0.7939214E-01
          2   -1    0    0  501    0  0.00000000000E+00  0.00000000000E+00  0.37275842804E+04  0.37275842804E+04  0.00000000000E+00 0.  1.
         -2   -1    0    0    0  501 -0.00000000000E+00 -0.00000000000E+00 -0.12634140552E+04  0.12634140552E+04  0.00000000000E+00 0. -1.
         23    2    1    2    0    0 -0.84013409320E+03 -0.57653523890E+03 -0.96940564622E+03  0.14094258540E+04  0.92280847901E+02 0.  0.
         13    1    3    3    0    0 -0.91577123894E+02 -0.86041671217E+02 -0.88669346553E+02  0.15379139061E+03  0.00000000000E+00 0. -1.
        -13    1    3    3    0    0 -0.74855696931E+03 -0.49049356769E+03 -0.88073629966E+03  0.12556344634E+04  0.00000000000E+00 0.  1.
         22    1    1    2    0    0  0.84013409320E+03  0.57653523890E+03  0.34335758714E+04  0.35815724815E+04  0.00000000000E+00 0.  1.
<mgrwt>
<rscale>  0 0.43402684E+04</rscale>
<asrwt>0</asrwt>
<pdfrwt beam="1">  1        2 0.57347450E+00 0.43402684E+04</pdfrwt>
<pdfrwt beam="2">  1       -2 0.19437140E+00 0.43402684E+04</pdfrwt>
<totfact> 0.61761116E-02</totfact>
</mgrwt>
</event>
<event>
 6    1  0.4630212E-004  0.2794890E+04  0.7818608E-02  0.8304857E-01
         -2   -1    0    0    0  501 -0.00000000000E+00  0.00000000000E+00  0.13114027275E+04  0.13114027275E+04  0.00000000000E+00 0. -1.
          2   -1    0    0  501    0  0.00000000000E+00 -0.00000000000E+00 -0.14891326198E+04  0.14891326198E+04  0.00000000000E+00 0.  1.
         23    2    1    2    0    0  0.43643365433E+03  0.43203630087E+02 -0.14166318045E+04  0.14862983686E+04  0.99480060736E+02 0.  0.
         13    1    3    3    0    0  0.24991966309E+03  0.63553680767E+02 -0.71769060271E+03  0.76261307985E+03  0.00000000000E+00 0.  1.
        -13    1    3    3    0    0  0.18651399124E+03 -0.20350050680E+02 -0.69894120182E+03  0.72368528870E+03  0.00000000000E+00 0. -1.
         22    1    1    2    0    0 -0.43643365433E+03 -0.43203630087E+02  0.12389019122E+04  0.13142369788E+04  0.00000000000E+00 0. -1.
<mgrwt>
<rscale>  0 0.27948900E+04</rscale>
<asrwt>0</asrwt>
<pdfrwt beam="1">  1        2 0.22909733E+00 0.27948900E+04</pdfrwt>
<pdfrwt beam="2">  1       -2 0.20175427E+00 0.27948900E+04</pdfrwt>
<totfact> 0.14517986E+00</totfact>
</mgrwt>
</event>
<event>
 6    1  0.4630212E-004  0.1713996E+04  0.7818608E-02  0.8753422E-01
          2   -1    0    0  501    0  0.00000000000E+00  0.00000000000E+00  0.14113204005E+04  0.14113204005E+04  0.00000000000E+00 0.  1.
         -2   -1    0    0    0  501 -0.00000000000E+00 -0.00000000000E+00 -0.52039627681E+03  0.52039627681E+03  0.00000000000E+00 0. -1.
         23    2    1    2    0    0  0.59403743969E+03  0.43807448617E+02  0.11375755923E+04  0.12870178955E+04  0.86817410857E+02 0.  0.
         11    1    3    3    0    0  0.51030623071E+02  0.19762120314E+02  0.15119379735E+03  0.16079250682E+03  0.00000000000E+00 0. -1.
        -11    1    3    3    0    0  0.54300681662E+03  0.24045328303E+02  0.98638179493E+03  0.11262253887E+04  0.00000000000E+00 0.  1.
         22    1    1    2    0    0 -0.59403743969E+03 -0.43807448617E+02 -0.24665146861E+03  0.64469878181E+03  0.00000000000E+00 0. -1.
<mgrwt>
<rscale>  0 0.17139964E+04</rscale>
<asrwt>0</asrwt>
<pdfrwt beam="1">  1        2 0.21712621E+00 0.17139964E+04</pdfrwt>
<pdfrwt beam="2">  1       -2 0.80060966E-01 0.17139964E+04</pdfrwt>
<totfact> 0.18699497E+01</totfact>
</mgrwt>
</event>
<event>
 6    1  0.4630212E-004  0.2216211E+04  0.7818608E-02  0.8511711E-01
         -2   -1    0    0    0  501 -0.00000000000E+00  0.00000000000E+00  0.11069799389E+04  0.11069799389E+04  0.00000000000E+00 0. -1.
          2   -1    0    0  501    0  0.00000000000E+00 -0.00000000000E+00 -0.11092326210E+04  0.11092326210E+04  0.00000000000E+00 0.  1.
         23    2    1    2    0    0 -0.54668321900E+03 -0.29307794417E+03  0.91505474878E+03  0.11088688256E+04  0.86646730181E+02 0.  0.
         11    1    3    3    0    0 -0.17905188862E+03 -0.92062537235E+02  0.22837829891E+03  0.30445317701E+03  0.00000000000E+00 0. -1.
        -11    1    3    3    0    0 -0.36763133038E+03 -0.20101540694E+03  0.68667644987E+03  0.80441564860E+03  0.00000000000E+00 0.  1.
         22    1    1    2    0    0  0.54668321900E+03  0.29307794417E+03 -0.91730743087E+03  0.11073437344E+04  0.00000000000E+00 0.  1.
<mgrwt>
<rscale>  0 0.22162114E+04</rscale>
<asrwt>0</asrwt>
<pdfrwt beam="1">  1        2 0.17065117E+00 0.22162114E+04</pdfrwt>
<pdfrwt beam="2">  1       -2 0.17030461E+00 0.22162114E+04</pdfrwt>
<totfact> 0.41622908E+00</totfact>
</mgrwt>
</event>
<event>
 6    1  0.4630212E-004  0.4357400E+04  0.7818608E-02  0.7936089E-01
         -2   -1    0    0    0  501 -0.00000000000E+00  0.00000000000E+00  0.26610246622E+04  0.26610246622E+04  0.00000000000E+00 0. -1.
          2   -1    0    0  501    0  0.00000000000E+00 -0.00000000000E+00 -0.17837993014E+04  0.17837993014E+04  0.00000000000E+00 0.  1.
         23    2    1    2    0    0  0.11980467612E+04  0.22836346005E+03  0.22792540182E+04  0.25865585713E+04  0.88433316392E+02 0.  0.
         11    1    3    3    0    0  0.59142945273E+03  0.99469052840E+02  0.12099995060E+04  0.13504746183E+04  0.00000000000E+00 0. -1.
        -11    1    3    3    0    0  0.60661730849E+03  0.12889440721E+03  0.10692545121E+04  0.12360839530E+04  0.00000000000E+00 0.  1.
         22    1    1    2    0    0 -0.11980467612E+04 -0.22836346005E+03 -0.14020286574E+04  0.18582653923E+04  0.00000000000E+00 0.  1.
<mgrwt>
<rscale>  0 0.43574001E+04</rscale>
<asrwt>0</asrwt>
<pdfrwt beam="1">  1        2 0.27443066E+00 0.43574001E+04</pdfrwt>
<pdfrwt beam="2">  1       -2 0.40938841E+00 0.43574001E+04</pdfrwt>
<totfact> 0.43493250E-02</totfact>
</mgrwt>
</event>
<event>
 6    1  0.4630212E-004  0.6929228E+04  0.7818608E-02  0.7584778E-01
         -2   -1    0    0    0  501 -0.00000000000E+00  0.00000000000E+00  0.22703570359E+04  0.22703570359E+04  0.00000000000E+00 0. -1.
          2   -1    0    0  501    0  0.00000000000E+00 -0.00000000000E+00 -0.52870763346E+04  0.52870763346E+04  0.00000000000E+00 0.  1.
         23    2    1    2    0    0 -0.71781908753E+03 -0.33617016609E+04 -0.10418223053E+04  0.35930266767E+04  0.90247905457E+02 0.  0.
         13    1    3    3    0    0 -0.23184979511E+03 -0.12257072483E+04 -0.41159076467E+03  0.13135903256E+04  0.00000000000E+00 0.  1.
        -13    1    3    3    0    0 -0.48596929243E+03 -0.21359944126E+04 -0.63023154058E+03  0.22794363511E+04  0.00000000000E+00 0. -1.
         22    1    1    2    0    0  0.71781908753E+03  0.33617016609E+04 -0.19748969934E+04  0.39644066938E+04  0.00000000000E+00 0.  1.
<mgrwt>
<rscale>  0 0.69292282E+04</rscale>
<asrwt>0</asrwt>
<pdfrwt beam="1">  1        2 0.81339636E+00 0.69292282E+04</pdfrwt>
<pdfrwt beam="2">  1       -2 0.34928570E+00 0.69292282E+04</pdfrwt>
<totfact> 0.13017544E-04</totfact>
</mgrwt>
</event>
<event>
 6    1  0.4630212E-004  0.2724639E+04  0.7818608E-02  0.8327054E-01
          2   -1    0    0  501    0  0.00000000000E+00  0.00000000000E+00  0.60030544933E+03  0.60030544933E+03  0.00000000000E+00 0.  1.
         -2   -1    0    0    0  501 -0.00000000000E+00 -0.00000000000E+00 -0.30916177796E+04  0.30916177796E+04  0.00000000000E+00 0. -1.
         23    2    1    2    0    0 -0.44246966246E+03  0.85090911724E+03  0.61073846526E+02  0.96529510549E+03  0.90768375274E+02 0.  0.
         13    1    3    3    0    0 -0.27882319564E+03  0.61201675726E+03  0.65261642320E+02  0.67569665350E+03  0.00000000000E+00 0.  1.
        -13    1    3    3    0    0 -0.16364646682E+03  0.23889235998E+03 -0.41877957935E+01  0.28959845199E+03  0.00000000000E+00 0. -1.
         22    1    1    2    0    0  0.44246966246E+03 -0.85090911724E+03 -0.25523861768E+04  0.27266281234E+04  0.00000000000E+00 0. -1.
<mgrwt>
<rscale>  0 0.27246394E+04</rscale>
<asrwt>0</asrwt>
<pdfrwt beam="1">  1        2 0.92354687E-01 0.27246394E+04</pdfrwt>
<pdfrwt beam="2">  1       -2 0.47563349E+00 0.27246394E+04</pdfrwt>
<totfact> 0.10202249E-01</totfact>
</mgrwt>
</event>
<event>
 6    1  0.4630212E-004  0.1663729E+04  0.7818608E-02  0.8782326E-01
          2   -1    0    0  501    0  0.00000000000E+00  0.00000000000E+00  0.76000668284E+03  0.76000668284E+03  0.00000000000E+00 0.  1.
         -2   -1    0    0    0  501 -0.00000000000E+00 -0.00000000000E+00 -0.91051660987E+03  0.91051660987E+03  0.00000000000E+00 0. -1.
         23    2    1    2    0    0  0.63258355843E+03  0.20375714938E+03 -0.57367505166E+03  0.88264788567E+03  0.91023573123E+02 0.  0.
         11    1    3    3    0    0  0.22981742194E+03  0.10682163269E+03 -0.17725928453E+03  0.30926972466E+03  0.00000000000E+00 0.  1.
        -11    1    3    3    0    0  0.40276613649E+03  0.96935516692E+02 -0.39641576713E+03  0.57337816101E+03  0.00000000000E+00 0. -1.
         22    1    1    2    0    0 -0.63258355843E+03 -0.20375714938E+03  0.42316512463E+03  0.78787540704E+03  0.00000000000E+00 0.  1.
<mgrwt>
<rscale>  0 0.16637292E+04</rscale>
<asrwt>0</asrwt>
<pdfrwt beam="1">  1        2 0.11692411E+00 0.16637292E+04</pdfrwt>
<pdfrwt beam="2">  1       -2 0.14007948E+00 0.16637292E+04</pdfrwt>
<totfact> 0.12609009E+01</totfact>
</mgrwt>
</event>
<event>
 6    1  0.4630212E-004  0.1229249E+04  0.7818608E-02  0.9087633E-01
         -2   -1    0    0    0  501 -0.00000000000E+00  0.00000000000E+00  0.20025269344E+03  0.20025269344E+03  0.00000000000E+00 0. -1.
          2   -1    0    0  501    0  0.00000000000E+00 -0.00000000000E+00 -0.18864336357E+04  0.18864336357E+04  0.00000000000E+00 0.  1.
         23    2    1    2    0    0  0.22207808486E+03 -0.41455747376E+03 -0.15103668450E+04  0.15846034957E+04  0.92648028788E+02 0.  0.
         11    1    3    3    0    0  0.83730625298E+02 -0.25124719968E+03 -0.80033912841E+03  0.84301761157E+03  0.00000000000E+00 0. -1.
        -11    1    3    3    0    0  0.13834745957E+03 -0.16331027408E+03 -0.71002771663E+03  0.74158588415E+03  0.00000000000E+00 0.  1.
         22    1    1    2    0    0 -0.22207808486E+03  0.41455747376E+03 -0.17581409722E+03  0.50208283341E+03  0.00000000000E+00 0. -1.
<mgrwt>
<rscale>  0 0.12292492E+04</rscale>
<asrwt>0</asrwt>
<pdfrwt beam="1">  1        2 0.29022054E+00 0.12292492E+04</pdfrwt>
<pdfrwt beam="2">  1       -2 0.30808108E-01 0.12292492E+04</pdfrwt>
<totfact> 0.74282887E+01</totfact>
</mgrwt>
</event>
<event>
 6    1  0.4630212E-004  0.3618887E+04  0.7818608E-02  0.8086179E-01
         -2   -1    0    0    0  501 -0.00000000000E+00  0.00000000000E+00  0.20826842717E+04  0.20826842717E+04  0.00000000000E+00 0. -1.
          2   -1    0    0  501    0  0.00000000000E+00 -0.00000000000E+00 -0.15720511198E+04  0.15720511198E+04  0.00000000000E+00 0.  1.
         23    2    1    2    0    0 -0.17766246080E+04 -0.19026327189E+03 -0.25061774542E+02  0.17893764007E+04  0.92976882444E+02 0.  0.
         11    1    3    3    0    0 -0.10644938238E+04 -0.68151070223E+02 -0.16605440753E+02  0.10668024231E+04  0.00000000000E+00 0. -1.
        -11    1    3    3    0    0 -0.71213078417E+03 -0.12211220166E+03 -0.84563337888E+01  0.72257397762E+03  0.00000000000E+00 0.  1.
         22    1    1    2    0    0  0.17766246080E+04  0.19026327189E+03  0.53569492652E+03  0.18653589908E+04  0.00000000000E+00 0. -1.
<mgrwt>
<rscale>  0 0.36188872E+04</rscale>
<asrwt>0</asrwt>
<pdfrwt beam="1">  1        2 0.24185402E+00 0.36188872E+04</pdfrwt>
<pdfrwt beam="2">  1       -2 0.32041297E+00 0.36188872E+04</pdfrwt>
<totfact> 0.22391805E-01</totfact>
</mgrwt>
</event>
<event>
 6    1  0.4630212E-004  0.1532743E+04  0.7818608E-02  0.8862966E-01
         -2   -1    0    0    0  501 -0.00000000000E+00  0.00000000000E+00  0.14530766786E+04  0.14530766786E+04  0.00000000000E+00 0. -1.
          2   -1    0    0  501    0  0.00000000000E+00 -0.00000000000E+00 -0.40419440893E+03  0.40419440893E+03  0.00000000000E+00 0.  1.
         23    2    1    2    0    0  0.47127627048E+03  0.19354597612E+03  0.12150515689E+04  0.13213852751E+04  0.10073411590E+03 0.  0.
         13    1    3    3    0    0  0.35387131926E+03  0.17785556810E+03  0.85324189532E+03  0.94068020370E+03  0.00000000000E+00 0. -1.
        -13    1    3    3    0    0  0.11740495122E+03  0.15690408014E+02  0.36180967360E+03  0.38070507139E+03  0.00000000000E+00 0.  1.
         22    1    1    2    0    0 -0.47127627048E+03 -0.19354597612E+03 -0.16616929923E+03  0.53588581245E+03  0.00000000000E+00 0.  1.
<mgrwt>
<rscale>  0 0.15327433E+04</rscale>
<asrwt>0</asrwt>
<pdfrwt beam="1">  1        2 0.62183756E-01 0.15327433E+04</pdfrwt>
<pdfrwt beam="2">  1       -2 0.22355026E+00 0.15327433E+04</pdfrwt>
<totfact> 0.71052702E+00</totfact>
</mgrwt>
</event>
<event>
 6    1  0.4630212E-004  0.2546501E+04  0.7818608E-02  0.8386604E-01
          2   -1    0    0  501    0  0.00000000000E+00  0.00000000000E+00  0.72005253393E+03  0.72005253393E+03  0.00000000000E+00 0.  1.
         -2   -1    0    0    0  501 -0.00000000000E+00 -0.00000000000E+00 -0.22514565607E+04  0.22514565607E+04  0.00000000000E+00 0. -1.
         23    2    1    2    0    0 -0.47357865277E+03 -0.11803785902E+04 -0.77140805495E+03  0.14899004305E+04  0.84631844348E+02 0.  0.
         13    1    3    3    0    0 -0.27594263769E+03 -0.72424825843E+03 -0.51522531050E+03  0.93066481598E+03  0.00000000000E+00 0.  1.
        -13    1    3    3    0    0 -0.19763601508E+03 -0.45613033174E+03 -0.25618274445E+03  0.55923561452E+03  0.00000000000E+00 0. -1.
         22    1    1    2    0    0  0.47357865277E+03  0.11803785902E+04 -0.75999597184E+03  0.14816086642E+04  0.00000000000E+00 0.  1.
<mgrwt>
<rscale>  0 0.25465011E+04</rscale>
<asrwt>0</asrwt>
<pdfrwt beam="1">  1        2 0.11077731E+00 0.25465011E+04</pdfrwt>
<pdfrwt beam="2">  1       -2 0.34637794E+00 0.25465011E+04</pdfrwt>
<totfact> 0.57603276E-01</totfact>
</mgrwt>
</event>
<event>
 6    1  0.4630212E-004  0.3950333E+04  0.7818608E-02  0.8014642E-01
          2   -1    0    0  501    0  0.00000000000E+00  0.00000000000E+00  0.16588003325E+04  0.16588003325E+04  0.00000000000E+00 0.  1.
         -2   -1    0    0    0  501 -0.00000000000E+00 -0.00000000000E+00 -0.23518699272E+04  0.23518699272E+04  0.00000000000E+00 0. -1.
         23    2    1    2    0    0  0.59548473064E+03 -0.95919042524E+02  0.15617160229E+04  0.16766049845E+04  0.90800941164E+02 0.  0.
         13    1    3    3    0    0  0.21732878616E+03 -0.75344635479E+02  0.53942461599E+03  0.58641924570E+03  0.00000000000E+00 0.  1.
        -13    1    3    3    0    0  0.37815594448E+03 -0.20574407045E+02  0.10222914069E+04  0.10901857388E+04  0.00000000000E+00 0. -1.
         22    1    1    2    0    0 -0.59548473064E+03  0.95919042524E+02 -0.22547856177E+04  0.23340652752E+04  0.00000000000E+00 0. -1.
<mgrwt>
<rscale>  0 0.39503330E+04</rscale>
<asrwt>0</asrwt>
<pdfrwt beam="1">  1        2 0.25520005E+00 0.39503330E+04</pdfrwt>
<pdfrwt beam="2">  1       -2 0.36182614E+00 0.39503330E+04</pdfrwt>
<totfact> 0.10717915E-01</totfact>
</mgrwt>
</event>
<event>
 6    1  0.4630212E-004  0.2110787E+04  0.7818608E-02  0.8556507E-01
         -4   -1    0    0    0  501 -0.00000000000E+00  0.00000000000E+00  0.11830322551E+04  0.11830322551E+04  0.00000000000E+00 0. -1.
          4   -1    0    0  501    0  0.00000000000E+00 -0.00000000000E+00 -0.94152558012E+03  0.94152558012E+03  0.00000000000E+00 0.  1.
         23    2    1    2    0    0  0.23563602456E+03 -0.33647158983E+03  0.10972552756E+04  0.11753249163E+04  0.93177530757E+02 0.  0.
         11    1    3    3    0    0  0.18020162493E+03 -0.31265937401E+03  0.94256614080E+03  0.10092865993E+04  0.00000000000E+00 0. -1.
        -11    1    3    3    0    0  0.55434399628E+02 -0.23812215822E+02  0.15468913479E+03  0.16603831699E+03  0.00000000000E+00 0.  1.
         22    1    1    2    0    0 -0.23563602456E+03  0.33647158983E+03 -0.85574860063E+03  0.94923291889E+03  0.00000000000E+00 0.  1.
<mgrwt>
<rscale>  0 0.21107867E+04</rscale>
<asrwt>0</asrwt>
<pdfrwt beam="1">  1        4 0.14485009E+00 0.21107867E+04</pdfrwt>
<pdfrwt beam="2">  1       -4 0.18200496E+00 0.21107867E+04</pdfrwt>
<totfact> 0.10474586E-01</totfact>
</mgrwt>
</event>
<event>
 6    1  0.4630212E-004  0.1920088E+04  0.7818608E-02  0.8644921E-01
          2   -1    0    0  501    0  0.00000000000E+00  0.00000000000E+00  0.21698208313E+04  0.21698208313E+04  0.00000000000E+00 0.  1.
         -2   -1    0    0    0  501 -0.00000000000E+00 -0.00000000000E+00 -0.42477454957E+03  0.42477454957E+03  0.00000000000E+00 0. -1.
         23    2    1    2    0    0  0.13808025020E+03 -0.57631481958E+03  0.18916810630E+04  0.19840983000E+04  0.83569690682E+02 0.  0.
         11    1    3    3    0    0  0.67322728002E+02 -0.31927527991E+03  0.90467733558E+03  0.96172248366E+03  0.00000000000E+00 0. -1.
        -11    1    3    3    0    0  0.70757522198E+02 -0.25703953967E+03  0.98700372739E+03  0.10223758163E+04  0.00000000000E+00 0.  1.
         22    1    1    2    0    0 -0.13808025020E+03  0.57631481958E+03 -0.14663478120E+03  0.61049708093E+03  0.00000000000E+00 0. -1.
<mgrwt>
<rscale>  0 0.19200882E+04</rscale>
<asrwt>0</asrwt>
<pdfrwt beam="1">  1        2 0.33381858E+00 0.19200882E+04</pdfrwt>
<pdfrwt beam="2">  1       -2 0.65349932E-01 0.19200882E+04</pdfrwt>
<totfact> 0.10836120E+01</totfact>
</mgrwt>
</event>
<event>
 6    1  0.4630212E-004  0.1691978E+04  0.7818608E-02  0.8765953E-01
         -2   -1    0    0    0  501 -0.00000000000E+00  0.00000000000E+00  0.44029184041E+03  0.44029184041E+03  0.00000000000E+00 0. -1.
          2   -1    0    0  501    0  0.00000000000E+00 -0.00000000000E+00 -0.16255077019E+04  0.16255077019E+04  0.00000000000E+00 0.  1.
         23    2    1    2    0    0 -0.17775742407E+03  0.64781979883E+03  0.28641338321E+02  0.67845766120E+03  0.90643688231E+02 0.  0.
         13    1    3    3    0    0 -0.79209302862E+02  0.40987309843E+03 -0.12509299780E+02  0.41764405067E+03  0.00000000000E+00 0.  1.
        -13    1    3    3    0    0 -0.98548121204E+02  0.23794670040E+03  0.41150638101E+02  0.26081361053E+03  0.00000000000E+00 0. -1.
         22    1    1    2    0    0  0.17775742407E+03 -0.64781979883E+03 -0.12138571998E+04  0.13873418811E+04  0.00000000000E+00 0.  1.
<mgrwt>
<rscale>  0 0.16919785E+04</rscale>
<asrwt>0</asrwt>
<pdfrwt beam="1">  1        2 0.25007811E+00 0.16919785E+04</pdfrwt>
<pdfrwt beam="2">  1       -2 0.67737206E-01 0.16919785E+04</pdfrwt>
<totfact> 0.20516072E+01</totfact>
</mgrwt>
</event>
<event>
 6    1  0.4630212E-004  0.3239561E+04  0.7818608E-02  0.8178447E-01
         -2   -1    0    0    0  501 -0.00000000000E+00  0.00000000000E+00  0.24165184583E+04  0.24165184583E+04  0.00000000000E+00 0. -1.
          2   -1    0    0  501    0  0.00000000000E+00 -0.00000000000E+00 -0.10857306248E+04  0.10857306248E+04  0.00000000000E+00 0.  1.
         23    2    1    2    0    0 -0.15721371539E+04  0.10528449084E+03  0.10663722124E+04  0.19045583510E+04  0.86560743684E+02 0.  0.
         13    1    3    3    0    0 -0.84065164439E+03  0.85843660705E+02  0.60949032431E+03  0.10418938414E+04  0.00000000000E+00 0.  1.
        -13    1    3    3    0    0 -0.73148550951E+03  0.19440830135E+02  0.45688188814E+03  0.86266450965E+03  0.00000000000E+00 0. -1.
         22    1    1    2    0    0  0.15721371539E+04 -0.10528449084E+03  0.26441562100E+03  0.15976907321E+04  0.00000000000E+00 0.  1.
<mgrwt>
<rscale>  0 0.32395605E+04</rscale>
<asrwt>0</asrwt>
<pdfrwt beam="1">  1        2 0.16703548E+00 0.32395605E+04</pdfrwt>
<pdfrwt beam="2">  1       -2 0.37177207E+00 0.32395605E+04</pdfrwt>
<totfact> 0.21093901E-01</totfact>
</mgrwt>
</event>
<event>
 6    1  0.4630212E-004  0.2998227E+04  0.7818608E-02  0.8244237E-01
         -2   -1    0    0    0  501 -0.00000000000E+00  0.00000000000E+00  0.20136945636E+04  0.20136945636E+04  0.00000000000E+00 0. -1.
          2   -1    0    0  501    0  0.00000000000E+00 -0.00000000000E+00 -0.11160289599E+04  0.11160289599E+04  0.00000000000E+00 0.  1.
         23    2    1    2    0    0  0.11918535594E+03 -0.50158770998E+03  0.19170842013E+04  0.19873533309E+04  0.92552942250E+02 0.  0.
         11    1    3    3    0    0  0.29070475428E+02 -0.29545843499E+03  0.11743742132E+04  0.12113197645E+04  0.00000000000E+00 0. -1.
        -11    1    3    3    0    0  0.90114880508E+02 -0.20612927499E+03  0.74270998813E+03  0.77603356639E+03  0.00000000000E+00 0.  1.
         22    1    1    2    0    0 -0.11918535594E+03  0.50158770998E+03 -0.10194185976E+04  0.11423701926E+04  0.00000000000E+00 0.  1.
<mgrwt>
<rscale>  0 0.29982271E+04</rscale>
<asrwt>0</asrwt>
<pdfrwt beam="1">  1        2 0.17169676E+00 0.29982271E+04</pdfrwt>
<pdfrwt beam="2">  1       -2 0.30979916E+00 0.29982271E+04</pdfrwt>
<totfact> 0.50451744E-01</totfact>
</mgrwt>
</event>
<event>
 6    1  0.4630212E-004  0.4533702E+04  0.7818608E-02  0.7904763E-01
         -2   -1    0    0    0  501 -0.00000000000E+00  0.00000000000E+00  0.53016692936E+04  0.53016692936E+04  0.00000000000E+00 0. -1.
          2   -1    0    0  501    0  0.00000000000E+00 -0.00000000000E+00 -0.96924447461E+03  0.96924447461E+03  0.00000000000E+00 0.  1.
         23    2    1    2    0    0 -0.21291082335E+04 -0.36419130100E+03  0.31142610811E+04  0.37910629530E+04  0.88312277756E+02 0.  0.
         13    1    3    3    0    0 -0.12395937717E+04 -0.25589625850E+03  0.18148423813E+04  0.22126293144E+04  0.00000000000E+00 0.  1.
        -13    1    3    3    0    0 -0.88951446175E+03 -0.10829504250E+03  0.12994186998E+04  0.15784336386E+04  0.00000000000E+00 0. -1.
         22    1    1    2    0    0  0.21291082335E+04  0.36419130100E+03  0.12181637379E+04  0.24798508152E+04  0.00000000000E+00 0.  1.
<mgrwt>
<rscale>  0 0.45337021E+04</rscale>
<asrwt>0</asrwt>
<pdfrwt beam="1">  1        2 0.14911454E+00 0.45337021E+04</pdfrwt>
<pdfrwt beam="2">  1       -2 0.81564141E+00 0.45337021E+04</pdfrwt>
<totfact> 0.12237707E-03</totfact>
</mgrwt>
</event>
<event>
 6    1  0.4630212E-004  0.9099199E+03  0.7818608E-02  0.9413265E-01
         -2   -1    0    0    0  501 -0.00000000000E+00  0.00000000000E+00  0.77395135364E+02  0.77395135364E+02  0.00000000000E+00 0. -1.
          2   -1    0    0  501    0  0.00000000000E+00 -0.00000000000E+00 -0.26744385811E+04  0.26744385811E+04  0.00000000000E+00 0.  1.
         23    2    1    2    0    0 -0.23595339762E+03 -0.30609932071E+03 -0.61220975818E+03  0.72972205603E+03  0.91228784164E+02 0.  0.
         13    1    3    3    0    0 -0.18765423940E+03 -0.22388017545E+03 -0.38474716966E+03  0.48308056376E+03  0.00000000000E+00 0.  1.
        -13    1    3    3    0    0 -0.48299158222E+02 -0.82219145262E+02 -0.22746258852E+03  0.24664149227E+03  0.00000000000E+00 0. -1.
         22    1    1    2    0    0  0.23595339762E+03  0.30609932071E+03 -0.19848336876E+04  0.20221116605E+04  0.00000000000E+00 0. -1.
<mgrwt>
<rscale>  0 0.90991986E+03</rscale>
<asrwt>0</asrwt>
<pdfrwt beam="1">  1        2 0.41145208E+00 0.90991986E+03</pdfrwt>
<pdfrwt beam="2">  1       -2 0.11906944E-01 0.90991986E+03</pdfrwt>
<totfact> 0.14555402E+02</totfact>
</mgrwt>
</event>
<event>
 6    1  0.4630212E-004  0.2423008E+04  0.7818608E-02  0.8430940E-01
         -2   -1    0    0    0  501 -0.00000000000E+00  0.00000000000E+00  0.64352696808E+03  0.64352696808E+03  0.00000000000E+00 0. -1.
          2   -1    0    0  501    0  0.00000000000E+00 -0.00000000000E+00 -0.22807782584E+04  0.22807782584E+04  0.00000000000E+00 0.  1.
         23    2    1    2    0    0 -0.89915532473E+03  0.73202937168E+03 -0.40346408595E+03  0.12312080159E+04  0.93501928531E+02 0.  0.
         11    1    3    3    0    0 -0.72218320815E+03  0.53891026469E+03 -0.30337171251E+03  0.95079296141E+03  0.00000000000E+00 0.  1.
        -11    1    3    3    0    0 -0.17697211658E+03  0.19311910699E+03 -0.10009237344E+03  0.28041505444E+03  0.00000000000E+00 0. -1.
         22    1    1    2    0    0  0.89915532473E+03 -0.73202937168E+03 -0.12337872044E+04  0.16930972106E+04  0.00000000000E+00 0.  1.
<mgrwt>
<rscale>  0 0.24230083E+04</rscale>
<asrwt>0</asrwt>
<pdfrwt beam="1">  1        2 0.35088897E+00 0.24230083E+04</pdfrwt>
<pdfrwt beam="2">  1       -2 0.99004148E-01 0.24230083E+04</pdfrwt>
<totfact> 0.35286431E+00</totfact>
</mgrwt>
</event>
<event>
 6    1  0.4630212E-004  0.1470275E+04  0.7818608E-02  0.8904464E-01
          2   -1    0    0  501    0  0.00000000000E+00  0.00000000000E+00  0.80438240572E+03  0.80438240572E+03  0.00000000000E+00 0.  1.
         -2   -1    0    0    0  501 -0.00000000000E+00 -0.00000000000E+00 -0.67185353809E+03  0.67185353809E+03  0.00000000000E+00 0. -1.
         23    2    1    2    0    0 -0.54875425157E+03 -0.47469026404E+03 -0.32682571147E+02  0.73208750775E+03  0.91770873205E+02 0.  0.
         13    1    3    3    0    0 -0.92488935703E+02 -0.12453177564E+03  0.94176654179E+01  0.15540610926E+03  0.00000000000E+00 0.  1.
        -13    1    3    3    0    0 -0.45626531586E+03 -0.35015848839E+03 -0.42100236565E+02  0.57668139850E+03  0.00000000000E+00 0. -1.
         22    1    1    2    0    0  0.54875425157E+03  0.47469026404E+03  0.16521143877E+03  0.74414843606E+03  0.00000000000E+00 0. -1.
<mgrwt>
<rscale>  0 0.14702750E+04</rscale>
<asrwt>0</asrwt>
<pdfrwt beam="1">  1        2 0.12375114E+00 0.14702750E+04</pdfrwt>
<pdfrwt beam="2">  1       -2 0.10336208E+00 0.14702750E+04</pdfrwt>
<totfact> 0.25280892E+01</totfact>
</mgrwt>
</event>
<event>
 6    1  0.4630212E-004  0.2449382E+04  0.7818608E-02  0.8421244E-01
         -2   -1    0    0    0  501 -0.00000000000E+00  0.00000000000E+00  0.64392334249E+03  0.64392334249E+03  0.00000000000E+00 0. -1.
          2   -1    0    0  501    0  0.00000000000E+00 -0.00000000000E+00 -0.23292650600E+04  0.23292650600E+04  0.00000000000E+00 0.  1.
         23    2    1    2    0    0 -0.11211036640E+04  0.13649831839E+03 -0.14135178336E+04  0.18115544497E+04  0.90507689731E+02 0.  0.
         13    1    3    3    0    0 -0.69675600772E+03  0.56777664441E+02 -0.81876537775E+03  0.10766008458E+04  0.00000000000E+00 0. -1.
        -13    1    3    3    0    0 -0.42434765631E+03  0.79720653952E+02 -0.59475245581E+03  0.73495360382E+03  0.00000000000E+00 0.  1.
         22    1    1    2    0    0  0.11211036640E+04 -0.13649831839E+03 -0.27182388391E+03  0.11616339528E+04  0.00000000000E+00 0. -1.
<mgrwt>
<rscale>  0 0.24493821E+04</rscale>
<asrwt>0</asrwt>
<pdfrwt beam="1">  1        2 0.35834847E+00 0.24493821E+04</pdfrwt>
<pdfrwt beam="2">  1       -2 0.99065129E-01 0.24493821E+04</pdfrwt>
<totfact> 0.32998196E+00</totfact>
</mgrwt>
</event>
<event>
 6    1  0.4630212E-004  0.1109139E+04  0.7818608E-02  0.9196330E-01
         -2   -1    0    0    0  501 -0.00000000000E+00  0.00000000000E+00  0.16778488744E+03  0.16778488744E+03  0.00000000000E+00 0. -1.
          2   -1    0    0  501    0  0.00000000000E+00 -0.00000000000E+00 -0.18329854977E+04  0.18329854977E+04  0.00000000000E+00 0.  1.
         23    2    1    2    0    0 -0.35945922906E+03  0.23917722455E+03 -0.22060088001E+03  0.49302867557E+03  0.89419486549E+02 0.  0.
         13    1    3    3    0    0 -0.29750589052E+03  0.23406207886E+03 -0.18404275923E+03  0.42091156895E+03  0.00000000000E+00 0.  1.
        -13    1    3    3    0    0 -0.61953338548E+02  0.51151456892E+01 -0.36558120780E+02  0.72117106622E+02  0.00000000000E+00 0. -1.
         22    1    1    2    0    0  0.35945922906E+03 -0.23917722455E+03 -0.14445997302E+04  0.15077417095E+04  0.00000000000E+00 0.  1.
<mgrwt>
<rscale>  0 0.11091389E+04</rscale>
<asrwt>0</asrwt>
<pdfrwt beam="1">  1        2 0.28199776E+00 0.11091389E+04</pdfrwt>
<pdfrwt beam="2">  1       -2 0.25813061E-01 0.11091389E+04</pdfrwt>
<totfact> 0.11118581E+02</totfact>
</mgrwt>
</event>
<event>
 6    1  0.4630212E-004  0.3865836E+04  0.7818608E-02  0.8032172E-01
          1   -1    0    0  501    0  0.00000000000E+00  0.00000000000E+00  0.33484038905E+04  0.33484038905E+04  0.00000000000E+00 0.  1.
         -1   -1    0    0    0  501 -0.00000000000E+00 -0.00000000000E+00 -0.11158070611E+04  0.11158070611E+04  0.00000000000E+00 0. -1.
         23    2    1    2    0    0  0.73005551763E+03 -0.14474786315E+04 -0.97205260507E+02  0.16258746034E+04  0.76445508313E+02 0.  0.
         11    1    3    3    0    0  0.47040381998E+03 -0.95580286858E+03 -0.98664582579E+02  0.10698474552E+04  0.00000000000E+00 0. -1.
        -11    1    3    3    0    0  0.25965169765E+03 -0.49167576294E+03  0.14593220722E+01  0.55602714823E+03  0.00000000000E+00 0.  1.
         22    1    1    2    0    0 -0.73005551763E+03  0.14474786315E+04  0.23298020899E+04  0.28383363482E+04  0.00000000000E+00 0.  1.
<mgrwt>
<rscale>  0 0.38658364E+04</rscale>
<asrwt>0</asrwt>
<pdfrwt beam="1">  1        1 0.51513906E+00 0.38658364E+04</pdfrwt>
<pdfrwt beam="2">  1       -1 0.17166263E+00 0.38658364E+04</pdfrwt>
<totfact> 0.62004142E-02</totfact>
</mgrwt>
</event>
<event>
 6    1  0.4630212E-004  0.1088816E+04  0.7818608E-02  0.9216162E-01
         -2   -1    0    0    0  501 -0.00000000000E+00  0.00000000000E+00  0.46160633089E+03  0.46160633089E+03  0.00000000000E+00 0. -1.
          2   -1    0    0  501    0  0.00000000000E+00 -0.00000000000E+00 -0.64206226293E+03  0.64206226293E+03  0.00000000000E+00 0.  1.
         23    2    1    2    0    0 -0.35751055648E+03  0.13510882730E+03  0.29656418839E+03  0.49242691617E+03  0.92009546868E+02 0.  0.
         13    1    3    3    0    0 -0.13274460502E+03  0.98204373376E+02  0.13261901797E+03  0.21178534661E+03  0.00000000000E+00 0. -1.
        -13    1    3    3    0    0 -0.22476595146E+03  0.36904453929E+02  0.16394517042E+03  0.28064156955E+03  0.00000000000E+00 0.  1.
         22    1    1    2    0    0  0.35751055648E+03 -0.13510882730E+03 -0.47702012042E+03  0.61124167765E+03  0.00000000000E+00 0.  1.
<mgrwt>
<rscale>  0 0.10888159E+04</rscale>
<asrwt>0</asrwt>
<pdfrwt beam="1">  1        2 0.98778810E-01 0.10888159E+04</pdfrwt>
<pdfrwt beam="2">  1       -2 0.71016358E-01 0.10888159E+04</pdfrwt>
<totfact> 0.81744319E+01</totfact>
</mgrwt>
</event>
<event>
 6    1  0.4630212E-004  0.1673838E+04  0.7818608E-02  0.8776427E-01
         -2   -1    0    0    0  501 -0.00000000000E+00  0.00000000000E+00  0.84871994736E+03  0.84871994736E+03  0.00000000000E+00 0. -1.
          2   -1    0    0  501    0  0.00000000000E+00 -0.00000000000E+00 -0.82528261221E+03  0.82528261221E+03  0.00000000000E+00 0.  1.
         23    2    1    2    0    0  0.13776491194E+03  0.25201901068E+03  0.79527133347E+03  0.85046113763E+03  0.91295673875E+02 0.  0.
         13    1    3    3    0    0  0.87581095496E+02  0.22110734512E+03  0.57037682132E+03  0.61797137851E+03  0.00000000000E+00 0.  1.
        -13    1    3    3    0    0  0.50183816440E+02  0.30911665558E+02  0.22489451215E+03  0.23248975912E+03  0.00000000000E+00 0. -1.
         22    1    1    2    0    0 -0.13776491194E+03 -0.25201901068E+03 -0.77183399832E+03  0.82354142195E+03  0.00000000000E+00 0.  1.
<mgrwt>
<rscale>  0 0.16738385E+04</rscale>
<asrwt>0</asrwt>
<pdfrwt beam="1">  1        2 0.12696656E+00 0.16738385E+04</pdfrwt>
<pdfrwt beam="2">  1       -2 0.13057230E+00 0.16738385E+04</pdfrwt>
<totfact> 0.13527176E+01</totfact>
</mgrwt>
</event>
<event>
 6    1  0.4630212E-004  0.9844845E+03  0.7818608E-02  0.9325728E-01
          2   -1    0    0  501    0  0.00000000000E+00  0.00000000000E+00  0.17582650403E+04  0.17582650403E+04  0.00000000000E+00 0.  1.
         -2   -1    0    0    0  501 -0.00000000000E+00 -0.00000000000E+00 -0.13780767628E+03  0.13780767628E+03  0.00000000000E+00 0. -1.
         23    2    1    2    0    0 -0.12222559828E+03  0.36960820955E+03  0.13836544833E+04  0.14404139300E+04  0.93505268924E+02 0.  0.
         13    1    3    3    0    0 -0.30631307875E+02  0.10530675165E+03  0.25443867716E+03  0.27706827570E+03  0.00000000000E+00 0. -1.
        -13    1    3    3    0    0 -0.91594290408E+02  0.26430145790E+03  0.11292158061E+04  0.11633456543E+04  0.00000000000E+00 0.  1.
         22    1    1    2    0    0  0.12222559828E+03 -0.36960820955E+03  0.23680288079E+03  0.45565878659E+03  0.00000000000E+00 0. -1.
<mgrwt>
<rscale>  0 0.98448447E+03</rscale>
<asrwt>0</asrwt>
<pdfrwt beam="1">  1        2 0.27050230E+00 0.98448447E+03</pdfrwt>
<pdfrwt beam="2">  1       -2 0.21201182E-01 0.98448447E+03</pdfrwt>
<totfact> 0.17556043E+02</totfact>
</mgrwt>
</event>
<event>
 6    1  0.4630212E-004  0.7132278E+03  0.7818608E-02  0.9694874E-01
          2   -1    0    0  501    0  0.00000000000E+00  0.00000000000E+00  0.18044295842E+04  0.18044295842E+04  0.00000000000E+00 0. -1.
         -2   -1    0    0    0  501 -0.00000000000E+00 -0.00000000000E+00 -0.70478500508E+02  0.70478500508E+02  0.00000000000E+00 0.  1.
         23    2    1    2    0    0 -0.30291042242E+03 -0.14098910550E+03  0.60337091486E+03  0.69599156093E+03  0.93354914737E+02 0.  0.
         11    1    3    3    0    0 -0.27189052344E+03 -0.11468713132E+03  0.57532749128E+03  0.64659053276E+03  0.00000000000E+00 0. -1.
        -11    1    3    3    0    0 -0.31019898978E+02 -0.26301974179E+02  0.28043423576E+02  0.49401028169E+02  0.00000000000E+00 0.  1.
         22    1    1    2    0    0  0.30291042242E+03  0.14098910550E+03  0.11305801688E+04  0.11789165238E+04  0.00000000000E+00 0. -1.
<mgrwt>
<rscale>  0 0.71322785E+03</rscale>
<asrwt>0</asrwt>
<pdfrwt beam="1">  1        2 0.27760452E+00 0.71322785E+03</pdfrwt>
<pdfrwt beam="2">  1       -2 0.10842848E-01 0.71322785E+03</pdfrwt>
<totfact> 0.52693453E+02</totfact>
</mgrwt>
</event>
<event>
 6    1  0.6027440E-004  0.3332916E+04  0.7818608E-02  0.8154570E-01
          2   -1    0    0  501    0  0.00000000000E+00  0.00000000000E+00  0.12948891529E+04  0.12948891529E+04  0.00000000000E+00 0.  1.
         -2   -1    0    0    0  501 -0.00000000000E+00 -0.00000000000E+00 -0.21446485716E+04  0.21446485716E+04  0.00000000000E+00 0. -1.
         23    2    1    2    0    0 -0.15717440228E+04  0.20499568374E+02 -0.99237979800E+03  0.18612031344E+04  0.91977924695E+02 0.  0.
         13    1    3    3    0    0 -0.51258573004E+03 -0.30982405113E+02 -0.29910975928E+03  0.59428165727E+03  0.00000000000E+00 0.  1.
        -13    1    3    3    0    0 -0.10591582927E+04  0.51481973487E+02 -0.69327003872E+03  0.12669214772E+04  0.00000000000E+00 0. -1.
         22    1    1    2    0    0  0.15717440228E+04 -0.20499568374E+02  0.14262037932E+03  0.15783345900E+04  0.00000000000E+00 0.  1.
<mgrwt>
<rscale>  0 0.33329159E+04</rscale>
<asrwt>0</asrwt>
<pdfrwt beam="1">  1        2 0.19921372E+00 0.33329159E+04</pdfrwt>
<pdfrwt beam="2">  1       -2 0.32994593E+00 0.33329159E+04</pdfrwt>
<totfact> 0.28796581E-01</totfact>
</mgrwt>
</event>
<event>
 6    1  0.4630212E-004  0.1574970E+04  0.7818608E-02  0.8836074E-01
         -2   -1    0    0    0  501 -0.00000000000E+00  0.00000000000E+00  0.56996974637E+03  0.56996974637E+03  0.00000000000E+00 0. -1.
          2   -1    0    0  501    0  0.00000000000E+00 -0.00000000000E+00 -0.10880101818E+04  0.10880101818E+04  0.00000000000E+00 0.  1.
         23    2    1    2    0    0  0.35384824407E+03  0.38400617830E+03  0.35680456777E+03  0.63914573929E+03  0.92349616511E+02 0.  0.
         11    1    3    3    0    0  0.24642493667E+03  0.21496682595E+03  0.25367693920E+03  0.41386951465E+03  0.00000000000E+00 0.  1.
        -11    1    3    3    0    0  0.10742330740E+03  0.16903935235E+03  0.10312762857E+03  0.22527622464E+03  0.00000000000E+00 0. -1.
         22    1    1    2    0    0 -0.35384824407E+03 -0.38400617830E+03 -0.87484500321E+03  0.10188341889E+04  0.00000000000E+00 0.  1.
<mgrwt>
<rscale>  0 0.15749703E+04</rscale>
<asrwt>0</asrwt>
<pdfrwt beam="1">  1        2 0.16738618E+00 0.15749703E+04</pdfrwt>
<pdfrwt beam="2">  1       -2 0.87687654E-01 0.15749703E+04</pdfrwt>
<totfact> 0.23896555E+01</totfact>
</mgrwt>
</event>
<event>
 6    1  0.4630212E-004  0.2881460E+04  0.7818608E-02  0.8278415E-01
         -2   -1    0    0    0  501 -0.00000000000E+00  0.00000000000E+00  0.15918897015E+04  0.15918897015E+04  0.00000000000E+00 0.  1.
          2   -1    0    0  501    0  0.00000000000E+00 -0.00000000000E+00 -0.13039238108E+04  0.13039238108E+04  0.00000000000E+00 0. -1.
         23    2    1    2    0    0 -0.46973500868E+03 -0.11944996155E+04  0.79857193834E+03  0.15144378046E+04  0.91238223765E+02 0.  0.
         13    1    3    3    0    0 -0.31529457726E+03 -0.83737167054E+03  0.60276500758E+03  0.10788547814E+04  0.00000000000E+00 0. -1.
        -13    1    3    3    0    0 -0.15444043142E+03 -0.35712794495E+03  0.19580693076E+03  0.43558302314E+03  0.00000000000E+00 0.  1.
         22    1    1    2    0    0  0.46973500868E+03  0.11944996155E+04 -0.51060604764E+03  0.13813757076E+04  0.00000000000E+00 0. -1.
<mgrwt>
<rscale>  0 0.28814600E+04</rscale>
<asrwt>0</asrwt>
<pdfrwt beam="1">  1        2 0.20060366E+00 0.28814600E+04</pdfrwt>
<pdfrwt beam="2">  1       -2 0.24490611E+00 0.28814600E+04</pdfrwt>
<totfact> 0.98190655E-01</totfact>
</mgrwt>
</event>
<event>
 6    1  0.4630212E-004  0.1351622E+04  0.7818608E-02  0.8989601E-01
          2   -1    0    0  501    0  0.00000000000E+00  0.00000000000E+00  0.10471110605E+04  0.10471110605E+04  0.00000000000E+00 0.  1.
         -2   -1    0    0    0  501 -0.00000000000E+00 -0.00000000000E+00 -0.43617179211E+03  0.43617179211E+03  0.00000000000E+00 0. -1.
         23    2    1    2    0    0 -0.57529414002E+03 -0.31484899857E+03  0.14183832662E+03  0.67696471876E+03  0.89832511427E+02 0.  0.
         13    1    3    3    0    0 -0.28352347380E+03 -0.20352239712E+03  0.89736617182E+02  0.36036035685E+03  0.00000000000E+00 0. -1.
        -13    1    3    3    0    0 -0.29177066621E+03 -0.11132660145E+03  0.52101709433E+02  0.31660436191E+03  0.00000000000E+00 0.  1.
         22    1    1    2    0    0  0.57529414002E+03  0.31484899857E+03  0.46910094182E+03  0.80631813390E+03  0.00000000000E+00 0.  1.
<mgrwt>
<rscale>  0 0.13516217E+04</rscale>
<asrwt>0</asrwt>
<pdfrwt beam="1">  1        2 0.16109401E+00 0.13516217E+04</pdfrwt>
<pdfrwt beam="2">  1       -2 0.67103353E-01 0.13516217E+04</pdfrwt>
<totfact> 0.46797997E+01</totfact>
</mgrwt>
</event>
<event>
 6    1  0.4630212E-004  0.1175588E+04  0.7818608E-02  0.9134497E-01
         -2   -1    0    0    0  501 -0.00000000000E+00  0.00000000000E+00  0.15413098703E+03  0.15413098703E+03  0.00000000000E+00 0. -1.
          2   -1    0    0  501    0  0.00000000000E+00 -0.00000000000E+00 -0.22416110968E+04  0.22416110968E+04  0.00000000000E+00 0.  1.
         23    2    1    2    0    0 -0.54926788477E+03  0.76588597635E+02 -0.14248680004E+04  0.15316727405E+04  0.90617564768E+02 0.  0.
         11    1    3    3    0    0 -0.24182696900E+03  0.25363862915E+02 -0.50617176405E+03  0.56154560206E+03  0.00000000000E+00 0. -1.
        -11    1    3    3    0    0 -0.30744091577E+03  0.51224734720E+02 -0.91869623632E+03  0.97012713845E+03  0.00000000000E+00 0.  1.
         22    1    1    2    0    0  0.54926788477E+03 -0.76588597635E+02 -0.66261210939E+03  0.86406934331E+03  0.00000000000E+00 0. -1.
<mgrwt>
<rscale>  0 0.11755879E+04</rscale>
<asrwt>0</asrwt>
<pdfrwt beam="1">  1        2 0.34486319E+00 0.11755879E+04</pdfrwt>
<pdfrwt beam="2">  1       -2 0.23712463E-01 0.11755879E+04</pdfrwt>
<totfact> 0.76607422E+01</totfact>
</mgrwt>
</event>
<event>
 6    1  0.4630212E-004  0.1989882E+04  0.7818608E-02  0.8611366E-01
         -2   -1    0    0    0  501 -0.00000000000E+00  0.00000000000E+00  0.41382340729E+03  0.41382340729E+03  0.00000000000E+00 0. -1.
          2   -1    0    0  501    0  0.00000000000E+00 -0.00000000000E+00 -0.23921011707E+04  0.23921011707E+04  0.00000000000E+00 0.  1.
         23    2    1    2    0    0  0.27366789626E+03 -0.64586594902E+03 -0.19813147991E+04  0.21044645541E+04  0.10547883605E+03 0.  0.
         13    1    3    3    0    0  0.84462758774E+02 -0.11144340751E+03 -0.46792224925E+03  0.48836955479E+03  0.00000000000E+00 0. -1.
        -13    1    3    3    0    0  0.18920513749E+03 -0.53442254151E+03 -0.15133925498E+04  0.16160949993E+04  0.00000000000E+00 0.  1.
         22    1    1    2    0    0 -0.27366789626E+03  0.64586594902E+03  0.30370356621E+01  0.70146002390E+03  0.00000000000E+00 0. -1.
<mgrwt>
<rscale>  0 0.19898819E+04</rscale>
<asrwt>0</asrwt>
<pdfrwt beam="1">  1        2 0.36801556E+00 0.19898819E+04</pdfrwt>
<pdfrwt beam="2">  1       -2 0.63665140E-01 0.19898819E+04</pdfrwt>
<totfact> 0.85290720E+00</totfact>
</mgrwt>
</event>
<event>
 6    1  0.4630212E-004  0.6592476E+03  0.7818608E-02  0.9789580E-01
          2   -1    0    0  501    0  0.00000000000E+00  0.00000000000E+00  0.12895034911E+04  0.12895034911E+04  0.00000000000E+00 0.  1.
         -2   -1    0    0    0  501 -0.00000000000E+00 -0.00000000000E+00 -0.84258673686E+02  0.84258673686E+02  0.00000000000E+00 0. -1.
         23    2    1    2    0    0  0.19414207689E+03  0.15039431139E+03  0.10521568697E+04  0.10843739918E+04  0.92321615495E+02 0.  0.
         11    1    3    3    0    0  0.35614306593E+02  0.59561073509E+02  0.44315075893E+03  0.44855155272E+03  0.00000000000E+00 0.  1.
        -11    1    3    3    0    0  0.15852777030E+03  0.90833237876E+02  0.60900611081E+03  0.63582243909E+03  0.00000000000E+00 0. -1.
         22    1    1    2    0    0 -0.19414207689E+03 -0.15039431139E+03  0.15308794763E+03  0.28938817292E+03  0.00000000000E+00 0. -1.
<mgrwt>
<rscale>  0 0.65924761E+03</rscale>
<asrwt>0</asrwt>
<pdfrwt beam="1">  1        2 0.19838514E+00 0.65924761E+03</pdfrwt>
<pdfrwt beam="2">  1       -2 0.12962874E-01 0.65924761E+03</pdfrwt>
<totfact> 0.75988275E+02</totfact>
</mgrwt>
</event>
<event>
 6    1  0.5025601E-004  0.1674667E+04  0.7818608E-02  0.8775946E-01
         -2   -1    0    0    0  501 -0.00000000000E+00  0.00000000000E+00  0.43119632999E+03  0.43119632999E+03  0.00000000000E+00 0. -1.
          2   -1    0    0  501    0  0.00000000000E+00 -0.00000000000E+00 -0.16260048333E+04  0.16260048333E+04  0.00000000000E+00 0.  1.
         23    2    1    2    0    0  0.32016894632E+03 -0.28256858982E+03 -0.14804124664E+04  0.15434670045E+04  0.91192988955E+02 0.  0.
         11    1    3    3    0    0  0.13281480009E+03 -0.61532862759E+02 -0.53317551933E+03  0.55290342622E+03  0.00000000000E+00 0. -1.
        -11    1    3    3    0    0  0.18735414623E+03 -0.22103572706E+03 -0.94723694707E+03  0.99056357830E+03  0.00000000000E+00 0.  1.
         22    1    1    2    0    0 -0.32016894632E+03  0.28256858982E+03  0.28560396310E+03  0.51373415876E+03  0.00000000000E+00 0. -1.
<mgrwt>
<rscale>  0 0.16746669E+04</rscale>
<asrwt>0</asrwt>
<pdfrwt beam="1">  1        2 0.25015459E+00 0.16746669E+04</pdfrwt>
<pdfrwt beam="2">  1       -2 0.66337897E-01 0.16746669E+04</pdfrwt>
<totfact> 0.21480314E+01</totfact>
</mgrwt>
</event>
<event>
 6    1  0.4630212E-004  0.1311923E+04  0.7818608E-02  0.9020163E-01
         -2   -1    0    0    0  501 -0.00000000000E+00  0.00000000000E+00  0.17005036032E+03  0.17005036032E+03  0.00000000000E+00 0. -1.
          2   -1    0    0  501    0  0.00000000000E+00 -0.00000000000E+00 -0.25303421760E+04  0.25303421760E+04  0.00000000000E+00 0.  1.
         23    2    1    2    0    0  0.36434257345E+03  0.36091882386E+03 -0.35356479312E+03  0.62917037265E+03  0.88540310856E+02 0.  0.
         11    1    3    3    0    0  0.34475188020E+03  0.32163290296E+03 -0.34552208078E+03  0.58454006832E+03  0.00000000000E+00 0.  1.
        -11    1    3    3    0    0  0.19590693243E+02  0.39285920898E+02 -0.80427123430E+01  0.44630304328E+02  0.00000000000E+00 0. -1.
         22    1    1    2    0    0 -0.36434257345E+03 -0.36091882386E+03 -0.20067270226E+04  0.20712221637E+04  0.00000000000E+00 0.  1.
<mgrwt>
<rscale>  0 0.13119232E+04</rscale>
<asrwt>0</asrwt>
<pdfrwt beam="1">  1        2 0.38928339E+00 0.13119232E+04</pdfrwt>
<pdfrwt beam="2">  1       -2 0.26161596E-01 0.13119232E+04</pdfrwt>
<totfact> 0.43448932E+01</totfact>
</mgrwt>
</event>
<event>
 6    1  0.4630212E-004  0.2538594E+04  0.7818608E-02  0.8389364E-01
          2   -1    0    0  501    0  0.00000000000E+00  0.00000000000E+00  0.31464190407E+04  0.31464190407E+04  0.00000000000E+00 0.  1.
         -2   -1    0    0    0  501 -0.00000000000E+00 -0.00000000000E+00 -0.51204708131E+03  0.51204708131E+03  0.00000000000E+00 0. -1.
         23    2    1    2    0    0 -0.58211167890E+03  0.77392947179E+03  0.24977205331E+04  0.26804607814E+04  0.91876576211E+02 0.  0.
         13    1    3    3    0    0 -0.27603218233E+03  0.29499408406E+03  0.10012698465E+04  0.10797020796E+04  0.00000000000E+00 0. -1.
        -13    1    3    3    0    0 -0.30607949656E+03  0.47893538773E+03  0.14964506866E+04  0.16007587018E+04  0.00000000000E+00 0.  1.
         22    1    1    2    0    0  0.58211167890E+03 -0.77392947179E+03  0.13665142635E+03  0.97800534065E+03  0.00000000000E+00 0. -1.
<mgrwt>
<rscale>  0 0.25385939E+04</rscale>
<asrwt>0</asrwt>
<pdfrwt beam="1">  1        2 0.48406446E+00 0.25385939E+04</pdfrwt>
<pdfrwt beam="2">  1       -2 0.78776476E-01 0.25385939E+04</pdfrwt>
<totfact> 0.17879151E+00</totfact>
</mgrwt>
</event>
<event>
 6    1  0.4630212E-004  0.5176811E+03  0.7818608E-02  0.1009264E+00
         -4   -1    0    0    0  501 -0.00000000000E+00  0.00000000000E+00  0.53867361494E+02  0.53867361494E+02  0.00000000000E+00 0. -1.
          4   -1    0    0  501    0  0.00000000000E+00 -0.00000000000E+00 -0.12437667684E+04  0.12437667684E+04  0.00000000000E+00 0.  1.
         23    2    1    2    0    0 -0.12718528630E+03 -0.16289200945E+03 -0.25775005138E+03  0.34285021466E+03  0.91658479736E+02 0.  0.
         13    1    3    3    0    0 -0.82914567629E+02 -0.15685927527E+03 -0.22911603713E+03  0.28978236011E+03  0.00000000000E+00 0. -1.
        -13    1    3    3    0    0 -0.44270718673E+02 -0.60327341810E+01 -0.28634014256E+02  0.53067854545E+02  0.00000000000E+00 0.  1.
         22    1    1    2    0    0  0.12718528630E+03  0.16289200945E+03 -0.93214935556E+03  0.95478391528E+03  0.00000000000E+00 0.  1.
<mgrwt>
<rscale>  0 0.51768111E+03</rscale>
<asrwt>0</asrwt>
<pdfrwt beam="1">  1        4 0.19134873E+00 0.51768111E+03</pdfrwt>
<pdfrwt beam="2">  1       -4 0.82872865E-02 0.51768111E+03</pdfrwt>
<totfact> 0.32699304E+01</totfact>
</mgrwt>
</event>
<event>
 6    1  0.4630212E-004  0.2617649E+04  0.7818608E-02  0.8362231E-01
          2   -1    0    0  501    0  0.00000000000E+00  0.00000000000E+00  0.13328673046E+04  0.13328673046E+04  0.00000000000E+00 0.  1.
         -2   -1    0    0    0  501 -0.00000000000E+00 -0.00000000000E+00 -0.12852155841E+04  0.12852155841E+04  0.00000000000E+00 0. -1.
         23    2    1    2    0    0  0.71711696832E+03 -0.96005932944E+03  0.54638353597E+03  0.13201213770E+04  0.90635639867E+02 0.  0.
         11    1    3    3    0    0  0.50230128593E+03 -0.63193476656E+03  0.40573273286E+03  0.90347505861E+03  0.00000000000E+00 0.  1.
        -11    1    3    3    0    0  0.21481568239E+03 -0.32812456289E+03  0.14065080311E+03  0.41664631834E+03  0.00000000000E+00 0. -1.
         22    1    1    2    0    0 -0.71711696832E+03  0.96005932944E+03 -0.49873181547E+03  0.12979615118E+04  0.00000000000E+00 0. -1.
<mgrwt>
<rscale>  0 0.26176492E+04</rscale>
<asrwt>0</asrwt>
<pdfrwt beam="1">  1        2 0.20505651E+00 0.26176492E+04</pdfrwt>
<pdfrwt beam="2">  1       -2 0.19772548E+00 0.26176492E+04</pdfrwt>
<totfact> 0.19237295E+00</totfact>
</mgrwt>
</event>
<event>
 6    1  0.4630212E-004  0.1619366E+04  0.7818608E-02  0.8808738E-01
          2   -1    0    0  501    0  0.00000000000E+00  0.00000000000E+00  0.15217882793E+04  0.15217882793E+04  0.00000000000E+00 0.  1.
         -2   -1    0    0    0  501 -0.00000000000E+00 -0.00000000000E+00 -0.43080003531E+03  0.43080003531E+03  0.00000000000E+00 0. -1.
         23    2    1    2    0    0  0.43102509080E+03  0.44497380210E+03  0.11712267659E+04  0.13279103705E+04  0.88258152020E+02 0.  0.
         11    1    3    3    0    0  0.18575767654E+03  0.22182351647E+03  0.46414896144E+03  0.54694226867E+03  0.00000000000E+00 0.  1.
        -11    1    3    3    0    0  0.24526741426E+03  0.22315028563E+03  0.70707780445E+03  0.78096810179E+03  0.00000000000E+00 0. -1.
         22    1    1    2    0    0 -0.43102509080E+03 -0.44497380210E+03 -0.80238521928E+02  0.62467794411E+03  0.00000000000E+00 0. -1.
<mgrwt>
<rscale>  0 0.16193659E+04</rscale>
<asrwt>0</asrwt>
<pdfrwt beam="1">  1        2 0.23412127E+00 0.16193659E+04</pdfrwt>
<pdfrwt beam="2">  1       -2 0.66276929E-01 0.16193659E+04</pdfrwt>
<totfact> 0.24731737E+01</totfact>
</mgrwt>
</event>
<event>
 6    1  0.4630212E-004  0.3523918E+04  0.7818608E-02  0.8108145E-01
         -2   -1    0    0    0  501 -0.00000000000E+00  0.00000000000E+00  0.18582206829E+04  0.18582206829E+04  0.00000000000E+00 0. -1.
          2   -1    0    0  501    0  0.00000000000E+00 -0.00000000000E+00 -0.16706844016E+04  0.16706844016E+04  0.00000000000E+00 0.  1.
         23    2    1    2    0    0  0.39917017380E+03 -0.81008399204E+03 -0.14198752891E+04  0.16851738519E+04  0.90510621854E+02 0.  0.
         13    1    3    3    0    0  0.22965765822E+03 -0.55761952690E+03 -0.96902384497E+03  0.11413541908E+04  0.00000000000E+00 0.  1.
        -13    1    3    3    0    0  0.16951251558E+03 -0.25246446513E+03 -0.45085144411E+03  0.54381966106E+03  0.00000000000E+00 0. -1.
         22    1    1    2    0    0 -0.39917017380E+03  0.81008399204E+03  0.16074115704E+04  0.18437312327E+04  0.00000000000E+00 0. -1.
<mgrwt>
<rscale>  0 0.35239184E+04</rscale>
<asrwt>0</asrwt>
<pdfrwt beam="1">  1        2 0.25702837E+00 0.35239184E+04</pdfrwt>
<pdfrwt beam="2">  1       -2 0.28588010E+00 0.35239184E+04</pdfrwt>
<totfact> 0.32377961E-01</totfact>
</mgrwt>
</event>
<event>
 6    1  0.4630212E-004  0.1508878E+04  0.7818608E-02  0.8878571E-01
          2   -1    0    0  501    0  0.00000000000E+00  0.00000000000E+00  0.73997787549E+03  0.73997787549E+03  0.00000000000E+00 0.  1.
         -2   -1    0    0    0  501 -0.00000000000E+00 -0.00000000000E+00 -0.76918250137E+03  0.76918250137E+03  0.00000000000E+00 0. -1.
         23    2    1    2    0    0  0.39586610750E+02 -0.74917650760E+03 -0.61087916190E+02  0.75826152649E+03  0.91631161452E+02 0.  0.
         13    1    3    3    0    0  0.25890336994E+02 -0.27595982969E+03  0.20248796571E+02  0.27791032890E+03  0.00000000000E+00 0. -1.
        -13    1    3    3    0    0  0.13696273757E+02 -0.47321667792E+03 -0.81336712761E+02  0.48035119758E+03  0.00000000000E+00 0.  1.
         22    1    1    2    0    0 -0.39586610750E+02  0.74917650760E+03  0.31883290315E+02  0.75089885038E+03  0.00000000000E+00 0. -1.
<mgrwt>
<rscale>  0 0.15088778E+04</rscale>
<asrwt>0</asrwt>
<pdfrwt beam="1">  1        2 0.11384275E+00 0.15088778E+04</pdfrwt>
<pdfrwt beam="2">  1       -2 0.11833577E+00 0.15088778E+04</pdfrwt>
<totfact> 0.20253780E+01</totfact>
</mgrwt>
</event>
<event>
 6    1  0.4630212E-004  0.9411871E+03  0.7818608E-02  0.9375511E-01
         -2   -1    0    0    0  501 -0.00000000000E+00  0.00000000000E+00  0.18417194004E+03  0.18417194004E+03  0.00000000000E+00 0. -1.
          2   -1    0    0  501    0  0.00000000000E+00 -0.00000000000E+00 -0.12024541128E+04  0.12024541128E+04  0.00000000000E+00 0.  1.
         23    2    1    2    0    0  0.88642282261E+02  0.41699252329E+03 -0.23732791845E+03  0.49689026847E+03  0.93995634723E+02 0.  0.
         11    1    3    3    0    0 -0.36899537413E+01  0.58818096322E+02 -0.68311535407E+02  0.90220009328E+02  0.00000000000E+00 0. -1.
        -11    1    3    3    0    0  0.92332236003E+02  0.35817442696E+03 -0.16901638304E+03  0.40667025914E+03  0.00000000000E+00 0.  1.
         22    1    1    2    0    0 -0.88642282261E+02 -0.41699252329E+03 -0.78095425433E+03  0.88973578440E+03  0.00000000000E+00 0.  1.
<mgrwt>
<rscale>  0 0.94118714E+03</rscale>
<asrwt>0</asrwt>
<pdfrwt beam="1">  1        2 0.18499295E+00 0.94118714E+03</pdfrwt>
<pdfrwt beam="2">  1       -2 0.28334144E-01 0.94118714E+03</pdfrwt>
<totfact> 0.21516429E+02</totfact>
</mgrwt>
</event>
<event>
 6    1  0.4630212E-004  0.1512674E+04  0.7818608E-02  0.8876068E-01
         -2   -1    0    0    0  501 -0.00000000000E+00  0.00000000000E+00  0.17896767910E+04  0.17896767910E+04  0.00000000000E+00 0. -1.
          2   -1    0    0  501    0  0.00000000000E+00 -0.00000000000E+00 -0.31963637908E+03  0.31963637908E+03  0.00000000000E+00 0.  1.
         23    2    1    2    0    0  0.18990031500E+03  0.33590431455E+03  0.16403207987E+04  0.16875439816E+04  0.90876449932E+02 0.  0.
         11    1    3    3    0    0  0.52199403134E+02  0.16295024992E+03  0.84000250087E+03  0.85725245004E+03  0.00000000000E+00 0.  1.
        -11    1    3    3    0    0  0.13770091187E+03  0.17295406463E+03  0.80031829782E+03  0.83029153159E+03  0.00000000000E+00 0. -1.
         22    1    1    2    0    0 -0.18990031500E+03 -0.33590431455E+03 -0.17028038680E+03  0.42176918842E+03  0.00000000000E+00 0.  1.
<mgrwt>
<rscale>  0 0.15126742E+04</rscale>
<asrwt>0</asrwt>
<pdfrwt beam="1">  1        2 0.49174828E-01 0.15126742E+04</pdfrwt>
<pdfrwt beam="2">  1       -2 0.27533489E+00 0.15126742E+04</pdfrwt>
<totfact> 0.44484111E+00</totfact>
</mgrwt>
</event>
<event>
 6    1  0.4630212E-004  0.2879727E+04  0.7818608E-02  0.8278935E-01
         -2   -1    0    0    0  501 -0.00000000000E+00  0.00000000000E+00  0.14720238677E+04  0.14720238677E+04  0.00000000000E+00 0. -1.
          2   -1    0    0  501    0  0.00000000000E+00 -0.00000000000E+00 -0.14084057899E+04  0.14084057899E+04  0.00000000000E+00 0.  1.
         23    2    1    2    0    0  0.40469528903E+03  0.12821143327E+04 -0.47960624339E+03  0.14303647962E+04  0.91246164089E+02 0.  0.
         11    1    3    3    0    0  0.32081359155E+03  0.10970253616E+04 -0.43005204291E+03  0.12212005421E+04  0.00000000000E+00 0. -1.
        -11    1    3    3    0    0  0.83881697475E+02  0.18508897109E+03 -0.49554200481E+02  0.20916425406E+03  0.00000000000E+00 0.  1.
         22    1    1    2    0    0 -0.40469528903E+03 -0.12821143327E+04  0.54322432125E+03  0.14500648614E+04  0.00000000000E+00 0.  1.
<mgrwt>
<rscale>  0 0.28797270E+04</rscale>
<asrwt>0</asrwt>
<pdfrwt beam="1">  1        2 0.21667781E+00 0.28797270E+04</pdfrwt>
<pdfrwt beam="2">  1       -2 0.22646521E+00 0.28797270E+04</pdfrwt>
<totfact> 0.11132214E+00</totfact>
</mgrwt>
</event>
<event>
 6    1  0.4630212E-004  0.7445705E+03  0.7818608E-02  0.9643907E-01
         -2   -1    0    0    0  501 -0.00000000000E+00  0.00000000000E+00  0.57479727707E+02  0.57479727707E+02  0.00000000000E+00 0.  1.
          2   -1    0    0  501    0  0.00000000000E+00 -0.00000000000E+00 -0.24112204369E+04  0.24112204369E+04  0.00000000000E+00 0. -1.
         23    2    1    2    0    0  0.13202178566E+02 -0.13247433453E+03 -0.23275041474E+04  0.23330089563E+04  0.89058897196E+02 0.  0.
         13    1    3    3    0    0  0.23727654286E+01 -0.86890177070E+02 -0.78578007769E+03  0.79057312336E+03  0.00000000000E+00 0.  1.
        -13    1    3    3    0    0  0.10829413138E+02 -0.45584157461E+02 -0.15417240697E+04  0.15424358330E+04  0.00000000000E+00 0. -1.
         22    1    1    2    0    0 -0.13202178566E+02  0.13247433453E+03 -0.26236561750E+02  0.13569120827E+03  0.00000000000E+00 0.  1.
<mgrwt>
<rscale>  0 0.74457046E+03</rscale>
<asrwt>0</asrwt>
<pdfrwt beam="1">  1        2 0.37095703E+00 0.74457046E+03</pdfrwt>
<pdfrwt beam="2">  1       -2 0.88430340E-02 0.74457046E+03</pdfrwt>
<totfact> 0.33982577E+02</totfact>
</mgrwt>
</event>
<event>
 6    1  0.4630212E-004  0.4360581E+04  0.7818608E-02  0.7935510E-01
          2   -1    0    0  501    0  0.00000000000E+00  0.00000000000E+00  0.22640955416E+04  0.22640955416E+04  0.00000000000E+00 0. -1.
         -2   -1    0    0    0  501 -0.00000000000E+00 -0.00000000000E+00 -0.20995871094E+04  0.20995871094E+04  0.00000000000E+00 0.  1.
         23    2    1    2    0    0  0.11888844064E+04  0.11550953799E+04  0.14982319803E+04  0.22361230229E+04  0.88632037663E+02 0.  0.
         11    1    3    3    0    0  0.32542360665E+03  0.37139811552E+03  0.45719012573E+03  0.67294865706E+03  0.00000000000E+00 0.  1.
        -11    1    3    3    0    0  0.86346079979E+03  0.78369726438E+03  0.10410418546E+04  0.15631743658E+04  0.00000000000E+00 0. -1.
         22    1    1    2    0    0 -0.11888844064E+04 -0.11550953799E+04 -0.13337235481E+04  0.21275596282E+04  0.00000000000E+00 0.  1.
<mgrwt>
<rscale>  0 0.43605806E+04</rscale>
<asrwt>0</asrwt>
<pdfrwt beam="1">  1        2 0.34832239E+00 0.43605806E+04</pdfrwt>
<pdfrwt beam="2">  1       -2 0.32301340E+00 0.43605806E+04</pdfrwt>
<totfact> 0.83509775E-02</totfact>
</mgrwt>
</event>
<event>
 6    1  0.4630212E-004  0.3799558E+04  0.7818608E-02  0.8046250E-01
          1   -1    0    0  501    0  0.00000000000E+00  0.00000000000E+00  0.30581872802E+04  0.30581872802E+04  0.00000000000E+00 0.  1.
         -1   -1    0    0    0  501 -0.00000000000E+00 -0.00000000000E+00 -0.11801634617E+04  0.11801634617E+04  0.00000000000E+00 0. -1.
         23    2    1    2    0    0 -0.11755809230E+04  0.43725104277E+03  0.25295737474E+04  0.28249518984E+04  0.91819952637E+02 0.  0.
         13    1    3    3    0    0 -0.45874725528E+03  0.13430428433E+03  0.89855227003E+03  0.10177833104E+04  0.00000000000E+00 0.  1.
        -13    1    3    3    0    0 -0.71683366770E+03  0.30294675844E+03  0.16310214774E+04  0.18071685880E+04  0.00000000000E+00 0. -1.
         22    1    1    2    0    0  0.11755809230E+04 -0.43725104277E+03 -0.65154992901E+03  0.14133988435E+04  0.00000000000E+00 0. -1.
<mgrwt>
<rscale>  0 0.37995583E+04</rscale>
<asrwt>0</asrwt>
<pdfrwt beam="1">  1        1 0.47049035E+00 0.37995583E+04</pdfrwt>
<pdfrwt beam="2">  1       -1 0.18156361E+00 0.37995583E+04</pdfrwt>
<totfact> 0.87370781E-02</totfact>
</mgrwt>
</event>
<event>
 6    1  0.4630212E-004  0.3903764E+04  0.7818608E-02  0.8024247E-01
         -2   -1    0    0    0  501 -0.00000000000E+00  0.00000000000E+00  0.93229837579E+03  0.93229837579E+03  0.00000000000E+00 0. -1.
          2   -1    0    0  501    0  0.00000000000E+00 -0.00000000000E+00 -0.40865068226E+04  0.40865068226E+04  0.00000000000E+00 0.  1.
         23    2    1    2    0    0  0.21499562641E+03 -0.94253208448E+03 -0.37563836119E+04  0.38798562184E+04  0.90975743324E+02 0.  0.
         13    1    3    3    0    0  0.14157730651E+03 -0.44096318253E+03 -0.17071818157E+04  0.17688873378E+04  0.00000000000E+00 0. -1.
        -13    1    3    3    0    0  0.73418319896E+02 -0.50156890195E+03 -0.20492017963E+04  0.21109688806E+04  0.00000000000E+00 0.  1.
         22    1    1    2    0    0 -0.21499562641E+03  0.94253208448E+03  0.60217516509E+03  0.11389489800E+04  0.00000000000E+00 0. -1.
<mgrwt>
<rscale>  0 0.39037642E+04</rscale>
<asrwt>0</asrwt>
<pdfrwt beam="1">  1        2 0.62869333E+00 0.39037642E+04</pdfrwt>
<pdfrwt beam="2">  1       -2 0.14343053E+00 0.39037642E+04</pdfrwt>
<totfact> 0.77546759E-02</totfact>
</mgrwt>
</event>
<event>
 6    1  0.5192086E-004  0.2457966E+04  0.7818608E-02  0.8418115E-01
          2   -1    0    0  501    0  0.00000000000E+00  0.00000000000E+00  0.85653223228E+03  0.85653223228E+03  0.00000000000E+00 0.  1.
         -2   -1    0    0    0  501 -0.00000000000E+00 -0.00000000000E+00 -0.17633882886E+04  0.17633882886E+04  0.00000000000E+00 0. -1.
         23    2    1    2    0    0 -0.21910813803E+03 -0.60534659912E+03  0.65925582192E+03  0.92665170100E+03  0.98042108375E+02 0.  0.
         13    1    3    3    0    0 -0.32863324533E+02 -0.22527118144E+03  0.21741765363E+03  0.31479761657E+03  0.00000000000E+00 0. -1.
        -13    1    3    3    0    0 -0.18624481350E+03 -0.38007541768E+03  0.44183816829E+03  0.61185408443E+03  0.00000000000E+00 0.  1.
         22    1    1    2    0    0  0.21910813803E+03  0.60534659912E+03 -0.15661118782E+04  0.16932688199E+04  0.00000000000E+00 0. -1.
<mgrwt>
<rscale>  0 0.24579658E+04</rscale>
<asrwt>0</asrwt>
<pdfrwt beam="1">  1        2 0.13177419E+00 0.24579658E+04</pdfrwt>
<pdfrwt beam="2">  1       -2 0.27129050E+00 0.24579658E+04</pdfrwt>
<totfact> 0.13378067E+00</totfact>
</mgrwt>
</event>
<event>
 6    1  0.4716322E-004  0.2716600E+04  0.7818608E-02  0.8329639E-01
         -2   -1    0    0    0  501 -0.00000000000E+00  0.00000000000E+00  0.74205873990E+03  0.74205873990E+03  0.00000000000E+00 0. -1.
          2   -1    0    0  501    0  0.00000000000E+00 -0.00000000000E+00 -0.24862973950E+04  0.24862973950E+04  0.00000000000E+00 0.  1.
         23    2    1    2    0    0 -0.11782995337E+03  0.13363368954E+04 -0.11181253496E+04  0.17479176636E+04  0.73018254615E+02 0.  0.
         11    1    3    3    0    0 -0.32362733760E+02  0.21939434691E+03 -0.15461427152E+03  0.27034570267E+03  0.00000000000E+00 0.  1.
        -11    1    3    3    0    0 -0.85467219607E+02  0.11169425485E+04 -0.96351107805E+03  0.14775719609E+04  0.00000000000E+00 0. -1.
         22    1    1    2    0    0  0.11782995337E+03 -0.13363368954E+04 -0.62611330549E+03  0.14804384713E+04  0.00000000000E+00 0. -1.
<mgrwt>
<rscale>  0 0.27165999E+04</rscale>
<asrwt>0</asrwt>
<pdfrwt beam="1">  1        2 0.38250729E+00 0.27165999E+04</pdfrwt>
<pdfrwt beam="2">  1       -2 0.11416288E+00 0.27165999E+04</pdfrwt>
<totfact> 0.18640646E+00</totfact>
</mgrwt>
</event>
<event>
 6    1  0.4630212E-004  0.9824361E+03  0.7818608E-02  0.9328021E-01
          2   -1    0    0  501    0  0.00000000000E+00  0.00000000000E+00  0.12486604636E+04  0.12486604636E+04  0.00000000000E+00 0.  1.
         -2   -1    0    0    0  501 -0.00000000000E+00 -0.00000000000E+00 -0.19324323646E+03  0.19324323646E+03  0.00000000000E+00 0. -1.
         23    2    1    2    0    0 -0.72666602526E+01 -0.10323428380E+03  0.12305836043E+04  0.12384500655E+04  0.93340430204E+02 0.  0.
         13    1    3    3    0    0  0.40068818982E+02 -0.68504698896E+02  0.78885281181E+03  0.79283488996E+03  0.00000000000E+00 0. -1.
        -13    1    3    3    0    0 -0.47335479234E+02 -0.34729584908E+02  0.44173079251E+03  0.44561517559E+03  0.00000000000E+00 0.  1.
         22    1    1    2    0    0  0.72666602526E+01  0.10323428380E+03 -0.17516637718E+03  0.20345363451E+03  0.00000000000E+00 0. -1.
<mgrwt>
<rscale>  0 0.98243613E+03</rscale>
<asrwt>0</asrwt>
<pdfrwt beam="1">  1        2 0.19210160E+00 0.98243613E+03</pdfrwt>
<pdfrwt beam="2">  1       -2 0.29729729E-01 0.98243613E+03</pdfrwt>
<totfact> 0.18439143E+02</totfact>
</mgrwt>
</event>
<event>
 6    1  0.4630212E-004  0.2915950E+04  0.7818608E-02  0.8268148E-01
         -2   -1    0    0    0  501 -0.00000000000E+00  0.00000000000E+00  0.83591965720E+03  0.83591965720E+03  0.00000000000E+00 0. -1.
          2   -1    0    0  501    0  0.00000000000E+00 -0.00000000000E+00 -0.25429368495E+04  0.25429368495E+04  0.00000000000E+00 0.  1.
         23    2    1    2    0    0 -0.12329958455E+04  0.63467965105E+03 -0.13705518188E+04  0.19518645789E+04  0.90917718854E+02 0.  0.
         13    1    3    3    0    0 -0.10512228777E+04  0.53330917139E+03 -0.11182793605E+04  0.16248190481E+04  0.00000000000E+00 0. -1.
        -13    1    3    3    0    0 -0.18177296785E+03  0.10137047965E+03 -0.25227245829E+03  0.32704553077E+03  0.00000000000E+00 0.  1.
         22    1    1    2    0    0  0.12329958455E+04 -0.63467965105E+03 -0.33646537351E+03  0.14269919279E+04  0.00000000000E+00 0. -1.
<mgrwt>
<rscale>  0 0.29159499E+04</rscale>
<asrwt>0</asrwt>
<pdfrwt beam="1">  1        2 0.39122104E+00 0.29159499E+04</pdfrwt>
<pdfrwt beam="2">  1       -2 0.12860303E+00 0.29159499E+04</pdfrwt>
<totfact> 0.12640900E+00</totfact>
</mgrwt>
</event>
<event>
 6    1  0.4630212E-004  0.1709543E+04  0.7818608E-02  0.8755940E-01
         -2   -1    0    0    0  501 -0.00000000000E+00  0.00000000000E+00  0.22796579690E+03  0.22796579690E+03  0.00000000000E+00 0. -1.
          2   -1    0    0  501    0  0.00000000000E+00 -0.00000000000E+00 -0.32050191073E+04  0.32050191073E+04  0.00000000000E+00 0.  1.
         23    2    1    2    0    0  0.30784554537E+02  0.55046669970E+03 -0.18686950604E+03  0.58885288575E+03  0.88691783710E+02 0.  0.
         11    1    3    3    0    0  0.12211898204E+02  0.42974771893E+03 -0.10739069383E+03  0.44313089884E+03  0.00000000000E+00 0. -1.
        -11    1    3    3    0    0  0.18572656333E+02  0.12071898077E+03 -0.79478812202E+02  0.14572198691E+03  0.00000000000E+00 0.  1.
         22    1    1    2    0    0 -0.30784554537E+02 -0.55046669970E+03 -0.27901838044E+04  0.28441320184E+04  0.00000000000E+00 0.  1.
<mgrwt>
<rscale>  0 0.17095435E+04</rscale>
<asrwt>0</asrwt>
<pdfrwt beam="1">  1        2 0.49307980E+00 0.17095435E+04</pdfrwt>
<pdfrwt beam="2">  1       -2 0.35071665E-01 0.17095435E+04</pdfrwt>
<totfact> 0.93997253E+00</totfact>
</mgrwt>
</event>
<event>
 6    1  0.4630212E-004  0.1369953E+04  0.7818608E-02  0.8975860E-01
          2   -1    0    0  501    0  0.00000000000E+00  0.00000000000E+00  0.89474169160E+03  0.89474169160E+03  0.00000000000E+00 0.  1.
         -2   -1    0    0    0  501 -0.00000000000E+00 -0.00000000000E+00 -0.52438879598E+03  0.52438879598E+03  0.00000000000E+00 0. -1.
         23    2    1    2    0    0  0.34423987264E+03  0.55873927161E+03 -0.37361322071E+01  0.66372777095E+03  0.99146011971E+02 0.  0.
         11    1    3    3    0    0  0.12853148808E+03  0.22834186123E+03  0.45960821458E+02  0.26603147582E+03  0.00000000000E+00 0.  1.
        -11    1    3    3    0    0  0.21570838455E+03  0.33039741038E+03 -0.49696953665E+02  0.39769629513E+03  0.00000000000E+00 0. -1.
         22    1    1    2    0    0 -0.34423987264E+03 -0.55873927161E+03  0.37408902782E+03  0.75540271663E+03  0.00000000000E+00 0.  1.
<mgrwt>
<rscale>  0 0.13699526E+04</rscale>
<asrwt>0</asrwt>
<pdfrwt beam="1">  1        2 0.13765257E+00 0.13699526E+04</pdfrwt>
<pdfrwt beam="2">  1       -2 0.80675200E-01 0.13699526E+04</pdfrwt>
<totfact> 0.39125656E+01</totfact>
</mgrwt>
</event>
<event>
 6    1  0.4630212E-004  0.2353590E+04  0.7818608E-02  0.8457086E-01
          2   -1    0    0  501    0  0.00000000000E+00  0.00000000000E+00  0.10529045065E+04  0.10529045065E+04  0.00000000000E+00 0.  1.
         -2   -1    0    0    0  501 -0.00000000000E+00 -0.00000000000E+00 -0.13152629921E+04  0.13152629921E+04  0.00000000000E+00 0. -1.
         23    2    1    2    0    0  0.11277869151E+04 -0.37783001305E+00 -0.46276009765E+03  0.12227137567E+04  0.94755232999E+02 0.  0.
         13    1    3    3    0    0  0.35863115254E+03 -0.27930629864E+01 -0.19535798286E+03  0.40839790185E+03  0.00000000000E+00 0.  1.
        -13    1    3    3    0    0  0.76915576260E+03  0.24152329733E+01 -0.26740211480E+03  0.81431585487E+03  0.00000000000E+00 0. -1.
         22    1    1    2    0    0 -0.11277869151E+04  0.37783001305E+00  0.20040161202E+03  0.11454537419E+04  0.00000000000E+00 0.  1.
<mgrwt>
<rscale>  0 0.23535899E+04</rscale>
<asrwt>0</asrwt>
<pdfrwt beam="1">  1        2 0.16198531E+00 0.23535899E+04</pdfrwt>
<pdfrwt beam="2">  1       -2 0.20234815E+00 0.23535899E+04</pdfrwt>
<totfact> 0.27005416E+00</totfact>
</mgrwt>
</event>
<event>
 6    1  0.4630212E-004  0.1745648E+04  0.7818608E-02  0.8735750E-01
          2   -1    0    0  501    0  0.00000000000E+00  0.00000000000E+00  0.37578354837E+04  0.37578354837E+04  0.00000000000E+00 0.  1.
         -2   -1    0    0    0  501 -0.00000000000E+00 -0.00000000000E+00 -0.20272885367E+03  0.20272885367E+03  0.00000000000E+00 0. -1.
         23    2    1    2    0    0  0.31273310273E+03  0.68046261370E+03  0.77469516904E+03  0.10810645102E+04  0.87843657283E+02 0.  0.
         13    1    3    3    0    0  0.21475976811E+03  0.54464144110E+03  0.57749285370E+03  0.82234667473E+03  0.00000000000E+00 0. -1.
        -13    1    3    3    0    0  0.97973334622E+02  0.13582117260E+03  0.19720231534E+03  0.25871783548E+03  0.00000000000E+00 0.  1.
         22    1    1    2    0    0 -0.31273310273E+03 -0.68046261370E+03  0.27804114609E+04  0.28794998271E+04  0.00000000000E+00 0.  1.
<mgrwt>
<rscale>  0 0.17456479E+04</rscale>
<asrwt>0</asrwt>
<pdfrwt beam="1">  1        2 0.57812848E+00 0.17456479E+04</pdfrwt>
<pdfrwt beam="2">  1       -2 0.31189057E-01 0.17456479E+04</pdfrwt>
<totfact> 0.48375812E+00</totfact>
</mgrwt>
</event>
<event>
 6    1  0.4630212E-004  0.1391214E+04  0.7818608E-02  0.8960203E-01
         -2   -1    0    0    0  501 -0.00000000000E+00  0.00000000000E+00  0.13378102196E+03  0.13378102196E+03  0.00000000000E+00 0. -1.
          2   -1    0    0  501    0  0.00000000000E+00 -0.00000000000E+00 -0.36168728985E+04  0.36168728985E+04  0.00000000000E+00 0.  1.
         23    2    1    2    0    0  0.24775328893E+03  0.45997555152E+03 -0.52340693170E+03  0.74520983133E+03  0.91780588349E+02 0.  0.
         11    1    3    3    0    0  0.23199278302E+03  0.38455980964E+03 -0.41006570019E+03  0.60816180169E+03  0.00000000000E+00 0.  1.
        -11    1    3    3    0    0  0.15760505909E+02  0.75415741884E+02 -0.11334123151E+03  0.13704802964E+03  0.00000000000E+00 0. -1.
         22    1    1    2    0    0 -0.24775328893E+03 -0.45997555152E+03 -0.29596849448E+04  0.30054440891E+04  0.00000000000E+00 0.  1.
<mgrwt>
<rscale>  0 0.13912138E+04</rscale>
<asrwt>0</asrwt>
<pdfrwt beam="1">  1        2 0.55644200E+00 0.13912138E+04</pdfrwt>
<pdfrwt beam="2">  1       -2 0.20581695E-01 0.13912138E+04</pdfrwt>
<totfact> 0.13553123E+01</totfact>
</mgrwt>
</event>
<event>
 6    1  0.4630212E-004  0.5986749E+04  0.7818608E-02  0.7692047E-01
         -2   -1    0    0    0  501 -0.00000000000E+00  0.00000000000E+00  0.23629718689E+04  0.23629718689E+04  0.00000000000E+00 0. -1.
          2   -1    0    0  501    0  0.00000000000E+00 -0.00000000000E+00 -0.37919579800E+04  0.37919579800E+04  0.00000000000E+00 0.  1.
         23    2    1    2    0    0  0.28547683092E+04 -0.67821376647E+03 -0.13197918386E+04  0.32186738312E+04  0.91294699196E+02 0.  0.
         11    1    3    3    0    0  0.11616261582E+04 -0.32145525361E+03 -0.53348265033E+03  0.13180715268E+04  0.00000000000E+00 0. -1.
        -11    1    3    3    0    0  0.16931421510E+04 -0.35675851286E+03 -0.78630918826E+03  0.19006023044E+04  0.00000000000E+00 0.  1.
         22    1    1    2    0    0 -0.28547683092E+04  0.67821376647E+03 -0.10919427258E+03  0.29362560177E+04  0.00000000000E+00 0. -1.
<mgrwt>
<rscale>  0 0.59867487E+04</rscale>
<asrwt>0</asrwt>
<pdfrwt beam="1">  1        2 0.58337815E+00 0.59867487E+04</pdfrwt>
<pdfrwt beam="2">  1       -2 0.36353413E+00 0.59867487E+04</pdfrwt>
<totfact> 0.42702022E-03</totfact>
</mgrwt>
</event>
<event>
 6    1  0.4630212E-004  0.3634680E+04  0.7818608E-02  0.8082594E-01
          2   -1    0    0  501    0  0.00000000000E+00  0.00000000000E+00  0.38186597383E+04  0.38186597383E+04  0.00000000000E+00 0.  1.
         -2   -1    0    0    0  501 -0.00000000000E+00 -0.00000000000E+00 -0.86489122514E+03  0.86489122514E+03  0.00000000000E+00 0. -1.
         23    2    1    2    0    0 -0.67557384411E+03 -0.13861884472E+04  0.27152656255E+04  0.31231657362E+04  0.59819470735E+02 0.  0.
         11    1    3    3    0    0 -0.50756951630E+03 -0.10548077293E+04  0.21104998292E+04  0.24133909109E+04  0.00000000000E+00 0. -1.
        -11    1    3    3    0    0 -0.16800432781E+03 -0.33138071784E+03  0.60476579630E+03  0.70977482535E+03  0.00000000000E+00 0.  1.
         22    1    1    2    0    0  0.67557384411E+03  0.13861884472E+04  0.23850288770E+03  0.15603852272E+04  0.00000000000E+00 0. -1.
<mgrwt>
<rscale>  0 0.36346803E+04</rscale>
<asrwt>0</asrwt>
<pdfrwt beam="1">  1        2 0.58748610E+00 0.36346803E+04</pdfrwt>
<pdfrwt beam="2">  1       -2 0.13306019E+00 0.36346803E+04</pdfrwt>
<totfact> 0.15773297E-01</totfact>
</mgrwt>
</event>
<event>
 6    1  0.4630212E-004  0.1797448E+04  0.7818608E-02  0.8707658E-01
         -2   -1    0    0    0  501 -0.00000000000E+00  0.00000000000E+00  0.86825691261E+03  0.86825691261E+03  0.00000000000E+00 0. -1.
          2   -1    0    0  501    0  0.00000000000E+00 -0.00000000000E+00 -0.93026035299E+03  0.93026035299E+03  0.00000000000E+00 0.  1.
         23    2    1    2    0    0  0.40671450474E+02  0.24676493686E+03  0.83018960471E+03  0.87193454903E+03  0.92238696257E+02 0.  0.
         11    1    3    3    0    0  0.70564386783E+02  0.18303463293E+03  0.60910593755E+03  0.63991487925E+03  0.00000000000E+00 0. -1.
        -11    1    3    3    0    0 -0.29892936309E+02  0.63730303934E+02  0.22108366716E+03  0.23201966978E+03  0.00000000000E+00 0.  1.
         22    1    1    2    0    0 -0.40671450474E+02 -0.24676493686E+03 -0.89219304509E+03  0.92658271657E+03  0.00000000000E+00 0.  1.
<mgrwt>
<rscale>  0 0.17974482E+04</rscale>
<asrwt>0</asrwt>
<pdfrwt beam="1">  1        2 0.14311698E+00 0.17974482E+04</pdfrwt>
<pdfrwt beam="2">  1       -2 0.13357799E+00 0.17974482E+04</pdfrwt>
<totfact> 0.10708225E+01</totfact>
</mgrwt>
</event>
<event>
 6    1  0.4630212E-004  0.4468596E+04  0.7818608E-02  0.7916158E-01
          2   -1    0    0  501    0  0.00000000000E+00  0.00000000000E+00  0.36484865943E+04  0.36484865943E+04  0.00000000000E+00 0.  1.
         -2   -1    0    0    0  501 -0.00000000000E+00 -0.00000000000E+00 -0.13682623137E+04  0.13682623137E+04  0.00000000000E+00 0. -1.
         23    2    1    2    0    0  0.70133343692E+03 -0.19800216865E+04  0.28871537168E+03  0.21221915666E+04  0.89364482644E+02 0.  0.
         11    1    3    3    0    0  0.39348853432E+03 -0.10263003988E+04  0.11612957374E+03  0.11052654944E+04  0.00000000000E+00 0.  1.
        -11    1    3    3    0    0  0.30784490260E+03 -0.95372128770E+03  0.17258579794E+03  0.10169260722E+04  0.00000000000E+00 0. -1.
         22    1    1    2    0    0 -0.70133343692E+03  0.19800216865E+04  0.19915089089E+04  0.28945573415E+04  0.00000000000E+00 0.  1.
<mgrwt>
<rscale>  0 0.44685956E+04</rscale>
<asrwt>0</asrwt>
<pdfrwt beam="1">  1        2 0.56130563E+00 0.44685956E+04</pdfrwt>
<pdfrwt beam="2">  1       -2 0.21050190E+00 0.44685956E+04</pdfrwt>
<totfact> 0.54844969E-02</totfact>
</mgrwt>
</event>
<event>
 6    1  0.4630212E-004  0.2216975E+04  0.7818608E-02  0.8511396E-01
         -2   -1    0    0    0  501 -0.00000000000E+00  0.00000000000E+00  0.20004713166E+04  0.20004713166E+04  0.00000000000E+00 0. -1.
          2   -1    0    0  501    0  0.00000000000E+00 -0.00000000000E+00 -0.61422734294E+03  0.61422734294E+03  0.00000000000E+00 0.  1.
         23    2    1    2    0    0 -0.83755201159E+02 -0.10354722374E+04  0.24443475397E+03  0.10710192944E+04  0.90090466078E+02 0.  0.
         13    1    3    3    0    0  0.41220575494E+01 -0.31777938619E+03  0.45079867429E+02  0.32098742046E+03  0.00000000000E+00 0. -1.
        -13    1    3    3    0    0 -0.87877258708E+02 -0.71769285116E+03  0.19935488655E+03  0.75003187399E+03  0.00000000000E+00 0.  1.
         22    1    1    2    0    0  0.83755201159E+02  0.10354722374E+04  0.11418092196E+04  0.15436793651E+04  0.00000000000E+00 0. -1.
<mgrwt>
<rscale>  0 0.22169747E+04</rscale>
<asrwt>0</asrwt>
<pdfrwt beam="1">  1        2 0.94496515E-01 0.22169747E+04</pdfrwt>
<pdfrwt beam="2">  1       -2 0.30776482E+00 0.22169747E+04</pdfrwt>
<totfact> 0.12539882E+00</totfact>
</mgrwt>
</event>
<event>
 6    1  0.4630212E-004  0.2661322E+04  0.7818608E-02  0.8347665E-01
         -2   -1    0    0    0  501 -0.00000000000E+00  0.00000000000E+00  0.10738679174E+04  0.10738679174E+04  0.00000000000E+00 0. -1.
          2   -1    0    0  501    0  0.00000000000E+00 -0.00000000000E+00 -0.16488603194E+04  0.16488603194E+04  0.00000000000E+00 0.  1.
         23    2    1    2    0    0 -0.53873411279E+03  0.59217470118E+03 -0.13732931513E+04  0.15921578465E+04  0.90151028368E+02 0.  0.
         13    1    3    3    0    0 -0.40287867696E+03  0.46846049155E+03 -0.98800221938E+03  0.11652960336E+04  0.00000000000E+00 0.  1.
        -13    1    3    3    0    0 -0.13585543583E+03  0.12371420963E+03 -0.38529093192E+03  0.42686181292E+03  0.00000000000E+00 0. -1.
         22    1    1    2    0    0  0.53873411279E+03 -0.59217470118E+03  0.79830074926E+03  0.11305703902E+04  0.00000000000E+00 0. -1.
<mgrwt>
<rscale>  0 0.26613216E+04</rscale>
<asrwt>0</asrwt>
<pdfrwt beam="1">  1        2 0.25367082E+00 0.26613216E+04</pdfrwt>
<pdfrwt beam="2">  1       -2 0.16521045E+00 0.26613216E+04</pdfrwt>
<totfact> 0.21266482E+00</totfact>
</mgrwt>
</event>
<event>
 6    1  0.4630212E-004  0.1013245E+04  0.7818608E-02  0.9294136E-01
         -2   -1    0    0    0  501 -0.00000000000E+00  0.00000000000E+00  0.19290947585E+03  0.19290947585E+03  0.00000000000E+00 0. -1.
          2   -1    0    0  501    0  0.00000000000E+00 -0.00000000000E+00 -0.13305026965E+04  0.13305026965E+04  0.00000000000E+00 0.  1.
         23    2    1    2    0    0 -0.26967134909E+03  0.21033048441E+03 -0.11265391476E+04  0.11812371562E+04  0.96276782942E+02 0.  0.
         13    1    3    3    0    0 -0.20757193578E+03  0.10852376783E+03 -0.80093894299E+03  0.83448589389E+03  0.00000000000E+00 0. -1.
        -13    1    3    3    0    0 -0.62099413312E+02  0.10180671657E+03 -0.32560020458E+03  0.34675126228E+03  0.00000000000E+00 0.  1.
         22    1    1    2    0    0  0.26967134909E+03 -0.21033048441E+03 -0.11054073129E+02  0.34217501622E+03  0.00000000000E+00 0. -1.
<mgrwt>
<rscale>  0 0.10132454E+04</rscale>
<asrwt>0</asrwt>
<pdfrwt beam="1">  1        2 0.20469272E+00 0.10132454E+04</pdfrwt>
<pdfrwt beam="2">  1       -2 0.29678381E-01 0.10132454E+04</pdfrwt>
<totfact> 0.16543858E+02</totfact>
</mgrwt>
</event>
<event>
 6    1  0.4630212E-004  0.2646049E+04  0.7818608E-02  0.8352726E-01
         -2   -1    0    0    0  501 -0.00000000000E+00  0.00000000000E+00  0.13206841714E+04  0.13206841714E+04  0.00000000000E+00 0. -1.
          2   -1    0    0  501    0  0.00000000000E+00 -0.00000000000E+00 -0.13253690345E+04  0.13253690345E+04  0.00000000000E+00 0.  1.
         23    2    1    2    0    0 -0.33642736026E+03  0.12565608774E+04 -0.23438693772E+03  0.13251097361E+04  0.94074272854E+02 0.  0.
         11    1    3    3    0    0 -0.82804653804E+02  0.40215083851E+03 -0.11119674113E+03  0.42537821153E+03  0.00000000000E+00 0. -1.
        -11    1    3    3    0    0 -0.25362270646E+03  0.85441003886E+03 -0.12319019659E+03  0.89973152455E+03  0.00000000000E+00 0.  1.
         22    1    1    2    0    0  0.33642736026E+03 -0.12565608774E+04  0.22970207467E+03  0.13209434698E+04  0.00000000000E+00 0.  1.
<mgrwt>
<rscale>  0 0.26460491E+04</rscale>
<asrwt>0</asrwt>
<pdfrwt beam="1">  1        2 0.20390293E+00 0.26460491E+04</pdfrwt>
<pdfrwt beam="2">  1       -2 0.20318218E+00 0.26460491E+04</pdfrwt>
<totfact> 0.17850329E+00</totfact>
</mgrwt>
</event>
<event>
 6    1  0.4630212E-004  0.4747139E+04  0.7818608E-02  0.7868743E-01
          2   -1    0    0  501    0  0.00000000000E+00  0.00000000000E+00  0.52716826050E+04  0.52716826050E+04  0.00000000000E+00 0.  1.
         -2   -1    0    0    0  501 -0.00000000000E+00 -0.00000000000E+00 -0.10686969384E+04  0.10686969384E+04  0.00000000000E+00 0. -1.
         23    2    1    2    0    0  0.42371786939E+03  0.14401987027E+04  0.45563278457E+04  0.47981215133E+04  0.90207995318E+02 0.  0.
         11    1    3    3    0    0  0.30046596915E+02  0.76807891380E+02  0.31851766277E+03  0.32902241818E+03  0.00000000000E+00 0. -1.
        -11    1    3    3    0    0  0.39367127247E+03  0.13633908114E+04  0.42378101829E+04  0.44690990951E+04  0.00000000000E+00 0.  1.
         22    1    1    2    0    0 -0.42371786939E+03 -0.14401987027E+04 -0.35334217909E+03  0.15422580302E+04  0.00000000000E+00 0. -1.
<mgrwt>
<rscale>  0 0.47471385E+04</rscale>
<asrwt>0</asrwt>
<pdfrwt beam="1">  1        2 0.81102808E+00 0.47471385E+04</pdfrwt>
<pdfrwt beam="2">  1       -2 0.16441492E+00 0.47471385E+04</pdfrwt>
<totfact> 0.24517982E-03</totfact>
</mgrwt>
</event>
<event>
 6    1  0.4630212E-004  0.3526258E+04  0.7818608E-02  0.8107595E-01
          2   -1    0    0  501    0  0.00000000000E+00  0.00000000000E+00  0.15798274282E+04  0.15798274282E+04  0.00000000000E+00 0.  1.
         -2   -1    0    0    0  501 -0.00000000000E+00 -0.00000000000E+00 -0.19676986668E+04  0.19676986668E+04  0.00000000000E+00 0. -1.
         23    2    1    2    0    0 -0.11146638583E+04 -0.11512148399E+04  0.54289304220E+03  0.16943954273E+04  0.92042839126E+02 0.  0.
         13    1    3    3    0    0 -0.10578246046E+04 -0.11158763742E+04  0.52897648099E+03  0.16260347764E+04  0.00000000000E+00 0.  1.
        -13    1    3    3    0    0 -0.56839253705E+02 -0.35338465717E+02  0.13916561212E+02  0.68360650940E+02  0.00000000000E+00 0. -1.
         22    1    1    2    0    0  0.11146638583E+04  0.11512148399E+04 -0.93076428082E+03  0.18531306676E+04  0.00000000000E+00 0. -1.
<mgrwt>
<rscale>  0 0.35262583E+04</rscale>
<asrwt>0</asrwt>
<pdfrwt beam="1">  1        2 0.24305037E+00 0.35262583E+04</pdfrwt>
<pdfrwt beam="2">  1       -2 0.30272287E+00 0.35262583E+04</pdfrwt>
<totfact> 0.28702575E-01</totfact>
</mgrwt>
</event>
<event>
 6    1  0.4630212E-004  0.6197243E+04  0.7818608E-02  0.7666416E-01
         -2   -1    0    0    0  501 -0.00000000000E+00  0.00000000000E+00  0.38411297203E+04  0.38411297203E+04  0.00000000000E+00 0. -1.
          2   -1    0    0  501    0  0.00000000000E+00 -0.00000000000E+00 -0.24996438719E+04  0.24996438719E+04  0.00000000000E+00 0.  1.
         23    2    1    2    0    0  0.19471762536E+04  0.18555621616E+04  0.22434724842E+04  0.35038410605E+04  0.95535814599E+02 0.  0.
         13    1    3    3    0    0  0.11727767539E+04  0.11440102389E+04  0.13107729992E+04  0.20981636248E+04  0.00000000000E+00 0. -1.
        -13    1    3    3    0    0  0.77439949975E+03  0.71155192262E+03  0.93269948499E+03  0.14056774356E+04  0.00000000000E+00 0.  1.
         22    1    1    2    0    0 -0.19471762536E+04 -0.18555621616E+04 -0.90198663582E+03  0.28369325317E+04  0.00000000000E+00 0.  1.
<mgrwt>
<rscale>  0 0.61972434E+04</rscale>
<asrwt>0</asrwt>
<pdfrwt beam="1">  1        2 0.38456060E+00 0.61972434E+04</pdfrwt>
<pdfrwt beam="2">  1       -2 0.59094303E+00 0.61972434E+04</pdfrwt>
<totfact> 0.13039418E-03</totfact>
</mgrwt>
</event>
<event>
 6    1  0.4630212E-004  0.2046663E+04  0.7818608E-02  0.8585110E-01
          2   -1    0    0  501    0  0.00000000000E+00  0.00000000000E+00  0.86689440069E+03  0.86689440069E+03  0.00000000000E+00 0.  1.
         -2   -1    0    0    0  501 -0.00000000000E+00 -0.00000000000E+00 -0.12079988030E+04  0.12079988030E+04  0.00000000000E+00 0. -1.
         23    2    1    2    0    0 -0.70267491614E+02  0.50629496276E+03  0.72570583181E+03  0.89194933970E+03  0.87478915073E+02 0.  0.
         13    1    3    3    0    0 -0.58557115814E+02  0.14252487627E+03  0.23468650959E+03  0.28074905868E+03  0.00000000000E+00 0. -1.
        -13    1    3    3    0    0 -0.11710375800E+02  0.36377008649E+03  0.49101932222E+03  0.61120028102E+03  0.00000000000E+00 0.  1.
         22    1    1    2    0    0  0.70267491614E+02 -0.50629496276E+03 -0.10668102341E+04  0.11829438640E+04  0.00000000000E+00 0. -1.
<mgrwt>
<rscale>  0 0.20466630E+04</rscale>
<asrwt>0</asrwt>
<pdfrwt beam="1">  1        2 0.13336837E+00 0.20466630E+04</pdfrwt>
<pdfrwt beam="2">  1       -2 0.18584597E+00 0.20466630E+04</pdfrwt>
<totfact> 0.47256736E+00</totfact>
</mgrwt>
</event>
<event>
 6    1  0.4630212E-004  0.2467959E+04  0.7818608E-02  0.8414490E-01
          2   -1    0    0  501    0  0.00000000000E+00  0.00000000000E+00  0.15973355994E+04  0.15973355994E+04  0.00000000000E+00 0.  1.
         -2   -1    0    0    0  501 -0.00000000000E+00 -0.00000000000E+00 -0.95327829307E+03  0.95327829307E+03  0.00000000000E+00 0. -1.
         23    2    1    2    0    0  0.10485335842E+03  0.10462103256E+04 -0.34203483467E+03  0.11091119040E+04  0.87127006320E+02 0.  0.
         13    1    3    3    0    0  0.19659954589E+02  0.11856665248E+03 -0.11806486948E+02  0.12076405934E+03  0.00000000000E+00 0. -1.
        -13    1    3    3    0    0  0.85193403828E+02  0.92764367315E+03 -0.33022834773E+03  0.98834784465E+03  0.00000000000E+00 0.  1.
         22    1    1    2    0    0 -0.10485335842E+03 -0.10462103256E+04  0.98609214099E+03  0.14415019885E+04  0.00000000000E+00 0.  1.
<mgrwt>
<rscale>  0 0.24679590E+04</rscale>
<asrwt>0</asrwt>
<pdfrwt beam="1">  1        2 0.24574394E+00 0.24679590E+04</pdfrwt>
<pdfrwt beam="2">  1       -2 0.14665820E+00 0.24679590E+04</pdfrwt>
<totfact> 0.31828278E+00</totfact>
</mgrwt>
</event>
<event>
 6    1  0.4630212E-004  0.2501944E+04  0.7818608E-02  0.8402293E-01
          2   -1    0    0  501    0  0.00000000000E+00  0.00000000000E+00  0.20617318543E+04  0.20617318543E+04  0.00000000000E+00 0.  1.
         -2   -1    0    0    0  501 -0.00000000000E+00 -0.00000000000E+00 -0.75903729207E+03  0.75903729207E+03  0.00000000000E+00 0. -1.
         23    2    1    2    0    0  0.98916737909E+03  0.67352841147E+03  0.10566107148E+04  0.15990286318E+04  0.91508129430E+02 0.  0.
         11    1    3    3    0    0  0.16878316844E+03  0.99328212941E+02  0.21638911521E+03  0.29185287563E+03  0.00000000000E+00 0. -1.
        -11    1    3    3    0    0  0.82038421065E+03  0.57420019853E+03  0.84022159963E+03  0.13071757562E+04  0.00000000000E+00 0.  1.
         22    1    1    2    0    0 -0.98916737909E+03 -0.67352841147E+03  0.24608384736E+03  0.12217405145E+04  0.00000000000E+00 0.  1.
<mgrwt>
<rscale>  0 0.25019443E+04</rscale>
<asrwt>0</asrwt>
<pdfrwt beam="1">  1        2 0.31718951E+00 0.25019443E+04</pdfrwt>
<pdfrwt beam="2">  1       -2 0.11677497E+00 0.25019443E+04</pdfrwt>
<totfact> 0.31259667E+00</totfact>
</mgrwt>
</event>
<event>
 6    1  0.4630212E-004  0.3676407E+04  0.7818608E-02  0.8073210E-01
         -2   -1    0    0    0  501 -0.00000000000E+00  0.00000000000E+00  0.98634952051E+03  0.98634952051E+03  0.00000000000E+00 0.  1.
          2   -1    0    0  501    0  0.00000000000E+00 -0.00000000000E+00 -0.34257561698E+04  0.34257561698E+04  0.00000000000E+00 0. -1.
         23    2    1    2    0    0  0.14918344893E+04  0.45941641924E+03 -0.23827352911E+04  0.28501052957E+04  0.95074389524E+02 0.  0.
         13    1    3    3    0    0  0.46275227947E+03  0.17037589795E+03 -0.68897717100E+03  0.84726451649E+03  0.00000000000E+00 0. -1.
        -13    1    3    3    0    0  0.10290822098E+04  0.28904052129E+03 -0.16937581201E+04  0.20028407792E+04  0.00000000000E+00 0.  1.
         22    1    1    2    0    0 -0.14918344893E+04 -0.45941641924E+03 -0.56671358111E+02  0.15620003945E+04  0.00000000000E+00 0.  1.
<mgrwt>
<rscale>  0 0.36764075E+04</rscale>
<asrwt>0</asrwt>
<pdfrwt beam="1">  1        2 0.52703941E+00 0.36764075E+04</pdfrwt>
<pdfrwt beam="2">  1       -2 0.15174608E+00 0.36764075E+04</pdfrwt>
<totfact> 0.21508759E-01</totfact>
</mgrwt>
</event>
<event>
 6    1  0.4630212E-004  0.3413949E+04  0.7818608E-02  0.8134491E-01
          2   -1    0    0  501    0  0.00000000000E+00  0.00000000000E+00  0.10286475230E+04  0.10286475230E+04  0.00000000000E+00 0.  1.
         -2   -1    0    0    0  501 -0.00000000000E+00 -0.00000000000E+00 -0.28326150211E+04  0.28326150211E+04  0.00000000000E+00 0. -1.
         23    2    1    2    0    0  0.60858019534E+03  0.13989840594E+04 -0.39819474763E+02  0.15289365589E+04  0.92385917967E+02 0.  0.
         13    1    3    3    0    0  0.56629730860E+03  0.12519825478E+04 -0.55160375710E+02  0.13752074785E+04  0.00000000000E+00 0. -1.
        -13    1    3    3    0    0  0.42282886738E+02  0.14700151160E+03  0.15340900947E+02  0.15372908042E+03  0.00000000000E+00 0.  1.
         22    1    1    2    0    0 -0.60858019534E+03 -0.13989840594E+04 -0.17641480234E+04  0.23323259852E+04  0.00000000000E+00 0. -1.
<mgrwt>
<rscale>  0 0.34139493E+04</rscale>
<asrwt>0</asrwt>
<pdfrwt beam="1">  1        2 0.15825347E+00 0.34139493E+04</pdfrwt>
<pdfrwt beam="2">  1       -2 0.43578692E+00 0.34139493E+04</pdfrwt>
<totfact> 0.86037933E-02</totfact>
</mgrwt>
</event>
<event>
 6    1  0.4630212E-004  0.3054856E+04  0.7818608E-02  0.8228237E-01
         -2   -1    0    0    0  501 -0.00000000000E+00  0.00000000000E+00  0.65045027147E+03  0.65045027147E+03  0.00000000000E+00 0. -1.
          2   -1    0    0  501    0  0.00000000000E+00 -0.00000000000E+00 -0.35868029491E+04  0.35868029491E+04  0.00000000000E+00 0.  1.
         23    2    1    2    0    0  0.71695899921E+03  0.47161720105E+03  0.28088426809E+03  0.90752852387E+03  0.90879363422E+02 0.  0.
         13    1    3    3    0    0  0.81022169630E+02  0.79210538991E+02  0.60489776357E+02  0.12844420774E+03  0.00000000000E+00 0.  1.
        -13    1    3    3    0    0  0.63593682958E+03  0.39240666206E+03  0.22039449173E+03  0.77908431613E+03  0.00000000000E+00 0. -1.
         22    1    1    2    0    0 -0.71695899921E+03 -0.47161720105E+03 -0.32172369458E+04  0.33297246967E+04  0.00000000000E+00 0.  1.
<mgrwt>
<rscale>  0 0.30548564E+04</rscale>
<asrwt>0</asrwt>
<pdfrwt beam="1">  1        2 0.55181584E+00 0.30548564E+04</pdfrwt>
<pdfrwt beam="2">  1       -2 0.10006927E+00 0.30548564E+04</pdfrwt>
<totfact> 0.49540221E-01</totfact>
</mgrwt>
</event>
<event>
 6    1  0.4630212E-004  0.1178379E+04  0.7818608E-02  0.9131995E-01
         -2   -1    0    0    0  501 -0.00000000000E+00  0.00000000000E+00  0.52266309994E+03  0.52266309994E+03  0.00000000000E+00 0. -1.
          2   -1    0    0  501    0  0.00000000000E+00 -0.00000000000E+00 -0.66418332718E+03  0.66418332718E+03  0.00000000000E+00 0.  1.
         23    2    1    2    0    0  0.47534933539E+03 -0.22616219547E+03 -0.32950484171E+03  0.62787903577E+03  0.92478719347E+02 0.  0.
         11    1    3    3    0    0  0.42892867100E+03 -0.21327671780E+03 -0.26522631402E+03  0.54755069246E+03  0.00000000000E+00 0. -1.
        -11    1    3    3    0    0  0.46420664389E+02 -0.12885477672E+02 -0.64278527693E+02  0.80328343313E+02  0.00000000000E+00 0.  1.
         22    1    1    2    0    0 -0.47534933539E+03  0.22616219547E+03  0.18798461447E+03  0.55896739135E+03  0.00000000000E+00 0. -1.
<mgrwt>
<rscale>  0 0.11783787E+04</rscale>
<asrwt>0</asrwt>
<pdfrwt beam="1">  1        2 0.10218205E+00 0.11783787E+04</pdfrwt>
<pdfrwt beam="2">  1       -2 0.80409708E-01 0.11783787E+04</pdfrwt>
<totfact> 0.59133767E+01</totfact>
</mgrwt>
</event>
<event>
 6    1  0.4630212E-004  0.2404702E+04  0.7818608E-02  0.8437745E-01
         -2   -1    0    0    0  501 -0.00000000000E+00  0.00000000000E+00  0.42653029212E+03  0.42653029212E+03  0.00000000000E+00 0. -1.
          2   -1    0    0  501    0  0.00000000000E+00 -0.00000000000E+00 -0.33893197073E+04  0.33893197073E+04  0.00000000000E+00 0.  1.
         23    2    1    2    0    0 -0.40905873723E+03 -0.93855409063E+03 -0.24786661806E+04  0.26833359210E+04  0.91064803286E+02 0.  0.
         11    1    3    3    0    0 -0.15218593415E+03 -0.30720277832E+03 -0.72889879971E+03  0.80549833381E+03  0.00000000000E+00 0. -1.
        -11    1    3    3    0    0 -0.25687280308E+03 -0.63135131231E+03 -0.17497673809E+04  0.18778375872E+04  0.00000000000E+00 0.  1.
         22    1    1    2    0    0  0.40905873723E+03  0.93855409063E+03 -0.48412323454E+03  0.11325140784E+04  0.00000000000E+00 0. -1.
<mgrwt>
<rscale>  0 0.24047017E+04</rscale>
<asrwt>0</asrwt>
<pdfrwt beam="1">  1        2 0.52143381E+00 0.24047017E+04</pdfrwt>
<pdfrwt beam="2">  1       -2 0.65620043E-01 0.24047017E+04</pdfrwt>
<totfact> 0.18669255E+00</totfact>
</mgrwt>
</event>
<event>
 6    1  0.4630212E-004  0.9999044E+03  0.7818608E-02  0.9308650E-01
         -2   -1    0    0    0  501 -0.00000000000E+00  0.00000000000E+00  0.33341865107E+03  0.33341865107E+03  0.00000000000E+00 0. -1.
          2   -1    0    0  501    0  0.00000000000E+00 -0.00000000000E+00 -0.74966480171E+03  0.74966480171E+03  0.00000000000E+00 0.  1.
         23    2    1    2    0    0 -0.27667296738E+03 -0.37499844211E+03 -0.27588450948E+02  0.47626670120E+03  0.94324363644E+02 0.  0.
         11    1    3    3    0    0 -0.22404252975E+03 -0.33597155491E+03 -0.50251972933E+02  0.40693636066E+03  0.00000000000E+00 0. -1.
        -11    1    3    3    0    0 -0.52630437631E+02 -0.39026887204E+02  0.22663521985E+02  0.69330340536E+02  0.00000000000E+00 0.  1.
         22    1    1    2    0    0  0.27667296738E+03  0.37499844211E+03 -0.38865769969E+03  0.60681675158E+03  0.00000000000E+00 0.  1.
<mgrwt>
<rscale>  0 0.99990445E+03</rscale>
<asrwt>0</asrwt>
<pdfrwt beam="1">  1        2 0.11533305E+00 0.99990445E+03</pdfrwt>
<pdfrwt beam="2">  1       -2 0.51295178E-01 0.99990445E+03</pdfrwt>
<totfact> 0.13454481E+02</totfact>
</mgrwt>
</event>
<event>
 6    1  0.4630212E-004  0.2840641E+04  0.7818608E-02  0.8290761E-01
          2   -1    0    0  501    0  0.00000000000E+00  0.00000000000E+00  0.21694941367E+04  0.21694941367E+04  0.00000000000E+00 0.  1.
         -2   -1    0    0    0  501 -0.00000000000E+00 -0.00000000000E+00 -0.92985278841E+03  0.92985278841E+03  0.00000000000E+00 0. -1.
         23    2    1    2    0    0 -0.51196343101E+03  0.59283865367E+03 -0.67037384185E+03  0.10349530067E+04  0.90346080067E+02 0.  0.
         13    1    3    3    0    0 -0.28618638507E+03  0.34350281664E+03 -0.43973610360E+03  0.62710818273E+03  0.00000000000E+00 0.  1.
        -13    1    3    3    0    0 -0.22577704594E+03  0.24933583703E+03 -0.23063773824E+03  0.40784482393E+03  0.00000000000E+00 0. -1.
         22    1    1    2    0    0  0.51196343101E+03 -0.59283865367E+03  0.19100151902E+04  0.20643939185E+04  0.00000000000E+00 0.  1.
<mgrwt>
<rscale>  0 0.28406409E+04</rscale>
<asrwt>0</asrwt>
<pdfrwt beam="1">  1        2 0.33376833E+00 0.28406409E+04</pdfrwt>
<pdfrwt beam="2">  1       -2 0.14305428E+00 0.28406409E+04</pdfrwt>
<totfact> 0.15816195E+00</totfact>
</mgrwt>
</event>
<event>
 6    1  0.4630212E-004  0.1477731E+04  0.7818608E-02  0.8899398E-01
         -2   -1    0    0    0  501 -0.00000000000E+00  0.00000000000E+00  0.29648797995E+03  0.29648797995E+03  0.00000000000E+00 0. -1.
          2   -1    0    0  501    0  0.00000000000E+00 -0.00000000000E+00 -0.18412966664E+04  0.18412966664E+04  0.00000000000E+00 0.  1.
         23    2    1    2    0    0 -0.22799381703E+03  0.68272753106E+03 -0.55230897067E+03  0.91175293873E+03  0.90278236154E+02 0.  0.
         13    1    3    3    0    0 -0.79530816077E+02  0.28658524436E+03 -0.17621433148E+03  0.34569892046E+03  0.00000000000E+00 0. -1.
        -13    1    3    3    0    0 -0.14846300096E+03  0.39614228670E+03 -0.37609463920E+03  0.56605401827E+03  0.00000000000E+00 0.  1.
         22    1    1    2    0    0  0.22799381703E+03 -0.68272753106E+03 -0.99249971580E+03  0.12260317076E+04  0.00000000000E+00 0. -1.
<mgrwt>
<rscale>  0 0.14777311E+04</rscale>
<asrwt>0</asrwt>
<pdfrwt beam="1">  1        2 0.28327642E+00 0.14777311E+04</pdfrwt>
<pdfrwt beam="2">  1       -2 0.45613534E-01 0.14777311E+04</pdfrwt>
<totfact> 0.36105989E+01</totfact>
</mgrwt>
</event>
<event>
 6    1  0.4630212E-004  0.4328808E+04  0.7818608E-02  0.7941313E-01
          2   -1    0    0  501    0  0.00000000000E+00  0.00000000000E+00  0.18822124523E+04  0.18822124523E+04  0.00000000000E+00 0.  1.
         -2   -1    0    0    0  501 -0.00000000000E+00 -0.00000000000E+00 -0.24889036459E+04  0.24889036459E+04  0.00000000000E+00 0. -1.
         23    2    1    2    0    0 -0.16590724983E+04 -0.14599183143E+03  0.10908462737E+04  0.19929931783E+04  0.90780209392E+02 0.  0.
         13    1    3    3    0    0 -0.73130712618E+03 -0.10642725671E+03  0.50331855290E+03  0.89412887185E+03  0.00000000000E+00 0.  1.
        -13    1    3    3    0    0 -0.92776537213E+03 -0.39564574721E+02  0.58752772080E+03  0.10988643065E+04  0.00000000000E+00 0. -1.
         22    1    1    2    0    0  0.16590724983E+04  0.14599183143E+03 -0.16975374673E+04  0.23781229200E+04  0.00000000000E+00 0. -1.
<mgrwt>
<rscale>  0 0.43288084E+04</rscale>
<asrwt>0</asrwt>
<pdfrwt beam="1">  1        2 0.28957115E+00 0.43288084E+04</pdfrwt>
<pdfrwt beam="2">  1       -2 0.38290825E+00 0.43288084E+04</pdfrwt>
<totfact> 0.57212065E-02</totfact>
</mgrwt>
</event>
<event>
 6    1  0.4630212E-004  0.2046084E+04  0.7818608E-02  0.8585373E-01
         -2   -1    0    0    0  501 -0.00000000000E+00  0.00000000000E+00  0.70547806402E+03  0.70547806402E+03  0.00000000000E+00 0. -1.
          2   -1    0    0  501    0  0.00000000000E+00 -0.00000000000E+00 -0.14835546447E+04  0.14835546447E+04  0.00000000000E+00 0.  1.
         23    2    1    2    0    0 -0.48002747148E+03  0.85155448201E+03 -0.74692876665E+02  0.98474036703E+03  0.92537319132E+02 0.  0.
         11    1    3    3    0    0 -0.16346094059E+03  0.21598526763E+03 -0.86794120907E+00  0.27086872882E+03  0.00000000000E+00 0. -1.
        -11    1    3    3    0    0 -0.31656653089E+03  0.63556921437E+03 -0.73824935456E+02  0.71387163821E+03  0.00000000000E+00 0.  1.
         22    1    1    2    0    0  0.48002747148E+03 -0.85155448201E+03 -0.70338370402E+03  0.12042923417E+04  0.00000000000E+00 0. -1.
<mgrwt>
<rscale>  0 0.20460843E+04</rscale>
<asrwt>0</asrwt>
<pdfrwt beam="1">  1        2 0.22823917E+00 0.20460843E+04</pdfrwt>
<pdfrwt beam="2">  1       -2 0.10853509E+00 0.20460843E+04</pdfrwt>
<totfact> 0.81480859E+00</totfact>
</mgrwt>
</event>
<event>
 6    1  0.4630212E-004  0.3482629E+04  0.7818608E-02  0.8117919E-01
          2   -1    0    0  501    0  0.00000000000E+00  0.00000000000E+00  0.34168302556E+04  0.34168302556E+04  0.00000000000E+00 0.  1.
         -2   -1    0    0    0  501 -0.00000000000E+00 -0.00000000000E+00 -0.88742390440E+03  0.88742390440E+03  0.00000000000E+00 0. -1.
         23    2    1    2    0    0  0.20518435914E+03  0.16421037682E+04  0.19305307738E+04  0.25443515024E+04  0.90388563533E+02 0.  0.
         11    1    3    3    0    0  0.72421882826E+02  0.88329444242E+03  0.99469028079E+03  0.13322397516E+04  0.00000000000E+00 0. -1.
        -11    1    3    3    0    0  0.13276247631E+03  0.75880932581E+03  0.93584049303E+03  0.12121117508E+04  0.00000000000E+00 0.  1.
         22    1    1    2    0    0 -0.20518435914E+03 -0.16421037682E+04  0.59887557739E+03  0.17599026576E+04  0.00000000000E+00 0. -1.
<mgrwt>
<rscale>  0 0.34826294E+04</rscale>
<asrwt>0</asrwt>
<pdfrwt beam="1">  1        2 0.52566619E+00 0.34826294E+04</pdfrwt>
<pdfrwt beam="2">  1       -2 0.13652676E+00 0.34826294E+04</pdfrwt>
<totfact> 0.29242500E-01</totfact>
</mgrwt>
</event>
<event>
 6    1  0.4630212E-004  0.1282924E+04  0.7818608E-02  0.9043217E-01
         -2   -1    0    0    0  501 -0.00000000000E+00  0.00000000000E+00  0.20715087352E+03  0.20715087352E+03  0.00000000000E+00 0. -1.
          2   -1    0    0  501    0  0.00000000000E+00 -0.00000000000E+00 -0.19863463126E+04  0.19863463126E+04  0.00000000000E+00 0.  1.
         23    2    1    2    0    0 -0.34321864118E+03 -0.10386337834E+03 -0.17962073322E+04  0.18345040922E+04  0.10226361593E+03 0.  0.
         11    1    3    3    0    0 -0.20307211155E+03 -0.27017637863E+02 -0.11939976913E+04  0.12114448903E+04  0.00000000000E+00 0.  1.
        -11    1    3    3    0    0 -0.14014652963E+03 -0.76845740479E+02 -0.60220964084E+03  0.62305920194E+03  0.00000000000E+00 0. -1.
         22    1    1    2    0    0  0.34321864118E+03  0.10386337834E+03  0.17011893039E+02  0.35899309397E+03  0.00000000000E+00 0. -1.
<mgrwt>
<rscale>  0 0.12829238E+04</rscale>
<asrwt>0</asrwt>
<pdfrwt beam="1">  1        2 0.30559175E+00 0.12829238E+04</pdfrwt>
<pdfrwt beam="2">  1       -2 0.31869365E-01 0.12829238E+04</pdfrwt>
<totfact> 0.61133109E+01</totfact>
</mgrwt>
</event>
<event>
 6    1  0.4630212E-004  0.2069764E+04  0.7818608E-02  0.8574681E-01
         -2   -1    0    0    0  501 -0.00000000000E+00  0.00000000000E+00  0.42219663231E+03  0.42219663231E+03  0.00000000000E+00 0.  1.
          2   -1    0    0  501    0  0.00000000000E+00 -0.00000000000E+00 -0.25366874539E+04  0.25366874539E+04  0.00000000000E+00 0. -1.
         23    2    1    2    0    0 -0.17984153794E+02  0.97003504555E+03 -0.55351701064E+03  0.11209693282E+04  0.94338402699E+02 0.  0.
         11    1    3    3    0    0  0.21204781732E+02  0.55124257179E+03 -0.35365735328E+03  0.65527974121E+03  0.00000000000E+00 0. -1.
        -11    1    3    3    0    0 -0.39188935525E+02  0.41879247376E+03 -0.19985965736E+03  0.46568958695E+03  0.00000000000E+00 0.  1.
         22    1    1    2    0    0  0.17984153794E+02 -0.97003504555E+03 -0.15609738109E+04  0.18379147580E+04  0.00000000000E+00 0. -1.
<mgrwt>
<rscale>  0 0.20697641E+04</rscale>
<asrwt>0</asrwt>
<pdfrwt beam="1">  1        2 0.39025961E+00 0.20697641E+04</pdfrwt>
<pdfrwt beam="2">  1       -2 0.64953328E-01 0.20697641E+04</pdfrwt>
<totfact> 0.66977056E+00</totfact>
</mgrwt>
</event>
<event>
 6    1  0.4630212E-004  0.1873141E+04  0.7818608E-02  0.8668343E-01
          2   -1    0    0  501    0  0.00000000000E+00  0.00000000000E+00  0.15456971741E+04  0.15456971741E+04  0.00000000000E+00 0.  1.
         -2   -1    0    0    0  501 -0.00000000000E+00 -0.00000000000E+00 -0.56748752988E+03  0.56748752988E+03  0.00000000000E+00 0. -1.
         23    2    1    2    0    0 -0.57148184386E+03  0.73773934999E+03  0.43722420971E+03  0.10345206753E+04  0.90648616850E+02 0.  0.
         11    1    3    3    0    0 -0.33785724100E+03  0.46321109754E+03  0.22290324904E+03  0.61514054867E+03  0.00000000000E+00 0. -1.
        -11    1    3    3    0    0 -0.23362460285E+03  0.27452825245E+03  0.21432096068E+03  0.41938012666E+03  0.00000000000E+00 0.  1.
         22    1    1    2    0    0  0.57148184386E+03 -0.73773934999E+03  0.54098543451E+03  0.10786640287E+04  0.00000000000E+00 0.  1.
<mgrwt>
<rscale>  0 0.18731405E+04</rscale>
<asrwt>0</asrwt>
<pdfrwt beam="1">  1        2 0.23779956E+00 0.18731405E+04</pdfrwt>
<pdfrwt beam="2">  1       -2 0.87305775E-01 0.18731405E+04</pdfrwt>
<totfact> 0.12725599E+01</totfact>
</mgrwt>
</event>
<event>
 6    1  0.4630212E-004  0.2330932E+04  0.7818608E-02  0.8465824E-01
         -2   -1    0    0    0  501 -0.00000000000E+00  0.00000000000E+00  0.45362694896E+03  0.45362694896E+03  0.00000000000E+00 0. -1.
          2   -1    0    0  501    0  0.00000000000E+00 -0.00000000000E+00 -0.29943340068E+04  0.29943340068E+04  0.00000000000E+00 0.  1.
         23    2    1    2    0    0 -0.64557784506E+02 -0.73538259941E+03  0.57437793372E+02  0.74697744175E+03  0.98594742804E+02 0.  0.
         13    1    3    3    0    0 -0.52408602021E+02 -0.47266761154E+03 -0.92658753432E+01  0.47565448490E+03  0.00000000000E+00 0. -1.
        -13    1    3    3    0    0 -0.12149182485E+02 -0.26271498788E+03  0.66703668715E+02  0.27132295684E+03  0.00000000000E+00 0.  1.
         22    1    1    2    0    0  0.64557784506E+02  0.73538259941E+03 -0.25981448512E+04  0.27009835140E+04  0.00000000000E+00 0.  1.
<mgrwt>
<rscale>  0 0.23309317E+04</rscale>
<asrwt>0</asrwt>
<pdfrwt beam="1">  1        2 0.46066677E+00 0.23309317E+04</pdfrwt>
<pdfrwt beam="2">  1       -2 0.69788761E-01 0.23309317E+04</pdfrwt>
<totfact> 0.29726357E+00</totfact>
</mgrwt>
</event>
<event>
 6    1  0.4630212E-004  0.2110542E+04  0.7818608E-02  0.8556614E-01
         -2   -1    0    0    0  501 -0.00000000000E+00  0.00000000000E+00  0.11807614745E+04  0.11807614745E+04  0.00000000000E+00 0. -1.
          2   -1    0    0  501    0  0.00000000000E+00 -0.00000000000E+00 -0.94311790009E+03  0.94311790009E+03  0.00000000000E+00 0.  1.
         23    2    1    2    0    0 -0.52444832931E+03 -0.51902973413E+03 -0.63731490430E+03  0.97933131773E+03  0.92095752458E+02 0.  0.
         13    1    3    3    0    0 -0.35531022779E+03 -0.29964295002E+03 -0.36619617376E+03  0.59171859286E+03  0.00000000000E+00 0.  1.
        -13    1    3    3    0    0 -0.16913810153E+03 -0.21938678411E+03 -0.27111873054E+03  0.38761272487E+03  0.00000000000E+00 0. -1.
         22    1    1    2    0    0  0.52444832931E+03  0.51902973413E+03  0.87495847873E+03  0.11445480569E+04  0.00000000000E+00 0.  1.
<mgrwt>
<rscale>  0 0.21105424E+04</rscale>
<asrwt>0</asrwt>
<pdfrwt beam="1">  1        2 0.14509506E+00 0.21105424E+04</pdfrwt>
<pdfrwt beam="2">  1       -2 0.18165561E+00 0.21105424E+04</pdfrwt>
<totfact> 0.44604431E+00</totfact>
</mgrwt>
</event>
<event>
 6    1  0.4630212E-004  0.1702089E+04  0.7818608E-02  0.8760174E-01
          2   -1    0    0  501    0  0.00000000000E+00  0.00000000000E+00  0.59836858748E+03  0.59836858748E+03  0.00000000000E+00 0.  1.
         -2   -1    0    0    0  501 -0.00000000000E+00 -0.00000000000E+00 -0.12104191180E+04  0.12104191180E+04  0.00000000000E+00 0. -1.
         23    2    1    2    0    0 -0.25807439331E+03  0.20312062383E+03 -0.11384758693E+04  0.11883169023E+04  0.90052067868E+02 0.  0.
         11    1    3    3    0    0 -0.22782387536E+03  0.14539238006E+03 -0.82509442881E+03  0.86823008403E+03  0.00000000000E+00 0.  1.
        -11    1    3    3    0    0 -0.30250517956E+02  0.57728243766E+02 -0.31338144051E+03  0.32008681825E+03  0.00000000000E+00 0. -1.
         22    1    1    2    0    0  0.25807439331E+03 -0.20312062383E+03  0.52642533879E+03  0.62047080320E+03  0.00000000000E+00 0.  1.
<mgrwt>
<rscale>  0 0.17020890E+04</rscale>
<asrwt>0</asrwt>
<pdfrwt beam="1">  1        2 0.92056706E-01 0.17020890E+04</pdfrwt>
<pdfrwt beam="2">  1       -2 0.18621832E+00 0.17020890E+04</pdfrwt>
<totfact> 0.77751930E+00</totfact>
</mgrwt>
</event>
<event>
 6    1  0.4630212E-004  0.3557557E+04  0.7818608E-02  0.8100284E-01
         -2   -1    0    0    0  501 -0.00000000000E+00  0.00000000000E+00  0.12881460475E+04  0.12881460475E+04  0.00000000000E+00 0. -1.
          2   -1    0    0  501    0  0.00000000000E+00 -0.00000000000E+00 -0.24562843858E+04  0.24562843858E+04  0.00000000000E+00 0.  1.
         23    2    1    2    0    0  0.15406392973E+04  0.87124700913E+03 -0.75829845225E+03  0.19276724617E+04  0.90905344272E+02 0.  0.
         13    1    3    3    0    0  0.11597323422E+04  0.69848589954E+03 -0.59073386659E+03  0.14771012689E+04  0.00000000000E+00 0. -1.
        -13    1    3    3    0    0  0.38090695509E+03  0.17276110959E+03 -0.16756458566E+03  0.45057119281E+03  0.00000000000E+00 0.  1.
         22    1    1    2    0    0 -0.15406392973E+04 -0.87124700913E+03 -0.40983988604E+03  0.18167579716E+04  0.00000000000E+00 0. -1.
<mgrwt>
<rscale>  0 0.35575570E+04</rscale>
<asrwt>0</asrwt>
<pdfrwt beam="1">  1        2 0.37788991E+00 0.35575570E+04</pdfrwt>
<pdfrwt beam="2">  1       -2 0.19817631E+00 0.35575570E+04</pdfrwt>
<totfact> 0.41259502E-01</totfact>
</mgrwt>
</event>
<event>
 6    1  0.4630212E-004  0.1523417E+04  0.7818608E-02  0.8869028E-01
         -2   -1    0    0    0  501 -0.00000000000E+00  0.00000000000E+00  0.17939651752E+03  0.17939651752E+03  0.00000000000E+00 0.  1.
          2   -1    0    0  501    0  0.00000000000E+00 -0.00000000000E+00 -0.32341767806E+04  0.32341767806E+04  0.00000000000E+00 0. -1.
         23    2    1    2    0    0 -0.73168789078E+03  0.15736837492E+03 -0.18153779919E+04  0.19657300867E+04  0.91463356180E+02 0.  0.
         13    1    3    3    0    0 -0.59002254227E+03  0.10578553878E+03 -0.13659692305E+04  0.14917067806E+04  0.00000000000E+00 0. -1.
        -13    1    3    3    0    0 -0.14166534851E+03  0.51582836146E+02 -0.44940876132E+03  0.47402330608E+03  0.00000000000E+00 0.  1.
         22    1    1    2    0    0  0.73168789078E+03 -0.15736837492E+03 -0.12394022712E+04  0.14478432114E+04  0.00000000000E+00 0. -1.
<mgrwt>
<rscale>  0 0.15234173E+04</rscale>
<asrwt>0</asrwt>
<pdfrwt beam="1">  1        2 0.49756569E+00 0.15234173E+04</pdfrwt>
<pdfrwt beam="2">  1       -2 0.27599463E-01 0.15234173E+04</pdfrwt>
<totfact> 0.14359517E+01</totfact>
</mgrwt>
</event>
<event>
 6    1  0.4630212E-004  0.1717186E+04  0.7818608E-02  0.8751623E-01
          2   -1    0    0  501    0  0.00000000000E+00  0.00000000000E+00  0.61967391969E+03  0.61967391969E+03  0.00000000000E+00 0.  1.
         -2   -1    0    0    0  501 -0.00000000000E+00 -0.00000000000E+00 -0.11896289995E+04  0.11896289995E+04  0.00000000000E+00 0. -1.
         23    2    1    2    0    0 -0.62708477501E+02 -0.44066953879E+03  0.48487509915E+03  0.66440611074E+03  0.90606967947E+02 0.  0.
         11    1    3    3    0    0  0.21073549878E+01 -0.29168424947E+03  0.30573018596E+03  0.42255779361E+03  0.00000000000E+00 0.  1.
        -11    1    3    3    0    0 -0.64815832489E+02 -0.14898528933E+03  0.17914491320E+03  0.24184831713E+03  0.00000000000E+00 0. -1.
         22    1    1    2    0    0  0.62708477501E+02  0.44066953879E+03 -0.10548301790E+04  0.11448968085E+04  0.00000000000E+00 0. -1.
<mgrwt>
<rscale>  0 0.17171861E+04</rscale>
<asrwt>0</asrwt>
<pdfrwt beam="1">  1        2 0.95334449E-01 0.17171861E+04</pdfrwt>
<pdfrwt beam="2">  1       -2 0.18301985E+00 0.17171861E+04</pdfrwt>
<totfact> 0.78259017E+00</totfact>
</mgrwt>
</event>
<event>
 6    1  0.4630212E-004  0.2508358E+04  0.7818608E-02  0.8400014E-01
          2   -1    0    0  501    0  0.00000000000E+00  0.00000000000E+00  0.30742239661E+04  0.30742239661E+04  0.00000000000E+00 0.  1.
         -2   -1    0    0    0  501 -0.00000000000E+00 -0.00000000000E+00 -0.51166225950E+03  0.51166225950E+03  0.00000000000E+00 0. -1.
         23    2    1    2    0    0 -0.45835721284E+03  0.96224333922E+03  0.22234604748E+04  0.24674081419E+04  0.91229804432E+02 0.  0.
         11    1    3    3    0    0 -0.50629429568E+02  0.77286236107E+02  0.14567322372E+03  0.17250272328E+03  0.00000000000E+00 0. -1.
        -11    1    3    3    0    0 -0.40772778327E+03  0.88495710311E+03  0.20777872511E+04  0.22949054186E+04  0.00000000000E+00 0.  1.
         22    1    1    2    0    0  0.45835721284E+03 -0.96224333922E+03  0.33910123186E+03  0.11184780838E+04  0.00000000000E+00 0. -1.
<mgrwt>
<rscale>  0 0.25083575E+04</rscale>
<asrwt>0</asrwt>
<pdfrwt beam="1">  1        2 0.47295752E+00 0.25083575E+04</pdfrwt>
<pdfrwt beam="2">  1       -2 0.78717273E-01 0.25083575E+04</pdfrwt>
<totfact> 0.19972578E+00</totfact>
</mgrwt>
</event>
<event>
 6    1  0.4630212E-004  0.3820203E+04  0.7818608E-02  0.8041833E-01
         -2   -1    0    0    0  501 -0.00000000000E+00  0.00000000000E+00  0.98199177577E+03  0.98199177577E+03  0.00000000000E+00 0. -1.
          2   -1    0    0  501    0  0.00000000000E+00 -0.00000000000E+00 -0.37153952078E+04  0.37153952078E+04  0.00000000000E+00 0.  1.
         23    2    1    2    0    0  0.45208422175E+03  0.14595046279E+04 -0.27747852873E+04  0.31689085373E+04  0.89521085953E+02 0.  0.
         13    1    3    3    0    0  0.29383579331E+03  0.10809939816E+04 -0.20183595042E+04  0.23083896009E+04  0.00000000000E+00 0.  1.
        -13    1    3    3    0    0  0.15824842844E+03  0.37851064637E+03 -0.75642578314E+03  0.86051893641E+03  0.00000000000E+00 0. -1.
         22    1    1    2    0    0 -0.45208422175E+03 -0.14595046279E+04  0.41381855327E+02  0.15284784462E+04  0.00000000000E+00 0. -1.
<mgrwt>
<rscale>  0 0.38202029E+04</rscale>
<asrwt>0</asrwt>
<pdfrwt beam="1">  1        2 0.57159925E+00 0.38202029E+04</pdfrwt>
<pdfrwt beam="2">  1       -2 0.15107566E+00 0.38202029E+04</pdfrwt>
<totfact> 0.13347925E-01</totfact>
</mgrwt>
</event>
<event>
 6    1  0.4630212E-004  0.2587702E+04  0.7818608E-02  0.8372390E-01
          2   -1    0    0  501    0  0.00000000000E+00  0.00000000000E+00  0.22743153011E+04  0.22743153011E+04  0.00000000000E+00 0.  1.
         -2   -1    0    0    0  501 -0.00000000000E+00 -0.00000000000E+00 -0.73606814749E+03  0.73606814749E+03  0.00000000000E+00 0. -1.
         23    2    1    2    0    0  0.43322314129E+03  0.11131861772E+04  0.13435141487E+04  0.18000997221E+04  0.91994491896E+02 0.  0.
         11    1    3    3    0    0  0.79626776229E+02  0.28450474874E+03  0.37340026476E+03  0.47614192556E+03  0.00000000000E+00 0.  1.
        -11    1    3    3    0    0  0.35359636506E+03  0.82868142844E+03  0.97011388398E+03  0.13239577966E+04  0.00000000000E+00 0. -1.
         22    1    1    2    0    0 -0.43322314129E+03 -0.11131861772E+04  0.19473300482E+03  0.12102837264E+04  0.00000000000E+00 0. -1.
<mgrwt>
<rscale>  0 0.25877025E+04</rscale>
<asrwt>0</asrwt>
<pdfrwt beam="1">  1        2 0.34989466E+00 0.25877025E+04</pdfrwt>
<pdfrwt beam="2">  1       -2 0.11324125E+00 0.25877025E+04</pdfrwt>
<totfact> 0.25412243E+00</totfact>
</mgrwt>
</event>
<event>
 6    1  0.4630212E-004  0.1378149E+04  0.7818608E-02  0.8969789E-01
          4   -1    0    0  501    0  0.00000000000E+00  0.00000000000E+00  0.26256773606E+03  0.26256773606E+03  0.00000000000E+00 0.  1.
         -4   -1    0    0    0  501 -0.00000000000E+00 -0.00000000000E+00 -0.18083861566E+04  0.18083861566E+04  0.00000000000E+00 0. -1.
         23    2    1    2    0    0  0.47764686730E+03  0.18585656620E+03 -0.90956942185E+02  0.52845231593E+03  0.91101546802E+02 0.  0.
         11    1    3    3    0    0  0.21995426235E+03  0.13170626794E+03 -0.29573359291E+02  0.25807169958E+03  0.00000000000E+00 0. -1.
        -11    1    3    3    0    0  0.25769260495E+03  0.54150298259E+02 -0.61383582894E+02  0.27038061635E+03  0.00000000000E+00 0.  1.
         22    1    1    2    0    0 -0.47764686730E+03 -0.18585656620E+03 -0.14548614783E+04  0.15425015767E+04  0.00000000000E+00 0. -1.
<mgrwt>
<rscale>  0 0.13781493E+04</rscale>
<asrwt>0</asrwt>
<pdfrwt beam="1">  1        4 0.40395038E-01 0.13781493E+04</pdfrwt>
<pdfrwt beam="2">  1       -4 0.27821325E+00 0.13781493E+04</pdfrwt>
<totfact> 0.49471338E-01</totfact>
</mgrwt>
</event>
<event>
 6    1  0.4630212E-004  0.1443677E+04  0.7818608E-02  0.8922796E-01
          2   -1    0    0  501    0  0.00000000000E+00  0.00000000000E+00  0.11169406990E+04  0.11169406990E+04  0.00000000000E+00 0.  1.
         -2   -1    0    0    0  501 -0.00000000000E+00 -0.00000000000E+00 -0.46649791746E+03  0.46649791746E+03  0.00000000000E+00 0. -1.
         23    2    1    2    0    0 -0.60559558499E+03  0.13034370880E+03  0.72663435760E+03  0.95930669836E+03  0.92392407051E+02 0.  0.
         13    1    3    3    0    0 -0.23160998677E+03  0.71709880644E+02  0.22423036098E+03  0.33024952345E+03  0.00000000000E+00 0. -1.
        -13    1    3    3    0    0 -0.37398559822E+03  0.58633828159E+02  0.50240399662E+03  0.62905717491E+03  0.00000000000E+00 0.  1.
         22    1    1    2    0    0  0.60559558499E+03 -0.13034370880E+03 -0.76191576033E+02  0.62413191814E+03  0.00000000000E+00 0. -1.
<mgrwt>
<rscale>  0 0.14436766E+04</rscale>
<asrwt>0</asrwt>
<pdfrwt beam="1">  1        2 0.17183703E+00 0.14436766E+04</pdfrwt>
<pdfrwt beam="2">  1       -2 0.71768911E-01 0.14436766E+04</pdfrwt>
<totfact> 0.36322971E+01</totfact>
</mgrwt>
</event>
<event>
 6    1  0.4630212E-004  0.3237220E+04  0.7818608E-02  0.8179056E-01
         -2   -1    0    0    0  501 -0.00000000000E+00  0.00000000000E+00  0.15759044381E+04  0.15759044381E+04  0.00000000000E+00 0. -1.
          2   -1    0    0  501    0  0.00000000000E+00 -0.00000000000E+00 -0.16624723953E+04  0.16624723953E+04  0.00000000000E+00 0.  1.
         23    2    1    2    0    0 -0.52886005584E+03 -0.24931552320E+03 -0.15518085691E+04  0.16607896759E+04  0.90891822878E+02 0.  0.
         13    1    3    3    0    0 -0.16578185409E+03 -0.10834324271E+03 -0.43349166028E+03  0.47658881745E+03  0.00000000000E+00 0.  1.
        -13    1    3    3    0    0 -0.36307820175E+03 -0.14097228049E+03 -0.11183169088E+04  0.11842008584E+04  0.00000000000E+00 0. -1.
         22    1    1    2    0    0  0.52886005584E+03  0.24931552320E+03  0.14652406119E+04  0.15775871575E+04  0.00000000000E+00 0. -1.
<mgrwt>
<rscale>  0 0.32372196E+04</rscale>
<asrwt>0</asrwt>
<pdfrwt beam="1">  1        2 0.25576498E+00 0.32372196E+04</pdfrwt>
<pdfrwt beam="2">  1       -2 0.24244684E+00 0.32372196E+04</pdfrwt>
<totfact> 0.61802823E-01</totfact>
</mgrwt>
</event>
<event>
 6    1  0.4630212E-004  0.2864061E+04  0.7818608E-02  0.8283651E-01
          2   -1    0    0  501    0  0.00000000000E+00  0.00000000000E+00  0.24672718988E+04  0.24672718988E+04  0.00000000000E+00 0.  1.
         -2   -1    0    0    0  501 -0.00000000000E+00 -0.00000000000E+00 -0.83116539819E+03  0.83116539819E+03  0.00000000000E+00 0. -1.
         23    2    1    2    0    0 -0.12830738191E+03 -0.51750866616E+03  0.23476747589E+04  0.24092762373E+04  0.93579966549E+02 0.  0.
         11    1    3    3    0    0 -0.13896388474E+03 -0.41702798619E+03  0.19551254137E+04  0.20039308087E+04  0.00000000000E+00 0.  1.
        -11    1    3    3    0    0  0.10656502837E+02 -0.10048067997E+03  0.39254934516E+03  0.40534542860E+03  0.00000000000E+00 0. -1.
         22    1    1    2    0    0  0.12830738191E+03  0.51750866616E+03 -0.71156825832E+03  0.88916105968E+03  0.00000000000E+00 0. -1.
<mgrwt>
<rscale>  0 0.28640608E+04</rscale>
<asrwt>0</asrwt>
<pdfrwt beam="1">  1        2 0.37958029E+00 0.28640608E+04</pdfrwt>
<pdfrwt beam="2">  1       -2 0.12787160E+00 0.28640608E+04</pdfrwt>
<totfact> 0.14250399E+00</totfact>
</mgrwt>
</event>
<event>
 6    1  0.4630212E-004  0.1705438E+04  0.7818608E-02  0.8758269E-01
          2   -1    0    0  501    0  0.00000000000E+00  0.00000000000E+00  0.29200312815E+04  0.29200312815E+04  0.00000000000E+00 0.  1.
         -2   -1    0    0    0  501 -0.00000000000E+00 -0.00000000000E+00 -0.24901444422E+03  0.24901444422E+03  0.00000000000E+00 0. -1.
         23    2    1    2    0    0  0.47931922020E+03 -0.11766014982E+03  0.26258828760E+04  0.26734371098E+04  0.91729362127E+02 0.  0.
         13    1    3    3    0    0  0.36741465314E+03 -0.52394627235E+02  0.20281430595E+04  0.20618203108E+04  0.00000000000E+00 0. -1.
        -13    1    3    3    0    0  0.11190456705E+03 -0.65265522583E+02  0.59773981652E+03  0.61161679900E+03  0.00000000000E+00 0.  1.
         22    1    1    2    0    0 -0.47931922020E+03  0.11766014982E+03  0.45133961265E+02  0.49560861591E+03  0.00000000000E+00 0. -1.
<mgrwt>
<rscale>  0 0.17054383E+04</rscale>
<asrwt>0</asrwt>
<pdfrwt beam="1">  1        2 0.44923556E+00 0.17054383E+04</pdfrwt>
<pdfrwt beam="2">  1       -2 0.38309917E-01 0.17054383E+04</pdfrwt>
<totfact> 0.12000635E+01</totfact>
</mgrwt>
</event>
<event>
 6    1  0.4630212E-004  0.2276904E+04  0.7818608E-02  0.8487084E-01
          2   -1    0    0  501    0  0.00000000000E+00  0.00000000000E+00  0.14735406413E+04  0.14735406413E+04  0.00000000000E+00 0.  1.
         -2   -1    0    0    0  501 -0.00000000000E+00 -0.00000000000E+00 -0.87956362109E+03  0.87956362109E+03  0.00000000000E+00 0. -1.
         23    2    1    2    0    0  0.20716927520E+03 -0.10860792854E+04  0.56945046584E+03  0.12471707768E+04  0.93133187451E+02 0.  0.
         11    1    3    3    0    0  0.13348875188E+03 -0.88911372628E+03  0.45209516286E+03  0.10063461141E+04  0.00000000000E+00 0. -1.
        -11    1    3    3    0    0  0.73680523322E+02 -0.19696555913E+03  0.11735530298E+03  0.24082466264E+03  0.00000000000E+00 0.  1.
         22    1    1    2    0    0 -0.20716927520E+03  0.10860792854E+04  0.24526554388E+02  0.11059334856E+04  0.00000000000E+00 0. -1.
<mgrwt>
<rscale>  0 0.22769038E+04</rscale>
<asrwt>0</asrwt>
<pdfrwt beam="1">  1        2 0.22669856E+00 0.22769038E+04</pdfrwt>
<pdfrwt beam="2">  1       -2 0.13531748E+00 0.22769038E+04</pdfrwt>
<totfact> 0.46810443E+00</totfact>
</mgrwt>
</event>
<event>
 6    1  0.4630212E-004  0.2907866E+04  0.7818608E-02  0.8270541E-01
         -2   -1    0    0    0  501 -0.00000000000E+00  0.00000000000E+00  0.16165303115E+04  0.16165303115E+04  0.00000000000E+00 0. -1.
          2   -1    0    0  501    0  0.00000000000E+00 -0.00000000000E+00 -0.13076903145E+04  0.13076903145E+04  0.00000000000E+00 0.  1.
         23    2    1    2    0    0 -0.13163761983E+04  0.48673161056E+03 -0.22163781869E+03  0.14238337863E+04  0.91789826726E+02 0.  0.
         13    1    3    3    0    0 -0.58391779346E+03  0.22420602900E+03 -0.14432935400E+03  0.64191844917E+03  0.00000000000E+00 0. -1.
        -13    1    3    3    0    0 -0.73245840479E+03  0.26252558156E+03 -0.77308464689E+02  0.78191533713E+03  0.00000000000E+00 0.  1.
         22    1    1    2    0    0  0.13163761983E+04 -0.48673161056E+03  0.53047781570E+03  0.15003868398E+04  0.00000000000E+00 0. -1.
<mgrwt>
<rscale>  0 0.29078659E+04</rscale>
<asrwt>0</asrwt>
<pdfrwt beam="1">  1        2 0.20118313E+00 0.29078659E+04</pdfrwt>
<pdfrwt beam="2">  1       -2 0.24869697E+00 0.29078659E+04</pdfrwt>
<totfact> 0.92377289E-01</totfact>
</mgrwt>
</event>
<event>
 6    1  0.4630212E-004  0.1441976E+04  0.7818608E-02  0.8923983E-01
         -2   -1    0    0    0  501 -0.00000000000E+00  0.00000000000E+00  0.19429199771E+04  0.19429199771E+04  0.00000000000E+00 0. -1.
          2   -1    0    0  501    0  0.00000000000E+00 -0.00000000000E+00 -0.26754756085E+03  0.26754756085E+03  0.00000000000E+00 0.  1.
         23    2    1    2    0    0  0.51979783218E+03  0.43969614220E+03  0.49070954156E+03  0.84410425885E+03  0.90518847904E+02 0.  0.
         11    1    3    3    0    0  0.38072791141E+03  0.28056481496E+03  0.37200043944E+03  0.60170980121E+03  0.00000000000E+00 0. -1.
        -11    1    3    3    0    0  0.13906992077E+03  0.15913132724E+03  0.11870910212E+03  0.24239445765E+03  0.00000000000E+00 0.  1.
         22    1    1    2    0    0 -0.51979783218E+03 -0.43969614220E+03  0.11846628747E+04  0.13663632791E+04  0.00000000000E+00 0. -1.
<mgrwt>
<rscale>  0 0.14419757E+04</rscale>
<asrwt>0</asrwt>
<pdfrwt beam="1">  1        2 0.41161164E-01 0.14419757E+04</pdfrwt>
<pdfrwt beam="2">  1       -2 0.29891076E+00 0.14419757E+04</pdfrwt>
<totfact> 0.39239126E+00</totfact>
</mgrwt>
</event>
<event>
 6    1  0.4630212E-004  0.7733789E+04  0.7818608E-02  0.7506156E-01
          2   -1    0    0  501    0  0.00000000000E+00  0.00000000000E+00  0.41929438399E+04  0.41929438399E+04  0.00000000000E+00 0.  1.
         -2   -1    0    0    0  501 -0.00000000000E+00 -0.00000000000E+00 -0.35661995984E+04  0.35661995984E+04  0.00000000000E+00 0. -1.
         23    2    1    2    0    0 -0.99496013217E+03  0.19763834651E+04 -0.28675854693E+04  0.36231577766E+04  0.90490800244E+02 0.  0.
         13    1    3    3    0    0 -0.13494729440E+03  0.26790403857E+03 -0.44122857254E+03  0.53354100065E+03  0.00000000000E+00 0. -1.
        -13    1    3    3    0    0 -0.86001283776E+03  0.17084794265E+04 -0.24263568968E+04  0.30896167760E+04  0.00000000000E+00 0.  1.
         22    1    1    2    0    0  0.99496013217E+03 -0.19763834651E+04  0.34943297108E+04  0.41359856617E+04  0.00000000000E+00 0.  1.
<mgrwt>
<rscale>  0 0.77337894E+04</rscale>
<asrwt>0</asrwt>
<pdfrwt beam="1">  1        2 0.64506828E+00 0.77337894E+04</pdfrwt>
<pdfrwt beam="2">  1       -2 0.54864609E+00 0.77337894E+04</pdfrwt>
<totfact> 0.12316699E-04</totfact>
</mgrwt>
</event>
<event>
 6    1  0.4630212E-004  0.2159723E+04  0.7818608E-02  0.8535382E-01
          2   -1    0    0  501    0  0.00000000000E+00  0.00000000000E+00  0.84350021471E+03  0.84350021471E+03  0.00000000000E+00 0.  1.
         -2   -1    0    0    0  501 -0.00000000000E+00 -0.00000000000E+00 -0.13824543108E+04  0.13824543108E+04  0.00000000000E+00 0. -1.
         23    2    1    2    0    0  0.61767263334E+03  0.48643584120E+03  0.49012698973E+03  0.93090734847E+03  0.90690218800E+02 0.  0.
         11    1    3    3    0    0  0.53366389103E+02  0.17880367604E+02  0.51478442841E+02  0.76273908441E+02  0.00000000000E+00 0. -1.
        -11    1    3    3    0    0  0.56430624424E+03  0.46855547360E+03  0.43864854689E+03  0.85463344003E+03  0.00000000000E+00 0.  1.
         22    1    1    2    0    0 -0.61767263334E+03 -0.48643584120E+03 -0.10290810858E+04  0.12950471770E+04  0.00000000000E+00 0. -1.
<mgrwt>
<rscale>  0 0.21597227E+04</rscale>
<asrwt>0</asrwt>
<pdfrwt beam="1">  1        2 0.12976926E+00 0.21597227E+04</pdfrwt>
<pdfrwt beam="2">  1       -2 0.21268528E+00 0.21597227E+04</pdfrwt>
<totfact> 0.32354665E+00</totfact>
</mgrwt>
</event>
<event>
 6    1  0.4630212E-004  0.4629591E+04  0.7818608E-02  0.7888334E-01
          2   -1    0    0  501    0  0.00000000000E+00  0.00000000000E+00  0.19178692650E+04  0.19178692650E+04  0.00000000000E+00 0.  1.
         -2   -1    0    0    0  501 -0.00000000000E+00 -0.00000000000E+00 -0.27938706126E+04  0.27938706126E+04  0.00000000000E+00 0. -1.
         23    2    1    2    0    0  0.79294992853E+03 -0.18816871895E+04  0.66957400287E+03  0.21508182795E+04  0.90408283652E+02 0.  0.
         13    1    3    3    0    0  0.27749799711E+03 -0.76526823018E+03  0.28301723113E+03  0.86182327402E+03  0.00000000000E+00 0.  1.
        -13    1    3    3    0    0  0.51545193142E+03 -0.11164189593E+04  0.38655677174E+03  0.12889950054E+04  0.00000000000E+00 0. -1.
         22    1    1    2    0    0 -0.79294992853E+03  0.18816871895E+04 -0.15455753505E+04  0.25609215982E+04  0.00000000000E+00 0.  1.
<mgrwt>
<rscale>  0 0.46295912E+04</rscale>
<asrwt>0</asrwt>
<pdfrwt beam="1">  1        2 0.29505681E+00 0.46295912E+04</pdfrwt>
<pdfrwt beam="2">  1       -2 0.42982625E+00 0.46295912E+04</pdfrwt>
<totfact> 0.26297430E-02</totfact>
</mgrwt>
</event>
<event>
 6    1  0.4630212E-004  0.1930024E+04  0.7818608E-02  0.8640054E-01
          2   -1    0    0  501    0  0.00000000000E+00  0.00000000000E+00  0.74191841268E+03  0.74191841268E+03  0.00000000000E+00 0.  1.
         -2   -1    0    0    0  501 -0.00000000000E+00 -0.00000000000E+00 -0.12551896022E+04  0.12551896022E+04  0.00000000000E+00 0. -1.
         23    2    1    2    0    0 -0.78109573277E+03  0.43768818900E+03  0.10945802129E+03  0.90647830476E+03  0.89668077019E+02 0.  0.
         11    1    3    3    0    0 -0.66373841444E+03  0.35723606562E+03  0.61270911697E+02  0.75625419933E+03  0.00000000000E+00 0. -1.
        -11    1    3    3    0    0 -0.11735731833E+03  0.80452123376E+02  0.48187109592E+02  0.15022410543E+03  0.00000000000E+00 0.  1.
         22    1    1    2    0    0  0.78109573277E+03 -0.43768818900E+03 -0.62272921076E+03  0.10906297101E+04  0.00000000000E+00 0. -1.
<mgrwt>
<rscale>  0 0.19300241E+04</rscale>
<asrwt>0</asrwt>
<pdfrwt beam="1">  1        2 0.11414130E+00 0.19300241E+04</pdfrwt>
<pdfrwt beam="2">  1       -2 0.19310609E+00 0.19300241E+04</pdfrwt>
<totfact> 0.52467005E+00</totfact>
</mgrwt>
</event>
<event>
 6    1  0.4630212E-004  0.1607868E+04  0.7818608E-02  0.8815729E-01
         -2   -1    0    0    0  501 -0.00000000000E+00  0.00000000000E+00  0.17693827179E+03  0.17693827179E+03  0.00000000000E+00 0. -1.
          2   -1    0    0  501    0  0.00000000000E+00 -0.00000000000E+00 -0.36527401425E+04  0.36527401425E+04  0.00000000000E+00 0.  1.
         23    2    1    2    0    0  0.67430870059E+03  0.34619963493E+02 -0.27716925132E+04  0.28541474035E+04  0.89371404525E+02 0.  0.
         11    1    3    3    0    0  0.58285885245E+03  0.48144420557E+02 -0.24861456605E+04  0.25540091175E+04  0.00000000000E+00 0. -1.
        -11    1    3    3    0    0  0.91449848137E+02 -0.13524457064E+02 -0.28554685265E+03  0.30013828600E+03  0.00000000000E+00 0.  1.
         22    1    1    2    0    0 -0.67430870059E+03 -0.34619963493E+02 -0.70410935750E+03  0.97553101072E+03  0.00000000000E+00 0. -1.
<mgrwt>
<rscale>  0 0.16078676E+04</rscale>
<asrwt>0</asrwt>
<pdfrwt beam="1">  1        2 0.56196008E+00 0.16078676E+04</pdfrwt>
<pdfrwt beam="2">  1       -2 0.27221270E-01 0.16078676E+04</pdfrwt>
<totfact> 0.75451857E+00</totfact>
</mgrwt>
</event>
<event>
 6    1  0.4630212E-004  0.1535146E+04  0.7818608E-02  0.8861412E-01
         -2   -1    0    0    0  501 -0.00000000000E+00  0.00000000000E+00  0.33290342529E+03  0.33290342529E+03  0.00000000000E+00 0. -1.
          2   -1    0    0  501    0  0.00000000000E+00 -0.00000000000E+00 -0.17697881818E+04  0.17697881818E+04  0.00000000000E+00 0.  1.
         23    2    1    2    0    0  0.73623972998E+03  0.13871224966E+03 -0.92997997839E+03  0.11981240406E+04  0.96687270888E+02 0.  0.
         11    1    3    3    0    0  0.37420688553E+03  0.25941705603E+02 -0.42999767318E+03  0.57061525059E+03  0.00000000000E+00 0. -1.
        -11    1    3    3    0    0  0.36203284445E+03  0.11277054406E+03 -0.49998230522E+03  0.62750879006E+03  0.00000000000E+00 0.  1.
         22    1    1    2    0    0 -0.73623972998E+03 -0.13871224966E+03 -0.50690477815E+03  0.90456756647E+03  0.00000000000E+00 0. -1.
<mgrwt>
<rscale>  0 0.15351463E+04</rscale>
<asrwt>0</asrwt>
<pdfrwt beam="1">  1        2 0.27227510E+00 0.15351463E+04</pdfrwt>
<pdfrwt beam="2">  1       -2 0.51215912E-01 0.15351463E+04</pdfrwt>
<totfact> 0.31133202E+01</totfact>
</mgrwt>
</event>
<event>
 6    1  0.4630212E-004  0.5808861E+03  0.7818608E-02  0.9945875E-01
          2   -1    0    0  501    0  0.00000000000E+00  0.00000000000E+00  0.86907902076E+03  0.86907902076E+03  0.00000000000E+00 0.  1.
         -2   -1    0    0    0  501 -0.00000000000E+00 -0.00000000000E+00 -0.97065005955E+02  0.97065005955E+02  0.00000000000E+00 0. -1.
         23    2    1    2    0    0  0.21239331831E+03 -0.45762450916E+01  0.70643389696E+03  0.74380955899E+03  0.95246761542E+02 0.  0.
         13    1    3    3    0    0  0.83243572039E+02 -0.41912293254E+02  0.21526675419E+03  0.23457601768E+03  0.00000000000E+00 0.  1.
        -13    1    3    3    0    0  0.12914974628E+03  0.37336048162E+02  0.49116714277E+03  0.50923354130E+03  0.00000000000E+00 0. -1.
         22    1    1    2    0    0 -0.21239331831E+03  0.45762450916E+01  0.65580117847E+02  0.22233446773E+03  0.00000000000E+00 0.  1.
<mgrwt>
<rscale>  0 0.58088608E+03</rscale>
<asrwt>0</asrwt>
<pdfrwt beam="1">  1        2 0.13370446E+00 0.58088608E+03</pdfrwt>
<pdfrwt beam="2">  1       -2 0.14933078E-01 0.58088608E+03</pdfrwt>
<totfact> 0.10931912E+03</totfact>
</mgrwt>
</event>
<event>
 6    1  0.4630212E-004  0.2585971E+04  0.7818608E-02  0.8372982E-01
          2   -1    0    0  501    0  0.00000000000E+00  0.00000000000E+00  0.18257727237E+04  0.18257727237E+04  0.00000000000E+00 0.  1.
         -2   -1    0    0    0  501 -0.00000000000E+00 -0.00000000000E+00 -0.91567334635E+03  0.91567334635E+03  0.00000000000E+00 0. -1.
         23    2    1    2    0    0  0.63240814281E+03  0.98621573181E+03  0.10316204924E+04  0.15635967970E+04  0.89624630912E+02 0.  0.
         11    1    3    3    0    0  0.35810230478E+03  0.57421248862E+03  0.53756117960E+03  0.86425069545E+03  0.00000000000E+00 0. -1.
        -11    1    3    3    0    0  0.27430583803E+03  0.41200324319E+03  0.49405931280E+03  0.69934610154E+03  0.00000000000E+00 0.  1.
         22    1    1    2    0    0 -0.63240814281E+03 -0.98621573181E+03 -0.12152111501E+03  0.11778492731E+04  0.00000000000E+00 0. -1.
<mgrwt>
<rscale>  0 0.25859709E+04</rscale>
<asrwt>0</asrwt>
<pdfrwt beam="1">  1        2 0.28088811E+00 0.25859709E+04</pdfrwt>
<pdfrwt beam="2">  1       -2 0.14087282E+00 0.25859709E+04</pdfrwt>
<totfact> 0.26132860E+00</totfact>
</mgrwt>
</event>
<event>
 6    1  0.4630212E-004  0.4125683E+04  0.7818608E-02  0.7979661E-01
          2   -1    0    0  501    0  0.00000000000E+00  0.00000000000E+00  0.45132256639E+04  0.45132256639E+04  0.00000000000E+00 0.  1.
         -2   -1    0    0    0  501 -0.00000000000E+00 -0.00000000000E+00 -0.94285428636E+03  0.94285428636E+03  0.00000000000E+00 0. -1.
         23    2    1    2    0    0 -0.14617634874E+04 -0.10562109730E+04  0.46397819309E+03  0.18641427669E+04  0.86130013301E+02 0.  0.
         11    1    3    3    0    0 -0.79884756765E+03 -0.62805468531E+03  0.27279606247E+03  0.10521538936E+04  0.00000000000E+00 0. -1.
        -11    1    3    3    0    0 -0.66291591975E+03 -0.42815628770E+03  0.19118213062E+03  0.81198887334E+03  0.00000000000E+00 0.  1.
         22    1    1    2    0    0  0.14617634874E+04  0.10562109730E+04  0.31063931845E+04  0.35919371834E+04  0.00000000000E+00 0.  1.
<mgrwt>
<rscale>  0 0.41256826E+04</rscale>
<asrwt>0</asrwt>
<pdfrwt beam="1">  1        2 0.69434240E+00 0.41256826E+04</pdfrwt>
<pdfrwt beam="2">  1       -2 0.14505451E+00 0.41256826E+04</pdfrwt>
<totfact> 0.30302524E-02</totfact>
</mgrwt>
</event>
<event>
 6    1  0.4630212E-004  0.2955208E+04  0.7818608E-02  0.8256638E-01
          2   -1    0    0  501    0  0.00000000000E+00  0.00000000000E+00  0.94008409689E+03  0.94008409689E+03  0.00000000000E+00 0. -1.
         -2   -1    0    0    0  501 -0.00000000000E+00 -0.00000000000E+00 -0.23224668121E+04  0.23224668121E+04  0.00000000000E+00 0.  1.
         23    2    1    2    0    0  0.13470697099E+04 -0.28983462439E+03 -0.10717417545E+03  0.13851170932E+04  0.91989919018E+02 0.  0.
         13    1    3    3    0    0  0.81980800430E+03 -0.20111747888E+03 -0.10343522618E+03  0.85043062635E+03  0.00000000000E+00 0. -1.
        -13    1    3    3    0    0  0.52726170558E+03 -0.88717145503E+02 -0.37389492650E+01  0.53468646684E+03  0.00000000000E+00 0.  1.
         22    1    1    2    0    0 -0.13470697099E+04  0.28983462439E+03 -0.12752085397E+04  0.18774338158E+04  0.00000000000E+00 0.  1.
<mgrwt>
<rscale>  0 0.29552084E+04</rscale>
<asrwt>0</asrwt>
<pdfrwt beam="1">  1        2 0.14462832E+00 0.29552084E+04</pdfrwt>
<pdfrwt beam="2">  1       -2 0.35730258E+00 0.29552084E+04</pdfrwt>
<totfact> 0.33117972E-01</totfact>
</mgrwt>
</event>
<event>
 6    1  0.4630212E-004  0.3235900E+04  0.7818608E-02  0.8179400E-01
         -2   -1    0    0    0  501 -0.00000000000E+00  0.00000000000E+00  0.87437417319E+03  0.87437417319E+03  0.00000000000E+00 0. -1.
          2   -1    0    0  501    0  0.00000000000E+00 -0.00000000000E+00 -0.29938689906E+04  0.29938689906E+04  0.00000000000E+00 0.  1.
         23    2    1    2    0    0 -0.12725797017E+04 -0.14749341876E+03  0.11816483963E+03  0.12898067875E+04  0.91788965426E+02 0.  0.
         13    1    3    3    0    0 -0.87266549601E+03 -0.10993881425E+03  0.12288079080E+03  0.88810545519E+03  0.00000000000E+00 0. -1.
        -13    1    3    3    0    0 -0.39991420565E+03 -0.37554604512E+02 -0.47159511676E+01  0.40170133233E+03  0.00000000000E+00 0.  1.
         22    1    1    2    0    0  0.12725797017E+04  0.14749341876E+03 -0.22376596570E+04  0.25784363762E+04  0.00000000000E+00 0.  1.
<mgrwt>
<rscale>  0 0.32358997E+04</rscale>
<asrwt>0</asrwt>
<pdfrwt beam="1">  1        2 0.46059523E+00 0.32358997E+04</pdfrwt>
<pdfrwt beam="2">  1       -2 0.13451910E+00 0.32358997E+04</pdfrwt>
<totfact> 0.58674974E-01</totfact>
</mgrwt>
</event>
<event>
 6    1  0.4630212E-004  0.1853968E+04  0.7818608E-02  0.8678115E-01
          2   -1    0    0  501    0  0.00000000000E+00  0.00000000000E+00  0.14634743789E+04  0.14634743789E+04  0.00000000000E+00 0.  1.
         -2   -1    0    0    0  501 -0.00000000000E+00 -0.00000000000E+00 -0.58716415529E+03  0.58716415529E+03  0.00000000000E+00 0. -1.
         23    2    1    2    0    0  0.72380221874E+03 -0.52172385802E+03  0.17010774324E+03  0.91274250238E+03  0.89870993457E+02 0.  0.
         13    1    3    3    0    0  0.21896898643E+03 -0.10979227590E+03  0.37329848233E+02  0.24778070634E+03  0.00000000000E+00 0. -1.
        -13    1    3    3    0    0  0.50483323231E+03 -0.41193158213E+03  0.13277789500E+03  0.66496179604E+03  0.00000000000E+00 0.  1.
         22    1    1    2    0    0 -0.72380221874E+03  0.52172385802E+03  0.70620248035E+03  0.11378960318E+04  0.00000000000E+00 0.  1.
<mgrwt>
<rscale>  0 0.18539684E+04</rscale>
<asrwt>0</asrwt>
<pdfrwt beam="1">  1        2 0.22514990E+00 0.18539684E+04</pdfrwt>
<pdfrwt beam="2">  1       -2 0.90332948E-01 0.18539684E+04</pdfrwt>
<totfact> 0.13114045E+01</totfact>
</mgrwt>
</event>
<event>
 6    1  0.4630212E-004  0.4891066E+04  0.7818608E-02  0.7845535E-01
         -2   -1    0    0    0  501 -0.00000000000E+00  0.00000000000E+00  0.31323259945E+04  0.31323259945E+04  0.00000000000E+00 0. -1.
          2   -1    0    0  501    0  0.00000000000E+00 -0.00000000000E+00 -0.19093257350E+04  0.19093257350E+04  0.00000000000E+00 0.  1.
         23    2    1    2    0    0  0.67268974015E+03  0.22606221806E+04 -0.50796033910E+02  0.23610769539E+04  0.95812396868E+02 0.  0.
         13    1    3    3    0    0  0.39562597565E+03  0.14036130255E+04 -0.72881638487E+02  0.14601236835E+04  0.00000000000E+00 0.  1.
        -13    1    3    3    0    0  0.27706376450E+03  0.85700915514E+03  0.22085604577E+02  0.90095327044E+03  0.00000000000E+00 0. -1.
         22    1    1    2    0    0 -0.67268974015E+03 -0.22606221806E+04  0.12737962934E+04  0.26805747755E+04  0.00000000000E+00 0. -1.
<mgrwt>
<rscale>  0 0.48910656E+04</rscale>
<asrwt>0</asrwt>
<pdfrwt beam="1">  1        2 0.29374242E+00 0.48910656E+04</pdfrwt>
<pdfrwt beam="2">  1       -2 0.48189631E+00 0.48910656E+04</pdfrwt>
<totfact> 0.11885798E-02</totfact>
</mgrwt>
</event>
<event>
 6    1  0.4630212E-004  0.4078239E+04  0.7818608E-02  0.7988947E-01
          2   -1    0    0  501    0  0.00000000000E+00  0.00000000000E+00  0.10909203156E+04  0.10909203156E+04  0.00000000000E+00 0.  1.
         -2   -1    0    0    0  501 -0.00000000000E+00 -0.00000000000E+00 -0.38114677188E+04  0.38114677188E+04  0.00000000000E+00 0. -1.
         23    2    1    2    0    0  0.13651358212E+03 -0.71963652273E+03  0.92534913172E+03  0.11836417098E+04  0.90686264855E+02 0.  0.
         11    1    3    3    0    0  0.32161314841E+02 -0.41110043272E+03  0.51795815764E+03  0.66205631862E+03  0.00000000000E+00 0. -1.
        -11    1    3    3    0    0  0.10435226728E+03 -0.30853609001E+03  0.40739097408E+03  0.52158539117E+03  0.00000000000E+00 0.  1.
         22    1    1    2    0    0 -0.13651358212E+03  0.71963652273E+03 -0.36458965350E+04  0.37187463246E+04  0.00000000000E+00 0. -1.
<mgrwt>
<rscale>  0 0.40782386E+04</rscale>
<asrwt>0</asrwt>
<pdfrwt beam="1">  1        2 0.16783390E+00 0.40782386E+04</pdfrwt>
<pdfrwt beam="2">  1       -2 0.58637965E+00 0.40782386E+04</pdfrwt>
<totfact> 0.99832345E-03</totfact>
</mgrwt>
</event>
<event>
 6    1  0.4630212E-004  0.7983360E+03  0.7818608E-02  0.9562429E-01
          2   -1    0    0  501    0  0.00000000000E+00  0.00000000000E+00  0.20417767752E+04  0.20417767752E+04  0.00000000000E+00 0.  1.
         -2   -1    0    0    0  501 -0.00000000000E+00 -0.00000000000E+00 -0.78037473419E+02  0.78037473419E+02  0.00000000000E+00 0. -1.
         23    2    1    2    0    0 -0.36612889039E+03 -0.11912626047E+03  0.12203427870E+04  0.12826286011E+04  0.87511028659E+02 0.  0.
         11    1    3    3    0    0 -0.25702453248E+03 -0.96452449782E+02  0.73337109846E+03  0.78306950741E+03  0.00000000000E+00 0.  1.
        -11    1    3    3    0    0 -0.10910435790E+03 -0.22673810683E+02  0.48697168858E+03  0.49955909368E+03  0.00000000000E+00 0. -1.
         22    1    1    2    0    0  0.36612889039E+03  0.11912626047E+03  0.74339651476E+03  0.83718564755E+03  0.00000000000E+00 0. -1.
<mgrwt>
<rscale>  0 0.79833602E+03</rscale>
<asrwt>0</asrwt>
<pdfrwt beam="1">  1        2 0.31411946E+00 0.79833602E+03</pdfrwt>
<pdfrwt beam="2">  1       -2 0.12005767E-01 0.79833602E+03</pdfrwt>
<totfact> 0.32875228E+02</totfact>
</mgrwt>
</event>
<event>
 6    1  0.4630212E-004  0.3922009E+04  0.7818608E-02  0.8020467E-01
         -2   -1    0    0    0  501 -0.00000000000E+00  0.00000000000E+00  0.24866650987E+04  0.24866650987E+04  0.00000000000E+00 0. -1.
          2   -1    0    0  501    0  0.00000000000E+00 -0.00000000000E+00 -0.15464644122E+04  0.15464644122E+04  0.00000000000E+00 0.  1.
         23    2    1    2    0    0 -0.10106955330E+04  0.25057686068E+03 -0.12371085597E+04  0.16196320948E+04  0.92066880370E+02 0.  0.
         13    1    3    3    0    0 -0.86874399982E+03  0.18224426794E+03 -0.10403468394E+04  0.13675710792E+04  0.00000000000E+00 0.  1.
        -13    1    3    3    0    0 -0.14195153315E+03  0.68332592747E+02 -0.19676172033E+03  0.25206101560E+03  0.00000000000E+00 0. -1.
         22    1    1    2    0    0  0.10106955330E+04 -0.25057686068E+03  0.21773092463E+04  0.24134974161E+04  0.00000000000E+00 0. -1.
<mgrwt>
<rscale>  0 0.39220092E+04</rscale>
<asrwt>0</asrwt>
<pdfrwt beam="1">  1        2 0.23791760E+00 0.39220092E+04</pdfrwt>
<pdfrwt beam="2">  1       -2 0.38256386E+00 0.39220092E+04</pdfrwt>
<totfact> 0.91386788E-02</totfact>
</mgrwt>
</event>
<event>
 6    1  0.4630212E-004  0.2037633E+04  0.7818608E-02  0.8589225E-01
         -2   -1    0    0    0  501 -0.00000000000E+00  0.00000000000E+00  0.69300343393E+03  0.69300343393E+03  0.00000000000E+00 0. -1.
          2   -1    0    0  501    0  0.00000000000E+00 -0.00000000000E+00 -0.14978091016E+04  0.14978091016E+04  0.00000000000E+00 0.  1.
         23    2    1    2    0    0  0.36634843991E+03 -0.35087179030E+03 -0.13506149608E+04  0.14456749798E+04  0.92158461763E+02 0.  0.
         13    1    3    3    0    0  0.11558071979E+03 -0.11391753687E+03 -0.56045602582E+03  0.58347841852E+03  0.00000000000E+00 0.  1.
        -13    1    3    3    0    0  0.25076772012E+03 -0.23695425343E+03 -0.79015893498E+03  0.86219656123E+03  0.00000000000E+00 0. -1.
         22    1    1    2    0    0 -0.36634843991E+03  0.35087179030E+03  0.54580929310E+03  0.74513755582E+03  0.00000000000E+00 0. -1.
<mgrwt>
<rscale>  0 0.20376328E+04</rscale>
<asrwt>0</asrwt>
<pdfrwt beam="1">  1        2 0.23043217E+00 0.20376328E+04</pdfrwt>
<pdfrwt beam="2">  1       -2 0.10661591E+00 0.20376328E+04</pdfrwt>
<totfact> 0.83557618E+00</totfact>
</mgrwt>
</event>
<event>
 6    1  0.4630212E-004  0.1245934E+04  0.7818608E-02  0.9073574E-01
         -2   -1    0    0    0  501 -0.00000000000E+00  0.00000000000E+00  0.97946639671E+03  0.97946639671E+03  0.00000000000E+00 0. -1.
          2   -1    0    0  501    0  0.00000000000E+00 -0.00000000000E+00 -0.39622407353E+03  0.39622407353E+03  0.00000000000E+00 0.  1.
         23    2    1    2    0    0 -0.25761085994E+03  0.91741370809E+02  0.90713918772E+03  0.95179306151E+03  0.90712136793E+02 0.  0.
         11    1    3    3    0    0 -0.86076940168E+02  0.76046302979E+02  0.40242923988E+03  0.41849919108E+03  0.00000000000E+00 0. -1.
        -11    1    3    3    0    0 -0.17153391977E+03  0.15695067830E+02  0.50470994784E+03  0.53329387043E+03  0.00000000000E+00 0.  1.
         22    1    1    2    0    0  0.25761085994E+03 -0.91741370809E+02 -0.32389686454E+03  0.42389740874E+03  0.00000000000E+00 0.  1.
<mgrwt>
<rscale>  0 0.12459345E+04</rscale>
<asrwt>0</asrwt>
<pdfrwt beam="1">  1        2 0.60957550E-01 0.12459345E+04</pdfrwt>
<pdfrwt beam="2">  1       -2 0.15068714E+00 0.12459345E+04</pdfrwt>
<totfact> 0.23380679E+01</totfact>
</mgrwt>
</event>
<event>
 6    1  0.6141607E-004  0.2659904E+04  0.7818608E-02  0.8348133E-01
          2   -1    0    0  501    0  0.00000000000E+00  0.00000000000E+00  0.20472350636E+04  0.20472350636E+04  0.00000000000E+00 0.  1.
         -2   -1    0    0    0  501 -0.00000000000E+00 -0.00000000000E+00 -0.86398111066E+03  0.86398111066E+03  0.00000000000E+00 0. -1.
         23    2    1    2    0    0 -0.59608534299E+03  0.10903154123E+04  0.11062009392E+04  0.16662091054E+04  0.92015382104E+02 0.  0.
         13    1    3    3    0    0 -0.19390162975E+03  0.41506167454E+03  0.45276979805E+03  0.64410754204E+03  0.00000000000E+00 0.  1.
        -13    1    3    3    0    0 -0.40218371324E+03  0.67525373778E+03  0.65343114117E+03  0.10221015634E+04  0.00000000000E+00 0. -1.
         22    1    1    2    0    0  0.59608534299E+03 -0.10903154123E+04  0.77053013677E+02  0.12450070688E+04  0.00000000000E+00 0.  1.
<mgrwt>
<rscale>  0 0.26599041E+04</rscale>
<asrwt>0</asrwt>
<pdfrwt beam="1">  1        2 0.31495924E+00 0.26599041E+04</pdfrwt>
<pdfrwt beam="2">  1       -2 0.13292017E+00 0.26599041E+04</pdfrwt>
<totfact> 0.22719569E+00</totfact>
</mgrwt>
</event>
<event>
 6    1  0.4630212E-004  0.1906728E+04  0.7818608E-02  0.8651514E-01
          2   -1    0    0  501    0  0.00000000000E+00  0.00000000000E+00  0.16043580589E+04  0.16043580589E+04  0.00000000000E+00 0.  1.
         -2   -1    0    0    0  501 -0.00000000000E+00 -0.00000000000E+00 -0.56652151412E+03  0.56652151412E+03  0.00000000000E+00 0. -1.
         23    2    1    2    0    0 -0.11459947086E+03 -0.68251271050E+03  0.12627179073E+04  0.14431926445E+04  0.96911594723E+02 0.  0.
         13    1    3    3    0    0 -0.11853357764E+03 -0.48237814718E+03  0.94692685616E+03  0.10693032109E+04  0.00000000000E+00 0. -1.
        -13    1    3    3    0    0  0.39341067816E+01 -0.20013456332E+03  0.31579105110E+03  0.37388943364E+03  0.00000000000E+00 0.  1.
         22    1    1    2    0    0  0.11459947086E+03  0.68251271050E+03 -0.22488136248E+03  0.72768692850E+03  0.00000000000E+00 0. -1.
<mgrwt>
<rscale>  0 0.19067285E+04</rscale>
<asrwt>0</asrwt>
<pdfrwt beam="1">  1        2 0.24682431E+00 0.19067285E+04</pdfrwt>
<pdfrwt beam="2">  1       -2 0.87157157E-01 0.19067285E+04</pdfrwt>
<totfact> 0.11810970E+01</totfact>
</mgrwt>
</event>
<event>
 6    1  0.4630212E-004  0.1969451E+04  0.7818608E-02  0.8621038E-01
          2   -1    0    0  501    0  0.00000000000E+00  0.00000000000E+00  0.13502326558E+04  0.13502326558E+04  0.00000000000E+00 0.  1.
         -2   -1    0    0    0  501 -0.00000000000E+00 -0.00000000000E+00 -0.71816096519E+03  0.71816096519E+03  0.00000000000E+00 0. -1.
         23    2    1    2    0    0 -0.18670971859E+03 -0.90593633010E+03 -0.30235296095E+02  0.93075057598E+03  0.99001557347E+02 0.  0.
         13    1    3    3    0    0 -0.18539395487E+03 -0.70020063816E+03 -0.15716797154E+02  0.72449904755E+03  0.00000000000E+00 0.  1.
        -13    1    3    3    0    0 -0.13157637168E+01 -0.20573569193E+03 -0.14518498941E+02  0.20625152843E+03  0.00000000000E+00 0. -1.
         22    1    1    2    0    0  0.18670971859E+03  0.90593633010E+03  0.66230698668E+03  0.11376430450E+04  0.00000000000E+00 0.  1.
<mgrwt>
<rscale>  0 0.19694511E+04</rscale>
<asrwt>0</asrwt>
<pdfrwt beam="1">  1        2 0.20772810E+00 0.19694511E+04</pdfrwt>
<pdfrwt beam="2">  1       -2 0.11048630E+00 0.19694511E+04</pdfrwt>
<totfact> 0.93594622E+00</totfact>
</mgrwt>
</event>
<event>
 6    1  0.4630212E-004  0.1249806E+04  0.7818608E-02  0.9070345E-01
         -2   -1    0    0    0  501 -0.00000000000E+00  0.00000000000E+00  0.10596513699E+03  0.10596513699E+03  0.00000000000E+00 0. -1.
          2   -1    0    0  501    0  0.00000000000E+00 -0.00000000000E+00 -0.36852086840E+04  0.36852086840E+04  0.00000000000E+00 0.  1.
         23    2    1    2    0    0 -0.13817375936E+02 -0.61663147746E+03 -0.20287754462E+04  0.21225286728E+04  0.93663530493E+02 0.  0.
         13    1    3    3    0    0 -0.27639921113E+02 -0.54642501214E+03 -0.18695666233E+04  0.19479793680E+04  0.00000000000E+00 0.  1.
        -13    1    3    3    0    0  0.13822545177E+02 -0.70206465326E+02 -0.15920882291E+03  0.17454930485E+03  0.00000000000E+00 0. -1.
         22    1    1    2    0    0  0.13817375936E+02  0.61663147746E+03 -0.15504681008E+04  0.16686451481E+04  0.00000000000E+00 0. -1.
<mgrwt>
<rscale>  0 0.12498058E+04</rscale>
<asrwt>0</asrwt>
<pdfrwt beam="1">  1        2 0.56695506E+00 0.12498058E+04</pdfrwt>
<pdfrwt beam="2">  1       -2 0.16302332E-01 0.12498058E+04</pdfrwt>
<totfact> 0.18443914E+01</totfact>
</mgrwt>
</event>
<event>
 6    1  0.4630212E-004  0.2569255E+04  0.7818608E-02  0.8378720E-01
         -2   -1    0    0    0  501 -0.00000000000E+00  0.00000000000E+00  0.13342782858E+04  0.13342782858E+04  0.00000000000E+00 0. -1.
          2   -1    0    0  501    0  0.00000000000E+00 -0.00000000000E+00 -0.12368242663E+04  0.12368242663E+04  0.00000000000E+00 0.  1.
         23    2    1    2    0    0 -0.96327427311E+03  0.13680242269E+03  0.88575262378E+03  0.13188937366E+04  0.91163314023E+02 0.  0.
         13    1    3    3    0    0 -0.80257266610E+03  0.11199802992E+03  0.78115008967E+03  0.11255496016E+04  0.00000000000E+00 0.  1.
        -13    1    3    3    0    0 -0.16070160701E+03  0.24804392765E+02  0.10460253411E+03  0.19334413499E+03  0.00000000000E+00 0. -1.
         22    1    1    2    0    0  0.96327427311E+03 -0.13680242269E+03 -0.78829860427E+03  0.12522088155E+04  0.00000000000E+00 0.  1.
<mgrwt>
<rscale>  0 0.25692550E+04</rscale>
<asrwt>0</asrwt>
<pdfrwt beam="1">  1        2 0.19028066E+00 0.25692550E+04</pdfrwt>
<pdfrwt beam="2">  1       -2 0.20527358E+00 0.25692550E+04</pdfrwt>
<totfact> 0.19619623E+00</totfact>
</mgrwt>
</event>
<event>
 6    1  0.4630212E-004  0.4067964E+04  0.7818608E-02  0.7990975E-01
         -2   -1    0    0    0  501 -0.00000000000E+00  0.00000000000E+00  0.75984411977E+03  0.75984411977E+03  0.00000000000E+00 0. -1.
          2   -1    0    0  501    0  0.00000000000E+00 -0.00000000000E+00 -0.54446469810E+04  0.54446469810E+04  0.00000000000E+00 0.  1.
         23    2    1    2    0    0  0.20253716305E+04 -0.61748639923E+02 -0.25923151386E+04  0.32916835195E+04  0.95600618519E+02 0.  0.
         13    1    3    3    0    0  0.11069307609E+04 -0.11385987013E+02 -0.13474586112E+04  0.17438664109E+04  0.00000000000E+00 0.  1.
        -13    1    3    3    0    0  0.91844086963E+03 -0.50362652910E+02 -0.12448565274E+04  0.15478171086E+04  0.00000000000E+00 0. -1.
         22    1    1    2    0    0 -0.20253716305E+04  0.61748639923E+02 -0.20924877226E+04  0.29128075813E+04  0.00000000000E+00 0. -1.
<mgrwt>
<rscale>  0 0.40679641E+04</rscale>
<asrwt>0</asrwt>
<pdfrwt beam="1">  1        2 0.83763797E+00 0.40679641E+04</pdfrwt>
<pdfrwt beam="2">  1       -2 0.11689910E+00 0.40679641E+04</pdfrwt>
<totfact> 0.32844687E-03</totfact>
</mgrwt>
</event>
<event>
 6    1  0.4630212E-004  0.3529378E+04  0.7818608E-02  0.8106863E-01
         -2   -1    0    0    0  501 -0.00000000000E+00  0.00000000000E+00  0.16018321225E+04  0.16018321225E+04  0.00000000000E+00 0. -1.
          2   -1    0    0  501    0  0.00000000000E+00 -0.00000000000E+00 -0.19441038433E+04  0.19441038433E+04  0.00000000000E+00 0.  1.
         23    2    1    2    0    0  0.11189743871E+04  0.12748079018E+04 -0.65616096168E+03  0.18208952936E+04  0.88733290776E+02 0.  0.
         11    1    3    3    0    0  0.41651535848E+03  0.52243596715E+03 -0.29016783543E+03  0.72843788777E+03  0.00000000000E+00 0. -1.
        -11    1    3    3    0    0  0.70245902861E+03  0.75237193470E+03 -0.36599312625E+03  0.10924574058E+04  0.00000000000E+00 0.  1.
         22    1    1    2    0    0 -0.11189743871E+04 -0.12748079018E+04  0.31388924089E+03  0.17250406723E+04  0.00000000000E+00 0.  1.
<mgrwt>
<rscale>  0 0.35293784E+04</rscale>
<asrwt>0</asrwt>
<pdfrwt beam="1">  1        2 0.29909290E+00 0.35293784E+04</pdfrwt>
<pdfrwt beam="2">  1       -2 0.24643571E+00 0.35293784E+04</pdfrwt>
<totfact> 0.39770654E-01</totfact>
</mgrwt>
</event>
<event>
 6    1  0.4630212E-004  0.2224759E+04  0.7818608E-02  0.8508193E-01
          2   -1    0    0  501    0  0.00000000000E+00  0.00000000000E+00  0.12941338841E+04  0.12941338841E+04  0.00000000000E+00 0.  1.
         -2   -1    0    0    0  501 -0.00000000000E+00 -0.00000000000E+00 -0.95615188184E+03  0.95615188184E+03  0.00000000000E+00 0. -1.
         23    2    1    2    0    0 -0.57607008525E+03  0.88230221027E+01 -0.79120119091E+03  0.98261495987E+03  0.87167918459E+02 0.  0.
         13    1    3    3    0    0 -0.41548171560E+03  0.42307888606E+02 -0.59365028672E+03  0.72583446898E+03  0.00000000000E+00 0.  1.
        -13    1    3    3    0    0 -0.16058836965E+03 -0.33484866503E+02 -0.19755090419E+03  0.25678049089E+03  0.00000000000E+00 0. -1.
         22    1    1    2    0    0  0.57607008525E+03 -0.88230221027E+01  0.11291831932E+04  0.12676708061E+04  0.00000000000E+00 0.  1.
<mgrwt>
<rscale>  0 0.22247594E+04</rscale>
<asrwt>0</asrwt>
<pdfrwt beam="1">  1        2 0.19909752E+00 0.22247594E+04</pdfrwt>
<pdfrwt beam="2">  1       -2 0.14710029E+00 0.22247594E+04</pdfrwt>
<totfact> 0.47960422E+00</totfact>
</mgrwt>
</event>
<event>
 6    1  0.4630212E-004  0.1939455E+04  0.7818608E-02  0.8635463E-01
          2   -1    0    0  501    0  0.00000000000E+00  0.00000000000E+00  0.99087261353E+03  0.99087261353E+03  0.00000000000E+00 0.  1.
         -2   -1    0    0    0  501 -0.00000000000E+00 -0.00000000000E+00 -0.94903315332E+03  0.94903315332E+03  0.00000000000E+00 0. -1.
         23    2    1    2    0    0 -0.57833056218E+03  0.11531056029E+03 -0.74648676428E+03  0.95541554309E+03  0.88394605374E+02 0.  0.
         13    1    3    3    0    0 -0.30332445579E+03  0.32270290657E+02 -0.43947634127E+03  0.53496406578E+03  0.00000000000E+00 0. -1.
        -13    1    3    3    0    0 -0.27500610639E+03  0.83040269630E+02 -0.30701042301E+03  0.42045147731E+03  0.00000000000E+00 0.  1.
         22    1    1    2    0    0  0.57833056218E+03 -0.11531056029E+03  0.78832622449E+03  0.98449022377E+03  0.00000000000E+00 0.  1.
<mgrwt>
<rscale>  0 0.19394545E+04</rscale>
<asrwt>0</asrwt>
<pdfrwt beam="1">  1        2 0.15244194E+00 0.19394545E+04</pdfrwt>
<pdfrwt beam="2">  1       -2 0.14600510E+00 0.19394545E+04</pdfrwt>
<totfact> 0.76694702E+00</totfact>
</mgrwt>
</event>
<event>
 6    1  0.4630212E-004  0.1486753E+04  0.7818608E-02  0.8893310E-01
         -2   -1    0    0    0  501 -0.00000000000E+00  0.00000000000E+00  0.49704215849E+03  0.49704215849E+03  0.00000000000E+00 0. -1.
          2   -1    0    0  501    0  0.00000000000E+00 -0.00000000000E+00 -0.11117938254E+04  0.11117938254E+04  0.00000000000E+00 0.  1.
         23    2    1    2    0    0 -0.82358143723E+02 -0.39318506113E+03 -0.98170242941E+03  0.10647493932E+04  0.92597269177E+02 0.  0.
         11    1    3    3    0    0 -0.79767607297E+01 -0.12893086727E+03 -0.42232920949E+03  0.44164324792E+03  0.00000000000E+00 0. -1.
        -11    1    3    3    0    0 -0.74381382993E+02 -0.26425419386E+03 -0.55937321991E+03  0.62310614526E+03  0.00000000000E+00 0.  1.
         22    1    1    2    0    0  0.82358143723E+02  0.39318506113E+03  0.36695076247E+03  0.54408659073E+03  0.00000000000E+00 0. -1.
<mgrwt>
<rscale>  0 0.14867527E+04</rscale>
<asrwt>0</asrwt>
<pdfrwt beam="1">  1        2 0.17104520E+00 0.14867527E+04</pdfrwt>
<pdfrwt beam="2">  1       -2 0.76468025E-01 0.14867527E+04</pdfrwt>
<totfact> 0.31696030E+01</totfact>
</mgrwt>
</event>
<event>
 6    1  0.5701259E-004  0.2880702E+04  0.7818608E-02  0.8278642E-01
          2   -1    0    0  501    0  0.00000000000E+00  0.00000000000E+00  0.29059038154E+04  0.29059038154E+04  0.00000000000E+00 0.  1.
         -2   -1    0    0    0  501 -0.00000000000E+00 -0.00000000000E+00 -0.71392973755E+03  0.71392973755E+03  0.00000000000E+00 0. -1.
         23    2    1    2    0    0  0.34434288327E+03  0.94005195735E+02  0.28486759099E+04  0.28723937265E+04  0.91007045389E+02 0.  0.
         13    1    3    3    0    0  0.11142680602E+03  0.69958603464E+02  0.86564006168E+03  0.87558143864E+03  0.00000000000E+00 0.  1.
        -13    1    3    3    0    0  0.23291607726E+03  0.24046592271E+02  0.19830358482E+04  0.19968122878E+04  0.00000000000E+00 0. -1.
         22    1    1    2    0    0 -0.34434288327E+03 -0.94005195735E+02 -0.65670183200E+03  0.74743982650E+03  0.00000000000E+00 0. -1.
<mgrwt>
<rscale>  0 0.28807021E+04</rscale>
<asrwt>0</asrwt>
<pdfrwt beam="1">  1        2 0.44706212E+00 0.28807021E+04</pdfrwt>
<pdfrwt beam="2">  1       -2 0.10983535E+00 0.28807021E+04</pdfrwt>
<totfact> 0.11351014E+00</totfact>
</mgrwt>
</event>
<event>
 6    1  0.4630212E-004  0.2219908E+04  0.7818608E-02  0.8510188E-01
          2   -1    0    0  501    0  0.00000000000E+00  0.00000000000E+00  0.16727361456E+04  0.16727361456E+04  0.00000000000E+00 0.  1.
         -2   -1    0    0    0  501 -0.00000000000E+00 -0.00000000000E+00 -0.73651630264E+03  0.73651630264E+03  0.00000000000E+00 0. -1.
         23    2    1    2    0    0  0.39578968143E+03 -0.20579616482E+03  0.15693237419E+04  0.16347706343E+04  0.10342381966E+03 0.  0.
         13    1    3    3    0    0  0.72881372568E+02 -0.87866346888E+02  0.39190700103E+03  0.40819515778E+03  0.00000000000E+00 0. -1.
        -13    1    3    3    0    0  0.32290830886E+03 -0.11792981794E+03  0.11774167409E+04  0.12265754765E+04  0.00000000000E+00 0.  1.
         22    1    1    2    0    0 -0.39578968143E+03  0.20579616482E+03 -0.63310389891E+03  0.77448181398E+03  0.00000000000E+00 0. -1.
<mgrwt>
<rscale>  0 0.22199076E+04</rscale>
<asrwt>0</asrwt>
<pdfrwt beam="1">  1        2 0.25734402E+00 0.22199076E+04</pdfrwt>
<pdfrwt beam="2">  1       -2 0.11331020E+00 0.22199076E+04</pdfrwt>
<totfact> 0.56663284E+00</totfact>
</mgrwt>
</event>
<event>
 6    1  0.4630212E-004  0.2480649E+04  0.7818608E-02  0.8409912E-01
          2   -1    0    0  501    0  0.00000000000E+00  0.00000000000E+00  0.16307910772E+04  0.16307910772E+04  0.00000000000E+00 0.  1.
         -2   -1    0    0    0  501 -0.00000000000E+00 -0.00000000000E+00 -0.94334858102E+03  0.94334858102E+03  0.00000000000E+00 0. -1.
         23    2    1    2    0    0 -0.49755603082E+03 -0.36290023353E+03  0.14593231677E+04  0.15866892269E+04  0.93273851895E+02 0.  0.
         13    1    3    3    0    0 -0.10331313073E+03 -0.33062448314E+02  0.27546214626E+03  0.29605087821E+03  0.00000000000E+00 0.  1.
        -13    1    3    3    0    0 -0.39424290009E+03 -0.32983778522E+03  0.11838610215E+04  0.12906383487E+04  0.00000000000E+00 0. -1.
         22    1    1    2    0    0  0.49755603082E+03  0.36290023353E+03 -0.77188067155E+03  0.98745043137E+03  0.00000000000E+00 0. -1.
<mgrwt>
<rscale>  0 0.24806487E+04</rscale>
<asrwt>0</asrwt>
<pdfrwt beam="1">  1        2 0.25089093E+00 0.24806487E+04</pdfrwt>
<pdfrwt beam="2">  1       -2 0.14513055E+00 0.24806487E+04</pdfrwt>
<totfact> 0.31305059E+00</totfact>
</mgrwt>
</event>
<event>
 6    1  0.4630212E-004  0.4258535E+04  0.7818608E-02  0.7954330E-01
         -2   -1    0    0    0  501 -0.00000000000E+00  0.00000000000E+00  0.20833916161E+04  0.20833916161E+04  0.00000000000E+00 0. -1.
          2   -1    0    0  501    0  0.00000000000E+00 -0.00000000000E+00 -0.21761539981E+04  0.21761539981E+04  0.00000000000E+00 0.  1.
         23    2    1    2    0    0  0.12521237223E+04 -0.12670653170E+04 -0.12111135565E+04  0.21562202274E+04  0.96027539424E+02 0.  0.
         11    1    3    3    0    0  0.62176708242E+03 -0.56507875337E+03 -0.55075123768E+03  0.10046070018E+04  0.00000000000E+00 0.  1.
        -11    1    3    3    0    0  0.63035663990E+03 -0.70198656368E+03 -0.66036231887E+03  0.11516132255E+04  0.00000000000E+00 0. -1.
         22    1    1    2    0    0 -0.12521237223E+04  0.12670653170E+04  0.11183511745E+04  0.21033253869E+04  0.00000000000E+00 0. -1.
<mgrwt>
<rscale>  0 0.42585354E+04</rscale>
<asrwt>0</asrwt>
<pdfrwt beam="1">  1        2 0.33479292E+00 0.42585354E+04</pdfrwt>
<pdfrwt beam="2">  1       -2 0.32052179E+00 0.42585354E+04</pdfrwt>
<totfact> 0.97794857E-02</totfact>
</mgrwt>
</event>
<event>
 6    1  0.5231659E-004  0.4731700E+04  0.7818608E-02  0.7871283E-01
          2   -1    0    0  501    0  0.00000000000E+00  0.00000000000E+00  0.24384917763E+04  0.24384917763E+04  0.00000000000E+00 0.  1.
         -2   -1    0    0    0  501 -0.00000000000E+00 -0.00000000000E+00 -0.22953721385E+04  0.22953721385E+04  0.00000000000E+00 0. -1.
         23    2    1    2    0    0  0.87611625851E+03  0.19837946350E+04  0.10154210475E+04  0.23963587059E+04  0.91838398353E+02 0.  0.
         11    1    3    3    0    0  0.56782523421E+03  0.12418364899E+04  0.59419299275E+03  0.14891771812E+04  0.00000000000E+00 0. -1.
        -11    1    3    3    0    0  0.30829102430E+03  0.74195814509E+03  0.42122805473E+03  0.90718152473E+03  0.00000000000E+00 0.  1.
         22    1    1    2    0    0 -0.87611625851E+03 -0.19837946350E+04 -0.87230140961E+03  0.23375052089E+04  0.00000000000E+00 0. -1.
<mgrwt>
<rscale>  0 0.47316999E+04</rscale>
<asrwt>0</asrwt>
<pdfrwt beam="1">  1        2 0.37515258E+00 0.47316999E+04</pdfrwt>
<pdfrwt beam="2">  1       -2 0.35313417E+00 0.47316999E+04</pdfrwt>
<totfact> 0.41768962E-02</totfact>
</mgrwt>
</event>
<event>
 6    1  0.4630212E-004  0.3306161E+04  0.7818608E-02  0.8161329E-01
          2   -1    0    0  501    0  0.00000000000E+00  0.00000000000E+00  0.26421719534E+04  0.26421719534E+04  0.00000000000E+00 0.  1.
         -2   -1    0    0    0  501 -0.00000000000E+00 -0.00000000000E+00 -0.10342535690E+04  0.10342535690E+04  0.00000000000E+00 0. -1.
         23    2    1    2    0    0 -0.22245385562E+03  0.15707648149E+04  0.13164195764E+04  0.20634285055E+04  0.89380505684E+02 0.  0.
         11    1    3    3    0    0 -0.92236008829E+02  0.63614667975E+03  0.47686475773E+03  0.80036871294E+03  0.00000000000E+00 0. -1.
        -11    1    3    3    0    0 -0.13021784679E+03  0.93461813511E+03  0.83955481868E+03  0.12630597926E+04  0.00000000000E+00 0.  1.
         22    1    1    2    0    0  0.22245385562E+03 -0.15707648149E+04  0.29149880797E+03  0.16129970169E+04  0.00000000000E+00 0. -1.
<mgrwt>
<rscale>  0 0.33061614E+04</rscale>
<asrwt>0</asrwt>
<pdfrwt beam="1">  1        2 0.40648799E+00 0.33061614E+04</pdfrwt>
<pdfrwt beam="2">  1       -2 0.15911593E+00 0.33061614E+04</pdfrwt>
<totfact> 0.61332709E-01</totfact>
</mgrwt>
</event>
<event>
 6    1  0.4988486E-004  0.4423572E+04  0.7818608E-02  0.7924155E-01
          2   -1    0    0  501    0  0.00000000000E+00  0.00000000000E+00  0.27221086458E+04  0.27221086458E+04  0.00000000000E+00 0.  1.
         -2   -1    0    0    0  501 -0.00000000000E+00 -0.00000000000E+00 -0.17971349305E+04  0.17971349305E+04  0.00000000000E+00 0. -1.
         23    2    1    2    0    0  0.20785447118E+04  0.49326082437E+03  0.10436613376E+04  0.23796779401E+04  0.99918724412E+02 0.  0.
         13    1    3    3    0    0  0.97333104028E+03  0.25635210127E+03  0.44342476936E+03  0.10998705560E+04  0.00000000000E+00 0. -1.
        -13    1    3    3    0    0  0.11052136715E+04  0.23690872310E+03  0.60023656821E+03  0.12798073842E+04  0.00000000000E+00 0.  1.
         22    1    1    2    0    0 -0.20785447118E+04 -0.49326082437E+03 -0.11868762220E+03  0.21395656362E+04  0.00000000000E+00 0. -1.
<mgrwt>
<rscale>  0 0.44235716E+04</rscale>
<asrwt>0</asrwt>
<pdfrwt beam="1">  1        2 0.41878595E+00 0.44235716E+04</pdfrwt>
<pdfrwt beam="2">  1       -2 0.27648229E+00 0.44235716E+04</pdfrwt>
<totfact> 0.86883404E-02</totfact>
</mgrwt>
</event>
<event>
 6    1  0.4630212E-004  0.2484009E+04  0.7818608E-02  0.8408705E-01
         -4   -1    0    0    0  501 -0.00000000000E+00  0.00000000000E+00  0.21765208306E+04  0.21765208306E+04  0.00000000000E+00 0. -1.
          4   -1    0    0  501    0  0.00000000000E+00 -0.00000000000E+00 -0.70873420522E+03  0.70873420522E+03  0.00000000000E+00 0.  1.
         23    2    1    2    0    0  0.16403959157E+03  0.31967371259E+03 -0.64410952531E+03  0.74301190735E+03  0.89940779082E+02 0.  0.
         13    1    3    3    0    0  0.10807787801E+03  0.13240114251E+03 -0.24645294448E+03  0.29991656189E+03  0.00000000000E+00 0. -1.
        -13    1    3    3    0    0  0.55961713563E+02  0.18727257008E+03 -0.39765658083E+03  0.44309534546E+03  0.00000000000E+00 0.  1.
         22    1    1    2    0    0 -0.16403959157E+03 -0.31967371259E+03  0.21118961507E+04  0.21422431285E+04  0.00000000000E+00 0. -1.
<mgrwt>
<rscale>  0 0.24840087E+04</rscale>
<asrwt>0</asrwt>
<pdfrwt beam="1">  1        4 0.10903603E+00 0.24840087E+04</pdfrwt>
<pdfrwt beam="2">  1       -4 0.33484936E+00 0.24840087E+04</pdfrwt>
<totfact> 0.22199708E-02</totfact>
</mgrwt>
</event>
<event>
 6    1  0.4630212E-004  0.2377634E+04  0.7818608E-02  0.8447925E-01
         -2   -1    0    0    0  501 -0.00000000000E+00  0.00000000000E+00  0.92279802500E+03  0.92279802500E+03  0.00000000000E+00 0. -1.
          2   -1    0    0  501    0  0.00000000000E+00 -0.00000000000E+00 -0.15315227769E+04  0.15315227769E+04  0.00000000000E+00 0.  1.
         23    2    1    2    0    0 -0.26666722691E+03  0.26227612583E+03 -0.14677582559E+04  0.15173903150E+04  0.90878457583E+02 0.  0.
         11    1    3    3    0    0 -0.71536368717E+02  0.13213731730E+03 -0.55562093175E+03  0.57558000527E+03  0.00000000000E+00 0. -1.
        -11    1    3    3    0    0 -0.19513085819E+03  0.13013880853E+03 -0.91213732419E+03  0.94181030972E+03  0.00000000000E+00 0.  1.
         22    1    1    2    0    0  0.26666722691E+03 -0.26227612583E+03  0.85903350409E+03  0.93693048687E+03  0.00000000000E+00 0. -1.
<mgrwt>
<rscale>  0 0.23776343E+04</rscale>
<asrwt>0</asrwt>
<pdfrwt beam="1">  1        2 0.23561889E+00 0.23776343E+04</pdfrwt>
<pdfrwt beam="2">  1       -2 0.14196893E+00 0.23776343E+04</pdfrwt>
<totfact> 0.38021306E+00</totfact>
</mgrwt>
</event>
<event>
 6    1  0.4630212E-004  0.3806161E+04  0.7818608E-02  0.8044834E-01
         -2   -1    0    0    0  501 -0.00000000000E+00  0.00000000000E+00  0.18894127035E+04  0.18894127035E+04  0.00000000000E+00 0. -1.
          2   -1    0    0  501    0  0.00000000000E+00 -0.00000000000E+00 -0.19168475307E+04  0.19168475307E+04  0.00000000000E+00 0.  1.
         23    2    1    2    0    0 -0.14445654523E+04  0.52692672793E+03  0.11056820052E+04  0.18961882779E+04  0.92607590464E+02 0.  0.
         11    1    3    3    0    0 -0.79238042609E+02  0.34440557737E+02  0.38171541425E+02  0.94455735604E+02  0.00000000000E+00 0. -1.
        -11    1    3    3    0    0 -0.13653274097E+04  0.49248617019E+03  0.10675104638E+04  0.18017325423E+04  0.00000000000E+00 0.  1.
         22    1    1    2    0    0  0.14445654523E+04 -0.52692672793E+03 -0.11331168324E+04  0.19100719564E+04  0.00000000000E+00 0.  1.
<mgrwt>
<rscale>  0 0.38061614E+04</rscale>
<asrwt>0</asrwt>
<pdfrwt beam="1">  1        2 0.29489962E+00 0.38061614E+04</pdfrwt>
<pdfrwt beam="2">  1       -2 0.29067888E+00 0.38061614E+04</pdfrwt>
<totfact> 0.21585286E-01</totfact>
</mgrwt>
</event>
<event>
 6    1  0.4630212E-004  0.1034046E+04  0.7818608E-02  0.9271972E-01
         -1   -1    0    0    0  501 -0.00000000000E+00  0.00000000000E+00  0.38031151890E+03  0.38031151890E+03  0.00000000000E+00 0. -1.
          1   -1    0    0  501    0  0.00000000000E+00 -0.00000000000E+00 -0.70287880617E+03  0.70287880617E+03  0.00000000000E+00 0.  1.
         23    2    1    2    0    0  0.17231761876E+03  0.34373121377E+03 -0.51788249410E+03  0.65192180190E+03  0.94632177670E+02 0.  0.
         11    1    3    3    0    0  0.53776944503E+02  0.15662490389E+03 -0.29117770613E+03  0.33497429279E+03  0.00000000000E+00 0.  1.
        -11    1    3    3    0    0  0.11854067426E+03  0.18710630987E+03 -0.22670478796E+03  0.31694750911E+03  0.00000000000E+00 0. -1.
         22    1    1    2    0    0 -0.17231761876E+03 -0.34373121377E+03  0.19531520682E+03  0.43126852316E+03  0.00000000000E+00 0. -1.
<mgrwt>
<rscale>  0 0.10340462E+04</rscale>
<asrwt>0</asrwt>
<pdfrwt beam="1">  1        1 0.10813520E+00 0.10340462E+04</pdfrwt>
<pdfrwt beam="2">  1       -1 0.58509464E-01 0.10340462E+04</pdfrwt>
<totfact> 0.80197981E+01</totfact>
</mgrwt>
</event>
<event>
 6    1  0.4630212E-004  0.3771424E+04  0.7818608E-02  0.8052315E-01
         -1   -1    0    0    0  501 -0.00000000000E+00  0.00000000000E+00  0.19034009967E+04  0.19034009967E+04  0.00000000000E+00 0. -1.
          1   -1    0    0  501    0  0.00000000000E+00 -0.00000000000E+00 -0.18681869760E+04  0.18681869760E+04  0.00000000000E+00 0.  1.
         23    2    1    2    0    0 -0.31103314913E+03  0.13198394991E+04 -0.12906248681E+04  0.18751263511E+04  0.10802018018E+03 0.  0.
         11    1    3    3    0    0 -0.31333465365E+02  0.26596330377E+03 -0.29743297383E+03  0.40023073211E+03  0.00000000000E+00 0.  1.
        -11    1    3    3    0    0 -0.27969968376E+03  0.10538761953E+04 -0.99319189428E+03  0.14748956190E+04  0.00000000000E+00 0. -1.
         22    1    1    2    0    0  0.31103314913E+03 -0.13198394991E+04  0.13258388888E+04  0.18964616216E+04  0.00000000000E+00 0. -1.
<mgrwt>
<rscale>  0 0.37714236E+04</rscale>
<asrwt>0</asrwt>
<pdfrwt beam="1">  1        1 0.28741338E+00 0.37714236E+04</pdfrwt>
<pdfrwt beam="2">  1       -1 0.29283092E+00 0.37714236E+04</pdfrwt>
<totfact> 0.10733845E-01</totfact>
</mgrwt>
</event>
<event>
 6    1  0.4630212E-004  0.3215855E+04  0.7818608E-02  0.8184643E-01
          2   -1    0    0  501    0  0.00000000000E+00  0.00000000000E+00  0.15988858469E+04  0.15988858469E+04  0.00000000000E+00 0.  1.
         -2   -1    0    0    0  501 -0.00000000000E+00 -0.00000000000E+00 -0.16170197986E+04  0.16170197986E+04  0.00000000000E+00 0. -1.
         23    2    1    2    0    0 -0.12576436467E+04 -0.28423987849E+03 -0.96766834702E+03  0.16146325837E+04  0.90534523927E+02 0.  0.
         13    1    3    3    0    0 -0.50823261268E+03 -0.85436189609E+02 -0.42887511090E+03  0.67047266300E+03  0.00000000000E+00 0. -1.
        -13    1    3    3    0    0 -0.74941103402E+03 -0.19880368888E+03 -0.53879323611E+03  0.94415992072E+03  0.00000000000E+00 0.  1.
         22    1    1    2    0    0  0.12576436467E+04  0.28423987849E+03  0.94953439533E+03  0.16012730618E+04  0.00000000000E+00 0.  1.
<mgrwt>
<rscale>  0 0.32158545E+04</rscale>
<asrwt>0</asrwt>
<pdfrwt beam="1">  1        2 0.24598244E+00 0.32158545E+04</pdfrwt>
<pdfrwt beam="2">  1       -2 0.24877228E+00 0.32158545E+04</pdfrwt>
<totfact> 0.61415542E-01</totfact>
</mgrwt>
</event>
<event>
 6    1  0.4630212E-004  0.2546924E+04  0.7818608E-02  0.8386457E-01
          2   -1    0    0  501    0  0.00000000000E+00  0.00000000000E+00  0.18697253621E+04  0.18697253621E+04  0.00000000000E+00 0.  1.
         -2   -1    0    0    0  501 -0.00000000000E+00 -0.00000000000E+00 -0.86734955933E+03  0.86734955933E+03  0.00000000000E+00 0. -1.
         23    2    1    2    0    0  0.79629014409E+03 -0.53999841515E+03  0.13956642384E+04  0.16976750583E+04  0.92442712988E+02 0.  0.
         13    1    3    3    0    0  0.16727706763E+03 -0.15557031834E+03  0.29925088727E+03  0.37647687158E+03  0.00000000000E+00 0. -1.
        -13    1    3    3    0    0  0.62901307646E+03 -0.38442809681E+03  0.10964133512E+04  0.13211981867E+04  0.00000000000E+00 0.  1.
         22    1    1    2    0    0 -0.79629014409E+03  0.53999841515E+03 -0.39328843564E+03  0.10393998632E+04  0.00000000000E+00 0. -1.
<mgrwt>
<rscale>  0 0.25469240E+04</rscale>
<asrwt>0</asrwt>
<pdfrwt beam="1">  1        2 0.28765005E+00 0.25469240E+04</pdfrwt>
<pdfrwt beam="2">  1       -2 0.13343839E+00 0.25469240E+04</pdfrwt>
<totfact> 0.28502427E+00</totfact>
</mgrwt>
</event>
<event>
 6    1  0.4630212E-004  0.4607632E+04  0.7818608E-02  0.7892060E-01
          2   -1    0    0  501    0  0.00000000000E+00  0.00000000000E+00  0.22511708838E+04  0.22511708838E+04  0.00000000000E+00 0.  1.
         -2   -1    0    0    0  501 -0.00000000000E+00 -0.00000000000E+00 -0.23576923080E+04  0.23576923080E+04  0.00000000000E+00 0. -1.
         23    2    1    2    0    0  0.11854446278E+04  0.16505667094E+04 -0.11370681624E+04  0.23303382288E+04  0.88897845934E+02 0.  0.
         11    1    3    3    0    0  0.10798867124E+04  0.14811586375E+04 -0.99837907527E+03  0.20872822040E+04  0.00000000000E+00 0.  1.
        -11    1    3    3    0    0  0.10555791534E+03  0.16940807188E+03 -0.13868908711E+03  0.24305602480E+03  0.00000000000E+00 0. -1.
         22    1    1    2    0    0 -0.11854446278E+04 -0.16505667094E+04  0.10305467382E+04  0.22785249630E+04  0.00000000000E+00 0.  1.
<mgrwt>
<rscale>  0 0.46076320E+04</rscale>
<asrwt>0</asrwt>
<pdfrwt beam="1">  1        2 0.34633398E+00 0.46076320E+04</pdfrwt>
<pdfrwt beam="2">  1       -2 0.36272189E+00 0.46076320E+04</pdfrwt>
<totfact> 0.46899741E-02</totfact>
</mgrwt>
</event>
<event>
 6    1  0.4630212E-004  0.4598490E+04  0.7818608E-02  0.7893617E-01
         -1   -1    0    0    0  501 -0.00000000000E+00  0.00000000000E+00  0.25582477980E+04  0.25582477980E+04  0.00000000000E+00 0. -1.
          1   -1    0    0  501    0  0.00000000000E+00 -0.00000000000E+00 -0.20664638471E+04  0.20664638471E+04  0.00000000000E+00 0.  1.
         23    2    1    2    0    0  0.12949256847E+04 -0.18667462396E+04 -0.10380871394E+03  0.22760301694E+04  0.89235816707E+02 0.  0.
         13    1    3    3    0    0  0.58632552706E+03 -0.86185692711E+03 -0.91124830272E+02  0.10463645260E+04  0.00000000000E+00 0.  1.
        -13    1    3    3    0    0  0.70860015764E+03 -0.10048893125E+04 -0.12683883663E+02  0.12296656434E+04  0.00000000000E+00 0. -1.
         22    1    1    2    0    0 -0.12949256847E+04  0.18667462396E+04  0.59559266477E+03  0.23486814757E+04  0.00000000000E+00 0.  1.
<mgrwt>
<rscale>  0 0.45984896E+04</rscale>
<asrwt>0</asrwt>
<pdfrwt beam="1">  1        1 0.31791751E+00 0.45984896E+04</pdfrwt>
<pdfrwt beam="2">  1       -1 0.39357659E+00 0.45984896E+04</pdfrwt>
<totfact> 0.15843618E-02</totfact>
</mgrwt>
</event>
<event>
 6    1  0.4630212E-004  0.3699862E+04  0.7818608E-02  0.8067992E-01
          2   -1    0    0  501    0  0.00000000000E+00  0.00000000000E+00  0.25823278441E+04  0.25823278441E+04  0.00000000000E+00 0.  1.
         -2   -1    0    0    0  501 -0.00000000000E+00 -0.00000000000E+00 -0.13252559777E+04  0.13252559777E+04  0.00000000000E+00 0. -1.
         23    2    1    2    0    0  0.11048767769E+04 -0.19773753901E+03  0.21804250110E+04  0.24541623907E+04  0.93845538099E+02 0.  0.
         11    1    3    3    0    0  0.54215876376E+03 -0.13855154985E+03  0.11343901424E+04  0.12649006491E+04  0.00000000000E+00 0.  1.
        -11    1    3    3    0    0  0.56271801314E+03 -0.59185989155E+02  0.10460348686E+04  0.11892617416E+04  0.00000000000E+00 0. -1.
         22    1    1    2    0    0 -0.11048767769E+04  0.19773753901E+03 -0.92335314466E+03  0.14534214310E+04  0.00000000000E+00 0. -1.
<mgrwt>
<rscale>  0 0.36998624E+04</rscale>
<asrwt>0</asrwt>
<pdfrwt beam="1">  1        2 0.39728121E+00 0.36998624E+04</pdfrwt>
<pdfrwt beam="2">  1       -2 0.20388554E+00 0.36998624E+04</pdfrwt>
<totfact> 0.31601739E-01</totfact>
</mgrwt>
</event>
<event>
 6    1  0.4630212E-004  0.3038809E+04  0.7818608E-02  0.8232735E-01
         -2   -1    0    0    0  501 -0.00000000000E+00  0.00000000000E+00  0.99819878840E+03  0.99819878840E+03  0.00000000000E+00 0. -1.
          2   -1    0    0  501    0  0.00000000000E+00 -0.00000000000E+00 -0.23127557694E+04  0.23127557694E+04  0.00000000000E+00 0.  1.
         23    2    1    2    0    0  0.10470843624E+04  0.10209692932E+04 -0.21431688647E+03  0.14808473956E+04  0.90627377671E+02 0.  0.
         13    1    3    3    0    0  0.37636289435E+03  0.30749973488E+03 -0.68531996951E+02  0.49081743021E+03  0.00000000000E+00 0. -1.
        -13    1    3    3    0    0  0.67072146806E+03  0.71346955828E+03 -0.14578488952E+03  0.99002996537E+03  0.00000000000E+00 0.  1.
         22    1    1    2    0    0 -0.10470843624E+04 -0.10209692932E+04 -0.11002400945E+04  0.18301071622E+04  0.00000000000E+00 0. -1.
<mgrwt>
<rscale>  0 0.30388090E+04</rscale>
<asrwt>0</asrwt>
<pdfrwt beam="1">  1        2 0.35580858E+00 0.30388090E+04</pdfrwt>
<pdfrwt beam="2">  1       -2 0.15356904E+00 0.30388090E+04</pdfrwt>
<totfact> 0.10706019E+00</totfact>
</mgrwt>
</event>
<event>
 6    1  0.4630212E-004  0.1916664E+04  0.7818608E-02  0.8646606E-01
         -2   -1    0    0    0  501 -0.00000000000E+00  0.00000000000E+00  0.15328603618E+04  0.15328603618E+04  0.00000000000E+00 0. -1.
          2   -1    0    0  501    0  0.00000000000E+00 -0.00000000000E+00 -0.59914126593E+03  0.59914126593E+03  0.00000000000E+00 0.  1.
         23    2    1    2    0    0  0.46093297699E+03  0.74330780857E+02 -0.46014439554E+03  0.66202213571E+03  0.92499563049E+02 0.  0.
         11    1    3    3    0    0  0.32245450149E+03  0.94034525903E+02 -0.31596318973E+03  0.46114220676E+03  0.00000000000E+00 0. -1.
        -11    1    3    3    0    0  0.13847847550E+03 -0.19703745046E+02 -0.14418120581E+03  0.20087992895E+03  0.00000000000E+00 0.  1.
         22    1    1    2    0    0 -0.46093297699E+03 -0.74330780857E+02  0.13938634914E+04  0.14699794920E+04  0.00000000000E+00 0. -1.
<mgrwt>
<rscale>  0 0.19166637E+04</rscale>
<asrwt>0</asrwt>
<pdfrwt beam="1">  1        2 0.92175580E-01 0.19166637E+04</pdfrwt>
<pdfrwt beam="2">  1       -2 0.23582467E+00 0.19166637E+04</pdfrwt>
<totfact> 0.36523950E+00</totfact>
</mgrwt>
</event>
<event>
 6    1  0.4630212E-004  0.1693452E+04  0.7818608E-02  0.8765108E-01
         -2   -1    0    0    0  501 -0.00000000000E+00  0.00000000000E+00  0.89599587932E+03  0.89599587932E+03  0.00000000000E+00 0. -1.
          2   -1    0    0  501    0  0.00000000000E+00 -0.00000000000E+00 -0.80016524253E+03  0.80016524253E+03  0.00000000000E+00 0.  1.
         23    2    1    2    0    0  0.72473874385E+03  0.26164333309E+03 -0.29792631441E+03  0.83085885258E+03  0.88672789038E+02 0.  0.
         13    1    3    3    0    0  0.29690443410E+03  0.90595551162E+02 -0.76763715868E+02  0.31976939340E+03  0.00000000000E+00 0.  1.
        -13    1    3    3    0    0  0.42783430974E+03  0.17104778193E+03 -0.22116259854E+03  0.51108945919E+03  0.00000000000E+00 0. -1.
         22    1    1    2    0    0 -0.72473874385E+03 -0.26164333309E+03  0.39375695121E+03  0.86530226927E+03  0.00000000000E+00 0. -1.
<mgrwt>
<rscale>  0 0.16934518E+04</rscale>
<asrwt>0</asrwt>
<pdfrwt beam="1">  1        2 0.12310234E+00 0.16934518E+04</pdfrwt>
<pdfrwt beam="2">  1       -2 0.13784552E+00 0.16934518E+04</pdfrwt>
<totfact> 0.12255223E+01</totfact>
</mgrwt>
</event>
<event>
 6    1  0.4630212E-004  0.9375189E+03  0.7818608E-02  0.9379859E-01
          2   -1    0    0  501    0  0.00000000000E+00  0.00000000000E+00  0.34987985133E+04  0.34987985133E+04  0.00000000000E+00 0.  1.
         -2   -1    0    0    0  501 -0.00000000000E+00 -0.00000000000E+00 -0.62803103715E+02  0.62803103715E+02  0.00000000000E+00 0. -1.
         23    2    1    2    0    0  0.38684222419E+03  0.23806115833E+03  0.20994636575E+04  0.21499936169E+04  0.91678144784E+02 0.  0.
         13    1    3    3    0    0  0.14313170839E+03  0.71546844164E+02  0.94161093205E+03  0.95511087535E+03  0.00000000000E+00 0. -1.
        -13    1    3    3    0    0  0.24371051581E+03  0.16651431417E+03  0.11578527254E+04  0.11948827416E+04  0.00000000000E+00 0.  1.
         22    1    1    2    0    0 -0.38684222419E+03 -0.23806115833E+03  0.13365317521E+04  0.14116080001E+04  0.00000000000E+00 0. -1.
<mgrwt>
<rscale>  0 0.93751887E+03</rscale>
<asrwt>0</asrwt>
<pdfrwt beam="1">  1        2 0.53827654E+00 0.93751887E+03</pdfrwt>
<pdfrwt beam="2">  1       -2 0.96620187E-02 0.93751887E+03</pdfrwt>
<totfact> 0.62048006E+01</totfact>
</mgrwt>
</event>
<event>
 6    1  0.4630212E-004  0.6941897E+04  0.7818608E-02  0.7583457E-01
          2   -1    0    0  501    0  0.00000000000E+00  0.00000000000E+00  0.33595323465E+04  0.33595323465E+04  0.00000000000E+00 0.  1.
         -2   -1    0    0    0  501 -0.00000000000E+00 -0.00000000000E+00 -0.35860592854E+04  0.35860592854E+04  0.00000000000E+00 0. -1.
         23    2    1    2    0    0 -0.80005685860E+03  0.20543056371E+04 -0.27948133047E+04  0.35608674947E+04  0.92375749409E+02 0.  0.
         13    1    3    3    0    0 -0.37031844234E+03  0.10109052151E+04 -0.12989034146E+04  0.16870729632E+04  0.00000000000E+00 0. -1.
        -13    1    3    3    0    0 -0.42973841625E+03  0.10434004220E+04 -0.14959098901E+04  0.18737945316E+04  0.00000000000E+00 0.  1.
         22    1    1    2    0    0  0.80005685860E+03 -0.20543056371E+04  0.25682863658E+04  0.33847241372E+04  0.00000000000E+00 0.  1.
<mgrwt>
<rscale>  0 0.69418966E+04</rscale>
<asrwt>0</asrwt>
<pdfrwt beam="1">  1        2 0.51685113E+00 0.69418966E+04</pdfrwt>
<pdfrwt beam="2">  1       -2 0.55170143E+00 0.69418966E+04</pdfrwt>
<totfact> 0.54458492E-04</totfact>
</mgrwt>
</event>
<event>
 6    1  0.4630212E-004  0.1805344E+04  0.7818608E-02  0.8703463E-01
         -2   -1    0    0    0  501 -0.00000000000E+00  0.00000000000E+00  0.52405583326E+03  0.52405583326E+03  0.00000000000E+00 0. -1.
          2   -1    0    0  501    0  0.00000000000E+00 -0.00000000000E+00 -0.15548280702E+04  0.15548280702E+04  0.00000000000E+00 0.  1.
         23    2    1    2    0    0  0.72640060460E+03 -0.15282353123E+03 -0.11034797435E+04  0.13330291913E+04  0.91029724083E+02 0.  0.
         11    1    3    3    0    0  0.31325890910E+03 -0.11047208830E+03 -0.51179449075E+03  0.61013836725E+03  0.00000000000E+00 0. -1.
        -11    1    3    3    0    0  0.41314169550E+03 -0.42351442932E+02 -0.59168525270E+03  0.72289082408E+03  0.00000000000E+00 0.  1.
         22    1    1    2    0    0 -0.72640060460E+03  0.15282353123E+03  0.72707506546E+02  0.74585471210E+03  0.00000000000E+00 0. -1.
<mgrwt>
<rscale>  0 0.18053440E+04</rscale>
<asrwt>0</asrwt>
<pdfrwt beam="1">  1        2 0.23920432E+00 0.18053440E+04</pdfrwt>
<pdfrwt beam="2">  1       -2 0.80623974E-01 0.18053440E+04</pdfrwt>
<totfact> 0.15152935E+01</totfact>
</mgrwt>
</event>
<event>
 6    1  0.4630212E-004  0.2722453E+04  0.7818608E-02  0.8327756E-01
          2   -1    0    0  501    0  0.00000000000E+00  0.00000000000E+00  0.29470645195E+04  0.29470645195E+04  0.00000000000E+00 0.  1.
         -2   -1    0    0    0  501 -0.00000000000E+00 -0.00000000000E+00 -0.62874008589E+03  0.62874008589E+03  0.00000000000E+00 0. -1.
         23    2    1    2    0    0  0.55595290593E+03  0.10401753496E+04  0.27177935262E+03  0.12137302712E+04  0.90712530432E+02 0.  0.
         13    1    3    3    0    0  0.23915363645E+03  0.40015793203E+03  0.14680337808E+03  0.48874539815E+03  0.00000000000E+00 0. -1.
        -13    1    3    3    0    0  0.31679926948E+03  0.64001741760E+03  0.12497597454E+03  0.72498487307E+03  0.00000000000E+00 0.  1.
         22    1    1    2    0    0 -0.55595290593E+03 -0.10401753496E+04  0.20465450810E+04  0.23620743342E+04  0.00000000000E+00 0.  1.
<mgrwt>
<rscale>  0 0.27224530E+04</rscale>
<asrwt>0</asrwt>
<pdfrwt beam="1">  1        2 0.45339453E+00 0.27224530E+04</pdfrwt>
<pdfrwt beam="2">  1       -2 0.96729246E-01 0.27224530E+04</pdfrwt>
<totfact> 0.14694156E+00</totfact>
</mgrwt>
</event>
<event>
 6    1  0.4630212E-004  0.5871737E+04  0.7818608E-02  0.7706511E-01
         -2   -1    0    0    0  501 -0.00000000000E+00  0.00000000000E+00  0.32072112391E+04  0.32072112391E+04  0.00000000000E+00 0. -1.
          2   -1    0    0  501    0  0.00000000000E+00 -0.00000000000E+00 -0.26874828106E+04  0.26874828106E+04  0.00000000000E+00 0.  1.
         23    2    1    2    0    0  0.17427884739E+03  0.15785925436E+04 -0.22180847695E+04  0.27295797322E+04  0.91531058574E+02 0.  0.
         11    1    3    3    0    0 -0.17643637840E+01  0.24094357365E+03 -0.36551217621E+03  0.43778541504E+03  0.00000000000E+00 0.  1.
        -11    1    3    3    0    0  0.17604321117E+03  0.13376489699E+04 -0.18525725933E+04  0.22917943172E+04  0.00000000000E+00 0. -1.
         22    1    1    2    0    0 -0.17427884739E+03 -0.15785925436E+04  0.27378131981E+04  0.31651143175E+04  0.00000000000E+00 0. -1.
<mgrwt>
<rscale>  0 0.58717374E+04</rscale>
<asrwt>0</asrwt>
<pdfrwt beam="1">  1        2 0.41345889E+00 0.58717374E+04</pdfrwt>
<pdfrwt beam="2">  1       -2 0.49341712E+00 0.58717374E+04</pdfrwt>
<totfact> 0.33636562E-03</totfact>
</mgrwt>
</event>
<event>
 6    1  0.4630212E-004  0.5151732E+04  0.7818608E-02  0.7805518E-01
         -2   -1    0    0    0  501 -0.00000000000E+00  0.00000000000E+00  0.19800895813E+04  0.19800895813E+04  0.00000000000E+00 0.  1.
          2   -1    0    0  501    0  0.00000000000E+00 -0.00000000000E+00 -0.33509012740E+04  0.33509012740E+04  0.00000000000E+00 0. -1.
         23    2    1    2    0    0  0.56595841469E+03 -0.31515074160E+03 -0.32645900720E+04  0.33294850554E+04  0.91068538087E+02 0.  0.
         11    1    3    3    0    0  0.41352548583E+03 -0.27060511063E+03 -0.23828935799E+04  0.24336006793E+04  0.00000000000E+00 0.  1.
        -11    1    3    3    0    0  0.15243292885E+03 -0.44545630978E+02 -0.88169649218E+03  0.89588437611E+03  0.00000000000E+00 0. -1.
         22    1    1    2    0    0 -0.56595841469E+03  0.31515074160E+03  0.18937783793E+04  0.20015057999E+04  0.00000000000E+00 0.  1.
<mgrwt>
<rscale>  0 0.51517316E+04</rscale>
<asrwt>0</asrwt>
<pdfrwt beam="1">  1        2 0.51552327E+00 0.51517316E+04</pdfrwt>
<pdfrwt beam="2">  1       -2 0.30462917E+00 0.51517316E+04</pdfrwt>
<totfact> 0.22017748E-02</totfact>
</mgrwt>
</event>
<event>
 6    1  0.4630212E-004  0.1605204E+04  0.7818608E-02  0.8817357E-01
          2   -1    0    0  501    0  0.00000000000E+00  0.00000000000E+00  0.68723143811E+03  0.68723143811E+03  0.00000000000E+00 0.  1.
         -2   -1    0    0    0  501 -0.00000000000E+00 -0.00000000000E+00 -0.93734110189E+03  0.93734110189E+03  0.00000000000E+00 0. -1.
         23    2    1    2    0    0 -0.51722886964E+03  0.43132840100E+03  0.31354944872E+03  0.74634620915E+03  0.71760114445E+02 0.  0.
         11    1    3    3    0    0 -0.34154931636E+03  0.24189407043E+03  0.18138395555E+03  0.45614560849E+03  0.00000000000E+00 0. -1.
        -11    1    3    3    0    0 -0.17567955328E+03  0.18943433057E+03  0.13216549317E+03  0.29020060066E+03  0.00000000000E+00 0.  1.
         22    1    1    2    0    0  0.51722886964E+03 -0.43132840100E+03 -0.56365911250E+03  0.87822633085E+03  0.00000000000E+00 0. -1.
<mgrwt>
<rscale>  0 0.16052044E+04</rscale>
<asrwt>0</asrwt>
<pdfrwt beam="1">  1        2 0.10572791E+00 0.16052044E+04</pdfrwt>
<pdfrwt beam="2">  1       -2 0.14420632E+00 0.16052044E+04</pdfrwt>
<totfact> 0.13356934E+01</totfact>
</mgrwt>
</event>
<event>
 6    1  0.4630212E-004  0.5055874E+04  0.7818608E-02  0.7819946E-01
          2   -1    0    0  501    0  0.00000000000E+00  0.00000000000E+00  0.28515095486E+04  0.28515095486E+04  0.00000000000E+00 0.  1.
         -2   -1    0    0    0  501 -0.00000000000E+00 -0.00000000000E+00 -0.22410813560E+04  0.22410813560E+04  0.00000000000E+00 0. -1.
         23    2    1    2    0    0 -0.74922633851E+03  0.16509857293E+04  0.20785406227E+04  0.27596854003E+04  0.91860786432E+02 0.  0.
         13    1    3    3    0    0 -0.67157046609E+03  0.15372014259E+04  0.19128264918E+04  0.25441895178E+04  0.00000000000E+00 0. -1.
        -13    1    3    3    0    0 -0.77655872427E+02  0.11378430332E+03  0.16571413086E+03  0.21549588249E+03  0.00000000000E+00 0.  1.
         22    1    1    2    0    0  0.74922633851E+03 -0.16509857293E+04 -0.14681124301E+04  0.23329055043E+04  0.00000000000E+00 0. -1.
<mgrwt>
<rscale>  0 0.50558738E+04</rscale>
<asrwt>0</asrwt>
<pdfrwt beam="1">  1        2 0.43869377E+00 0.50558738E+04</pdfrwt>
<pdfrwt beam="2">  1       -2 0.34478175E+00 0.50558738E+04</pdfrwt>
<totfact> 0.26163519E-02</totfact>
</mgrwt>
</event>
<event>
 6    1  0.4630212E-004  0.4899380E+04  0.7818608E-02  0.7844219E-01
          2   -1    0    0  501    0  0.00000000000E+00  0.00000000000E+00  0.28012223625E+04  0.28012223625E+04  0.00000000000E+00 0.  1.
         -2   -1    0    0    0  501 -0.00000000000E+00 -0.00000000000E+00 -0.21422726371E+04  0.21422726371E+04  0.00000000000E+00 0. -1.
         23    2    1    2    0    0  0.10983292540E+04 -0.11254884934E+03 -0.18759455331E+04  0.21785920420E+04  0.89984713261E+02 0.  0.
         13    1    3    3    0    0  0.20395517081E+03 -0.50075182378E+02 -0.39664385188E+03  0.44881129757E+03  0.00000000000E+00 0.  1.
        -13    1    3    3    0    0  0.89437408315E+03 -0.62473666965E+02 -0.14793016813E+04  0.17297807444E+04  0.00000000000E+00 0. -1.
         22    1    1    2    0    0 -0.10983292540E+04  0.11254884934E+03  0.25348952585E+04  0.27649029576E+04  0.00000000000E+00 0.  1.
<mgrwt>
<rscale>  0 0.48993804E+04</rscale>
<asrwt>0</asrwt>
<pdfrwt beam="1">  1        2 0.43095729E+00 0.48993804E+04</pdfrwt>
<pdfrwt beam="2">  1       -2 0.32958041E+00 0.48993804E+04</pdfrwt>
<totfact> 0.35372581E-02</totfact>
</mgrwt>
</event>
<event>
 6    1  0.4630212E-004  0.1291459E+04  0.7818608E-02  0.9036366E-01
          2   -1    0    0  501    0  0.00000000000E+00  0.00000000000E+00  0.10619350421E+04  0.10619350421E+04  0.00000000000E+00 0.  1.
         -2   -1    0    0    0  501 -0.00000000000E+00 -0.00000000000E+00 -0.39264801610E+03  0.39264801610E+03  0.00000000000E+00 0. -1.
         23    2    1    2    0    0 -0.47093703345E+03  0.63630410816E+01  0.82867565012E+03  0.95736387991E+03  0.89554942315E+02 0.  0.
         13    1    3    3    0    0 -0.23815474051E+03  0.13908329303E+02  0.33231933134E+03  0.40908099446E+03  0.00000000000E+00 0. -1.
        -13    1    3    3    0    0 -0.23278229294E+03 -0.75452882210E+01  0.49635631878E+03  0.54828288545E+03  0.00000000000E+00 0.  1.
         22    1    1    2    0    0  0.47093703345E+03 -0.63630410816E+01 -0.15938862412E+03  0.49721917829E+03  0.00000000000E+00 0. -1.
<mgrwt>
<rscale>  0 0.12914592E+04</rscale>
<asrwt>0</asrwt>
<pdfrwt beam="1">  1        2 0.16337462E+00 0.12914592E+04</pdfrwt>
<pdfrwt beam="2">  1       -2 0.60407387E-01 0.12914592E+04</pdfrwt>
<totfact> 0.57613911E+01</totfact>
</mgrwt>
</event>
<event>
 6    1  0.4630212E-004  0.1990928E+04  0.7818608E-02  0.8610874E-01
          2   -1    0    0  501    0  0.00000000000E+00  0.00000000000E+00  0.18774753708E+04  0.18774753708E+04  0.00000000000E+00 0.  1.
         -2   -1    0    0    0  501 -0.00000000000E+00 -0.00000000000E+00 -0.52780921006E+03  0.52780921006E+03  0.00000000000E+00 0. -1.
         23    2    1    2    0    0 -0.61066782102E+03 -0.55562263513E+03  0.89805906935E+01  0.83077846845E+03  0.92089697161E+02 0.  0.
         11    1    3    3    0    0 -0.46204922906E+03 -0.36553308429E+03  0.16220480923E+02  0.58937851148E+03  0.00000000000E+00 0.  1.
        -11    1    3    3    0    0 -0.14861859196E+03 -0.19008955084E+03 -0.72398902294E+01  0.24139995697E+03  0.00000000000E+00 0. -1.
         22    1    1    2    0    0  0.61066782102E+03  0.55562263513E+03  0.13406855700E+04  0.15745061124E+04  0.00000000000E+00 0.  1.
<mgrwt>
<rscale>  0 0.19909282E+04</rscale>
<asrwt>0</asrwt>
<pdfrwt beam="1">  1        2 0.28884236E+00 0.19909282E+04</pdfrwt>
<pdfrwt beam="2">  1       -2 0.81201418E-01 0.19909282E+04</pdfrwt>
<totfact> 0.97112713E+00</totfact>
</mgrwt>
</event>
<event>
 6    1  0.4630212E-004  0.8843271E+03  0.7818608E-02  0.9445388E-01
         -1   -1    0    0    0  501 -0.00000000000E+00  0.00000000000E+00  0.27472480086E+03  0.27472480086E+03  0.00000000000E+00 0. -1.
          1   -1    0    0  501    0  0.00000000000E+00 -0.00000000000E+00 -0.71165247790E+03  0.71165247790E+03  0.00000000000E+00 0.  1.
         23    2    1    2    0    0  0.20118175504E+03  0.38159215811E+03 -0.30274516632E+03  0.53461227362E+03  0.89827466197E+02 0.  0.
         11    1    3    3    0    0  0.54162178716E+02  0.47025835620E+02 -0.26346506915E+02  0.76414064449E+02  0.00000000000E+00 0.  1.
        -11    1    3    3    0    0  0.14701957633E+03  0.33456632249E+03 -0.27639865941E+03  0.45819820917E+03  0.00000000000E+00 0. -1.
         22    1    1    2    0    0 -0.20118175504E+03 -0.38159215811E+03 -0.13418251072E+03  0.45176500515E+03  0.00000000000E+00 0. -1.
<mgrwt>
<rscale>  0 0.88432706E+03</rscale>
<asrwt>0</asrwt>
<pdfrwt beam="1">  1        1 0.10948500E+00 0.88432706E+03</pdfrwt>
<pdfrwt beam="2">  1       -1 0.42265354E-01 0.88432706E+03</pdfrwt>
<totfact> 0.14731376E+02</totfact>
</mgrwt>
</event>
<event>
 6    1  0.4630212E-004  0.5844306E+04  0.7818608E-02  0.7710011E-01
          2   -1    0    0  501    0  0.00000000000E+00  0.00000000000E+00  0.34322055002E+04  0.34322055002E+04  0.00000000000E+00 0.  1.
         -2   -1    0    0    0  501 -0.00000000000E+00 -0.00000000000E+00 -0.24878986602E+04  0.24878986602E+04  0.00000000000E+00 0. -1.
         23    2    1    2    0    0 -0.24686811174E+04  0.51024749729E+03 -0.10233596191E+04  0.27222220078E+04  0.92134586827E+02 0.  0.
         13    1    3    3    0    0 -0.15330808221E+04  0.27115988993E+03 -0.63020834379E+03  0.16795913341E+04  0.00000000000E+00 0. -1.
        -13    1    3    3    0    0 -0.93560029531E+03  0.23908760735E+03 -0.39315127532E+03  0.10426306738E+04  0.00000000000E+00 0.  1.
         22    1    1    2    0    0  0.24686811174E+04 -0.51024749729E+03  0.19676664591E+04  0.31978821526E+04  0.00000000000E+00 0.  1.
<mgrwt>
<rscale>  0 0.58443064E+04</rscale>
<asrwt>0</asrwt>
<pdfrwt beam="1">  1        2 0.52803161E+00 0.58443064E+04</pdfrwt>
<pdfrwt beam="2">  1       -2 0.38275364E+00 0.58443064E+04</pdfrwt>
<totfact> 0.59254284E-03</totfact>
</mgrwt>
</event>
<event>
 6    1  0.4630212E-004  0.3888844E+04  0.7818608E-02  0.8027353E-01
         -2   -1    0    0    0  501 -0.00000000000E+00  0.00000000000E+00  0.24427586917E+04  0.24427586917E+04  0.00000000000E+00 0. -1.
          2   -1    0    0  501    0  0.00000000000E+00 -0.00000000000E+00 -0.15477489492E+04  0.15477489492E+04  0.00000000000E+00 0.  1.
         23    2    1    2    0    0 -0.16572142717E+04 -0.47815798312E+03  0.13665242239E+04  0.22024024691E+04  0.90520617692E+02 0.  0.
         11    1    3    3    0    0 -0.13848974661E+04 -0.42368060435E+03  0.11155365406E+04  0.18280776842E+04  0.00000000000E+00 0.  1.
        -11    1    3    3    0    0 -0.27231680567E+03 -0.54477378764E+02  0.25098768328E+03  0.37432478492E+03  0.00000000000E+00 0. -1.
         22    1    1    2    0    0  0.16572142717E+04  0.47815798312E+03 -0.47151448148E+03  0.17881051718E+04  0.00000000000E+00 0.  1.
<mgrwt>
<rscale>  0 0.38888441E+04</rscale>
<asrwt>0</asrwt>
<pdfrwt beam="1">  1        2 0.23811522E+00 0.38888441E+04</pdfrwt>
<pdfrwt beam="2">  1       -2 0.37580903E+00 0.38888441E+04</pdfrwt>
<totfact> 0.10113836E-01</totfact>
</mgrwt>
</event>
<event>
 6    1  0.4630212E-004  0.1683625E+04  0.7818608E-02  0.8770759E-01
          1   -1    0    0  501    0  0.00000000000E+00  0.00000000000E+00  0.38753407273E+03  0.38753407273E+03  0.00000000000E+00 0. -1.
         -1   -1    0    0    0  501 -0.00000000000E+00 -0.00000000000E+00 -0.18286089476E+04  0.18286089476E+04  0.00000000000E+00 0.  1.
         23    2    1    2    0    0 -0.20201888219E+03  0.25044648232E+03  0.29776943740E+03  0.44777806604E+03  0.91123483890E+02 0.  0.
         11    1    3    3    0    0 -0.17007393341E+03  0.15926651419E+03  0.17420646602E+03  0.29092758234E+03  0.00000000000E+00 0. -1.
        -11    1    3    3    0    0 -0.31944948781E+02  0.91179968134E+02  0.12356297138E+03  0.15685048370E+03  0.00000000000E+00 0.  1.
         22    1    1    2    0    0  0.20201888219E+03 -0.25044648232E+03 -0.17388443122E+04  0.17683649543E+04  0.00000000000E+00 0.  1.
<mgrwt>
<rscale>  0 0.16836250E+04</rscale>
<asrwt>0</asrwt>
<pdfrwt beam="1">  1        1 0.59620626E-01 0.16836250E+04</pdfrwt>
<pdfrwt beam="2">  1       -1 0.28132445E+00 0.16836250E+04</pdfrwt>
<totfact> 0.26049320E+00</totfact>
</mgrwt>
</event>
<event>
 6    1  0.4630212E-004  0.1397444E+04  0.7818608E-02  0.8955671E-01
         -2   -1    0    0    0  501 -0.00000000000E+00  0.00000000000E+00  0.37126359388E+03  0.37126359388E+03  0.00000000000E+00 0. -1.
          2   -1    0    0  501    0  0.00000000000E+00 -0.00000000000E+00 -0.13150015081E+04  0.13150015081E+04  0.00000000000E+00 0.  1.
         23    2    1    2    0    0 -0.15491173783E+03 -0.63371769936E+03 -0.18255591640E+03  0.68377131008E+03  0.92848117255E+02 0.  0.
         11    1    3    3    0    0 -0.13442164047E+03 -0.35721862167E+03 -0.10306008597E+03  0.39534251279E+03  0.00000000000E+00 0. -1.
        -11    1    3    3    0    0 -0.20490097351E+02 -0.27649907769E+03 -0.79495830425E+02  0.28842879730E+03  0.00000000000E+00 0.  1.
         22    1    1    2    0    0  0.15491173783E+03  0.63371769936E+03 -0.76118199785E+03  0.10024937919E+04  0.00000000000E+00 0.  1.
<mgrwt>
<rscale>  0 0.13974436E+04</rscale>
<asrwt>0</asrwt>
<pdfrwt beam="1">  1        2 0.20230793E+00 0.13974436E+04</pdfrwt>
<pdfrwt beam="2">  1       -2 0.57117475E-01 0.13974436E+04</pdfrwt>
<totfact> 0.45308706E+01</totfact>
</mgrwt>
</event>
<event>
 6    1  0.4630212E-004  0.5070435E+04  0.7818608E-02  0.7817733E-01
          2   -1    0    0  501    0  0.00000000000E+00  0.00000000000E+00  0.41531488380E+04  0.41531488380E+04  0.00000000000E+00 0.  1.
         -2   -1    0    0    0  501 -0.00000000000E+00 -0.00000000000E+00 -0.15475792670E+04  0.15475792670E+04  0.00000000000E+00 0. -1.
         23    2    1    2    0    0  0.86077205279E+03 -0.21328885269E+04  0.24999539663E+04  0.33982736210E+04  0.91388046030E+02 0.  0.
         11    1    3    3    0    0  0.50682644810E+03 -0.13723946727E+04  0.15805677701E+04  0.21537257629E+04  0.00000000000E+00 0. -1.
        -11    1    3    3    0    0  0.35394560469E+03 -0.76049385420E+03  0.91938619624E+03  0.12445478581E+04  0.00000000000E+00 0.  1.
         22    1    1    2    0    0 -0.86077205279E+03  0.21328885269E+04  0.10561560475E+03  0.23024544840E+04  0.00000000000E+00 0. -1.
<mgrwt>
<rscale>  0 0.50704347E+04</rscale>
<asrwt>0</asrwt>
<pdfrwt beam="1">  1        2 0.63894597E+00 0.50704347E+04</pdfrwt>
<pdfrwt beam="2">  1       -2 0.23808912E+00 0.50704347E+04</pdfrwt>
<totfact> 0.13978933E-02</totfact>
</mgrwt>
</event>
<event>
 6    1  0.4630212E-004  0.3649179E+04  0.7818608E-02  0.8079319E-01
         -2   -1    0    0    0  501 -0.00000000000E+00  0.00000000000E+00  0.87610039918E+03  0.87610039918E+03  0.00000000000E+00 0. -1.
          2   -1    0    0  501    0  0.00000000000E+00 -0.00000000000E+00 -0.37999376455E+04  0.37999376455E+04  0.00000000000E+00 0.  1.
         23    2    1    2    0    0 -0.16617462453E+04  0.70435903748E+03 -0.17962005026E+04  0.25478729046E+04  0.88305464512E+02 0.  0.
         13    1    3    3    0    0 -0.69446108355E+03  0.26319094683E+03 -0.78493180168E+03  0.10805848437E+04  0.00000000000E+00 0.  1.
        -13    1    3    3    0    0 -0.96728516179E+03  0.44116809065E+03 -0.10112687009E+04  0.14672880610E+04  0.00000000000E+00 0. -1.
         22    1    1    2    0    0  0.16617462453E+04 -0.70435903748E+03 -0.11276367438E+04  0.21281651401E+04  0.00000000000E+00 0. -1.
<mgrwt>
<rscale>  0 0.36491790E+04</rscale>
<asrwt>0</asrwt>
<pdfrwt beam="1">  1        2 0.58460578E+00 0.36491790E+04</pdfrwt>
<pdfrwt beam="2">  1       -2 0.13478468E+00 0.36491790E+04</pdfrwt>
<totfact> 0.15755599E-01</totfact>
</mgrwt>
</event>
<event>
 6    1  0.4630212E-004  0.2929930E+04  0.7818608E-02  0.8264028E-01
         -2   -1    0    0    0  501 -0.00000000000E+00  0.00000000000E+00  0.64095311269E+03  0.64095311269E+03  0.00000000000E+00 0. -1.
          2   -1    0    0  501    0  0.00000000000E+00 -0.00000000000E+00 -0.33483296842E+04  0.33483296842E+04  0.00000000000E+00 0.  1.
         23    2    1    2    0    0 -0.68243374490E+03  0.12808052207E+04 -0.16128578041E+04  0.21715509239E+04  0.90251256500E+02 0.  0.
         13    1    3    3    0    0 -0.26390161810E+03  0.56695051579E+03 -0.65057957570E+03  0.90240275693E+03  0.00000000000E+00 0.  1.
        -13    1    3    3    0    0 -0.41853212679E+03  0.71385470496E+03 -0.96227822842E+03  0.12691481670E+04  0.00000000000E+00 0. -1.
         22    1    1    2    0    0  0.68243374490E+03 -0.12808052207E+04 -0.10945187673E+04  0.18177318729E+04  0.00000000000E+00 0.  1.
<mgrwt>
<rscale>  0 0.29299299E+04</rscale>
<asrwt>0</asrwt>
<pdfrwt beam="1">  1        2 0.51512765E+00 0.29299299E+04</pdfrwt>
<pdfrwt beam="2">  1       -2 0.98608171E-01 0.29299299E+04</pdfrwt>
<totfact> 0.75939425E-01</totfact>
</mgrwt>
</event>
<event>
 6    1  0.4630212E-004  0.1593497E+04  0.7818608E-02  0.8824553E-01
         -2   -1    0    0    0  501 -0.00000000000E+00  0.00000000000E+00  0.39316394092E+03  0.39316394092E+03  0.00000000000E+00 0. -1.
          2   -1    0    0  501    0  0.00000000000E+00 -0.00000000000E+00 -0.16146145494E+04  0.16146145494E+04  0.00000000000E+00 0.  1.
         23    2    1    2    0    0 -0.29195681376E+03 -0.15661049820E+03 -0.15220955315E+04  0.15603938695E+04  0.91041702444E+02 0.  0.
         11    1    3    3    0    0 -0.14904866083E+03 -0.35440827415E+02 -0.58329637616E+03  0.60308060654E+03  0.00000000000E+00 0. -1.
        -11    1    3    3    0    0 -0.14290815293E+03 -0.12116967079E+03 -0.93879915534E+03  0.95731326291E+03  0.00000000000E+00 0.  1.
         22    1    1    2    0    0  0.29195681376E+03  0.15661049820E+03  0.30064492302E+03  0.44738462086E+03  0.00000000000E+00 0. -1.
<mgrwt>
<rscale>  0 0.15934971E+04</rscale>
<asrwt>0</asrwt>
<pdfrwt beam="1">  1        2 0.24840224E+00 0.15934971E+04</pdfrwt>
<pdfrwt beam="2">  1       -2 0.60486760E-01 0.15934971E+04</pdfrwt>
<totfact> 0.26728330E+01</totfact>
</mgrwt>
</event>
<event>
 6    1  0.4630212E-004  0.3914810E+04  0.7818608E-02  0.8021956E-01
          2   -1    0    0  501    0  0.00000000000E+00  0.00000000000E+00  0.20980576733E+04  0.20980576733E+04  0.00000000000E+00 0.  1.
         -2   -1    0    0    0  501 -0.00000000000E+00 -0.00000000000E+00 -0.18261819060E+04  0.18261819060E+04  0.00000000000E+00 0. -1.
         23    2    1    2    0    0  0.11776309199E+04  0.35372866966E+03 -0.13892423011E+04  0.18575388772E+04  0.92292762061E+02 0.  0.
         13    1    3    3    0    0  0.53481879394E+03  0.11998451533E+03 -0.58163709969E+03  0.79920531906E+03  0.00000000000E+00 0.  1.
        -13    1    3    3    0    0  0.64281212593E+03  0.23374415434E+03 -0.80760520140E+03  0.10583335581E+04  0.00000000000E+00 0. -1.
         22    1    1    2    0    0 -0.11776309199E+04 -0.35372866966E+03  0.16611180683E+04  0.20667007021E+04  0.00000000000E+00 0.  1.
<mgrwt>
<rscale>  0 0.39148103E+04</rscale>
<asrwt>0</asrwt>
<pdfrwt beam="1">  1        2 0.32277810E+00 0.39148103E+04</pdfrwt>
<pdfrwt beam="2">  1       -2 0.28095106E+00 0.39148103E+04</pdfrwt>
<totfact> 0.19444209E-01</totfact>
</mgrwt>
</event>
<event>
 6    1  0.4630212E-004  0.3190358E+04  0.7818608E-02  0.8191368E-01
          3   -1    0    0  501    0  0.00000000000E+00  0.00000000000E+00  0.13634542664E+04  0.13634542664E+04  0.00000000000E+00 0.  1.
         -3   -1    0    0    0  501 -0.00000000000E+00 -0.00000000000E+00 -0.18662863082E+04  0.18662863082E+04  0.00000000000E+00 0. -1.
         23    2    1    2    0    0  0.10030502983E+04 -0.67705781898E+03  0.79830880327E+03  0.14528093182E+04  0.94025415260E+02 0.  0.
         11    1    3    3    0    0  0.28260760549E+03 -0.21510451488E+03  0.18969289698E+03  0.40264178393E+03  0.00000000000E+00 0. -1.
        -11    1    3    3    0    0  0.72044269277E+03 -0.46195330410E+03  0.60861590628E+03  0.10501675343E+04  0.00000000000E+00 0.  1.
         22    1    1    2    0    0 -0.10030502983E+04  0.67705781898E+03 -0.13011408451E+04  0.17769312563E+04  0.00000000000E+00 0. -1.
<mgrwt>
<rscale>  0 0.31903580E+04</rscale>
<asrwt>0</asrwt>
<pdfrwt beam="1">  1        3 0.20976219E+00 0.31903580E+04</pdfrwt>
<pdfrwt beam="2">  1       -3 0.28712097E+00 0.31903580E+04</pdfrwt>
<totfact> 0.12542743E-02</totfact>
</mgrwt>
</event>
<event>
 6    1  0.8113166E-004  0.4032878E+04  0.7818608E-02  0.7997947E-01
         -2   -1    0    0    0  501 -0.00000000000E+00  0.00000000000E+00  0.12651836031E+04  0.12651836031E+04  0.00000000000E+00 0. -1.
          2   -1    0    0  501    0  0.00000000000E+00 -0.00000000000E+00 -0.32137828836E+04  0.32137828836E+04  0.00000000000E+00 0.  1.
         23    2    1    2    0    0 -0.11014267811E+04 -0.82816638607E+03  0.65838693612E+03  0.15301739116E+04  0.94648428963E+02 0.  0.
         13    1    3    3    0    0 -0.83484917738E+03 -0.65807033893E+03  0.54186553046E+03  0.11931672025E+04  0.00000000000E+00 0. -1.
        -13    1    3    3    0    0 -0.26657760369E+03 -0.17009604714E+03  0.11652140566E+03  0.33700670916E+03  0.00000000000E+00 0.  1.
         22    1    1    2    0    0  0.11014267811E+04  0.82816638607E+03 -0.26069862167E+04  0.29487925751E+04  0.00000000000E+00 0.  1.
<mgrwt>
<rscale>  0 0.40328776E+04</rscale>
<asrwt>0</asrwt>
<pdfrwt beam="1">  1        2 0.49442813E+00 0.40328776E+04</pdfrwt>
<pdfrwt beam="2">  1       -2 0.19464363E+00 0.40328776E+04</pdfrwt>
<totfact> 0.14405646E-01</totfact>
</mgrwt>
</event>
<event>
 6    1  0.4630212E-004  0.4234869E+04  0.7818608E-02  0.7958772E-01
         -2   -1    0    0    0  501 -0.00000000000E+00  0.00000000000E+00  0.21874376186E+04  0.21874376186E+04  0.00000000000E+00 0. -1.
          2   -1    0    0  501    0  0.00000000000E+00 -0.00000000000E+00 -0.20496713259E+04  0.20496713259E+04  0.00000000000E+00 0.  1.
         23    2    1    2    0    0 -0.12788298051E+04  0.55142027877E+03  0.16634838700E+04  0.21713683703E+04  0.90509775735E+02 0.  0.
         13    1    3    3    0    0 -0.34574009320E+03  0.15629822940E+03  0.39286508511E+03  0.54617609217E+03  0.00000000000E+00 0.  1.
        -13    1    3    3    0    0 -0.93308971190E+03  0.39512204937E+03  0.12706187849E+04  0.16251922781E+04  0.00000000000E+00 0. -1.
         22    1    1    2    0    0  0.12788298051E+04 -0.55142027877E+03 -0.15257175773E+04  0.20657405742E+04  0.00000000000E+00 0.  1.
<mgrwt>
<rscale>  0 0.42348687E+04</rscale>
<asrwt>0</asrwt>
<pdfrwt beam="1">  1        2 0.31533405E+00 0.42348687E+04</pdfrwt>
<pdfrwt beam="2">  1       -2 0.33652887E+00 0.42348687E+04</pdfrwt>
<totfact> 0.91717437E-02</totfact>
</mgrwt>
</event>
<event>
 6    1  0.4630212E-004  0.2504719E+04  0.7818608E-02  0.8401306E-01
          1   -1    0    0  501    0  0.00000000000E+00  0.00000000000E+00  0.15255428554E+04  0.15255428554E+04  0.00000000000E+00 0.  1.
         -1   -1    0    0    0  501 -0.00000000000E+00 -0.00000000000E+00 -0.10280957391E+04  0.10280957391E+04  0.00000000000E+00 0. -1.
         23    2    1    2    0    0  0.80744486846E+03  0.55478203255E+02  0.12212229082E+04  0.14678686172E+04  0.90597125514E+02 0.  0.
         11    1    3    3    0    0  0.16504597688E+02 -0.11506417477E+02  0.39047518257E+02  0.43926166121E+02  0.00000000000E+00 0. -1.
        -11    1    3    3    0    0  0.79094027077E+03  0.66984620732E+02  0.11821753900E+04  0.14239424511E+04  0.00000000000E+00 0.  1.
         22    1    1    2    0    0 -0.80744486846E+03 -0.55478203255E+02 -0.72377579198E+03  0.10857699773E+04  0.00000000000E+00 0. -1.
<mgrwt>
<rscale>  0 0.25047188E+04</rscale>
<asrwt>0</asrwt>
<pdfrwt beam="1">  1        1 0.23469890E+00 0.25047188E+04</pdfrwt>
<pdfrwt beam="2">  1       -1 0.15816858E+00 0.25047188E+04</pdfrwt>
<totfact> 0.16830984E+00</totfact>
</mgrwt>
</event>
<event>
 6    1  0.4630212E-004  0.3082742E+04  0.7818608E-02  0.8220490E-01
         -2   -1    0    0    0  501 -0.00000000000E+00  0.00000000000E+00  0.24413600892E+04  0.24413600892E+04  0.00000000000E+00 0. -1.
          2   -1    0    0  501    0  0.00000000000E+00 -0.00000000000E+00 -0.97315638733E+03  0.97315638733E+03  0.00000000000E+00 0.  1.
         23    2    1    2    0    0  0.52683809238E+03  0.85956235423E+03  0.20241508063E+04  0.22632202508E+04  0.92593739835E+02 0.  0.
         13    1    3    3    0    0  0.16432162893E+03  0.23523388282E+03  0.66392108405E+03  0.72327573111E+03  0.00000000000E+00 0.  1.
        -13    1    3    3    0    0  0.36251646345E+03  0.62432847141E+03  0.13602297222E+04  0.15399445197E+04  0.00000000000E+00 0. -1.
         22    1    1    2    0    0 -0.52683809238E+03 -0.85956235423E+03 -0.55594710444E+03  0.11512962257E+04  0.00000000000E+00 0.  1.
<mgrwt>
<rscale>  0 0.30827424E+04</rscale>
<asrwt>0</asrwt>
<pdfrwt beam="1">  1        2 0.14971637E+00 0.30827424E+04</pdfrwt>
<pdfrwt beam="2">  1       -2 0.37559386E+00 0.30827424E+04</pdfrwt>
<totfact> 0.23813001E-01</totfact>
</mgrwt>
</event>
<event>
 6    1  0.4630212E-004  0.5599246E+04  0.7818608E-02  0.7742179E-01
          2   -1    0    0  501    0  0.00000000000E+00  0.00000000000E+00  0.27892015621E+04  0.27892015621E+04  0.00000000000E+00 0.  1.
         -2   -1    0    0    0  501 -0.00000000000E+00 -0.00000000000E+00 -0.28100835654E+04  0.28100835654E+04  0.00000000000E+00 0. -1.
         23    2    1    2    0    0  0.24859733236E+04  0.10435127714E+04 -0.76137170586E+03  0.28033403374E+04  0.10023923072E+03 0.  0.
         13    1    3    3    0    0  0.17544465975E+04  0.71481382702E+03 -0.57761946930E+03  0.19805771689E+04  0.00000000000E+00 0. -1.
        -13    1    3    3    0    0  0.73152672612E+03  0.32869894434E+03 -0.18375223656E+03  0.82276316852E+03  0.00000000000E+00 0.  1.
         22    1    1    2    0    0 -0.24859733236E+04 -0.10435127714E+04  0.74048970253E+03  0.27959447901E+04  0.00000000000E+00 0.  1.
<mgrwt>
<rscale>  0 0.55992462E+04</rscale>
<asrwt>0</asrwt>
<pdfrwt beam="1">  1        2 0.42910794E+00 0.55992462E+04</pdfrwt>
<pdfrwt beam="2">  1       -2 0.43232054E+00 0.55992462E+04</pdfrwt>
<totfact> 0.74270383E-03</totfact>
</mgrwt>
</event>
<event>
 6    1  0.4630212E-004  0.3595709E+04  0.7818608E-02  0.8091475E-01
         -2   -1    0    0    0  501 -0.00000000000E+00  0.00000000000E+00  0.17628709493E+04  0.17628709493E+04  0.00000000000E+00 0. -1.
          2   -1    0    0  501    0  0.00000000000E+00 -0.00000000000E+00 -0.18335318747E+04  0.18335318747E+04  0.00000000000E+00 0.  1.
         23    2    1    2    0    0  0.60071703159E+03  0.80455922342E+03 -0.15256238018E+04  0.18286094346E+04  0.90044343211E+02 0.  0.
         11    1    3    3    0    0  0.34703226545E+03  0.48827783917E+03 -0.83278534132E+03  0.10258547978E+04  0.00000000000E+00 0. -1.
        -11    1    3    3    0    0  0.25368476613E+03  0.31628138425E+03 -0.69283846046E+03  0.80275463678E+03  0.00000000000E+00 0.  1.
         22    1    1    2    0    0 -0.60071703159E+03 -0.80455922342E+03  0.14549628764E+04  0.17677933894E+04  0.00000000000E+00 0. -1.
<mgrwt>
<rscale>  0 0.35957086E+04</rscale>
<asrwt>0</asrwt>
<pdfrwt beam="1">  1        2 0.28208183E+00 0.35957086E+04</pdfrwt>
<pdfrwt beam="2">  1       -2 0.27121092E+00 0.35957086E+04</pdfrwt>
<totfact> 0.32116284E-01</totfact>
</mgrwt>
</event>
<event>
 6    1  0.4630212E-004  0.3131935E+04  0.7818608E-02  0.8207028E-01
          2   -1    0    0  501    0  0.00000000000E+00  0.00000000000E+00  0.15693284149E+04  0.15693284149E+04  0.00000000000E+00 0.  1.
         -2   -1    0    0    0  501 -0.00000000000E+00 -0.00000000000E+00 -0.15626142714E+04  0.15626142714E+04  0.00000000000E+00 0. -1.
         23    2    1    2    0    0 -0.79887674599E+02  0.72825664748E+03 -0.13792533849E+04  0.15642546514E+04  0.88390777007E+02 0.  0.
         11    1    3    3    0    0 -0.24354636400E+02  0.47818263278E+03 -0.83001733952E+03  0.95821738792E+03  0.00000000000E+00 0. -1.
        -11    1    3    3    0    0 -0.55533038200E+02  0.25007401470E+03 -0.54923604541E+03  0.60603726349E+03  0.00000000000E+00 0.  1.
         22    1    1    2    0    0  0.79887674599E+02 -0.72825664748E+03  0.13859675284E+04  0.15676880349E+04  0.00000000000E+00 0.  1.
<mgrwt>
<rscale>  0 0.31319355E+04</rscale>
<asrwt>0</asrwt>
<pdfrwt beam="1">  1        2 0.24143514E+00 0.31319355E+04</pdfrwt>
<pdfrwt beam="2">  1       -2 0.24040220E+00 0.31319355E+04</pdfrwt>
<totfact> 0.72364345E-01</totfact>
</mgrwt>
</event>
<event>
 6    1  0.4630212E-004  0.9015882E+03  0.7818608E-02  0.9423598E-01
          2   -1    0    0  501    0  0.00000000000E+00  0.00000000000E+00  0.13205034436E+04  0.13205034436E+04  0.00000000000E+00 0.  1.
         -2   -1    0    0    0  501 -0.00000000000E+00 -0.00000000000E+00 -0.15389231903E+03  0.15389231903E+03  0.00000000000E+00 0. -1.
         23    2    1    2    0    0 -0.18855710650E+03 -0.30447381931E+03  0.10236138100E+04  0.10887711770E+04  0.96847069164E+02 0.  0.
         11    1    3    3    0    0 -0.10626127084E+03 -0.14761546604E+03  0.65533208558E+03  0.68010434926E+03  0.00000000000E+00 0. -1.
        -11    1    3    3    0    0 -0.82295835655E+02 -0.15685835327E+03  0.36828172438E+03  0.40866682771E+03  0.00000000000E+00 0.  1.
         22    1    1    2    0    0  0.18855710650E+03  0.30447381931E+03  0.14299731456E+03  0.38562458561E+03  0.00000000000E+00 0. -1.
<mgrwt>
<rscale>  0 0.90158824E+03</rscale>
<asrwt>0</asrwt>
<pdfrwt beam="1">  1        2 0.20315437E+00 0.90158824E+03</pdfrwt>
<pdfrwt beam="2">  1       -2 0.23675742E-01 0.90158824E+03</pdfrwt>
<totfact> 0.25494422E+02</totfact>
</mgrwt>
</event>
<event>
 6    1  0.4630212E-004  0.1600586E+04  0.7818608E-02  0.8820188E-01
         -2   -1    0    0    0  501 -0.00000000000E+00  0.00000000000E+00  0.34979891669E+03  0.34979891669E+03  0.00000000000E+00 0. -1.
          2   -1    0    0  501    0  0.00000000000E+00 -0.00000000000E+00 -0.18309628821E+04  0.18309628821E+04  0.00000000000E+00 0.  1.
         23    2    1    2    0    0  0.35472791686E+03 -0.20954296041E+03 -0.16736786462E+04  0.17260068653E+04  0.90329071355E+02 0.  0.
         13    1    3    3    0    0  0.15038568920E+03 -0.52573603407E+02 -0.51767820162E+03  0.54163692611E+03  0.00000000000E+00 0.  1.
        -13    1    3    3    0    0  0.20434222766E+03 -0.15696935701E+03 -0.11560004446E+04  0.11843699392E+04  0.00000000000E+00 0. -1.
         22    1    1    2    0    0 -0.35472791686E+03  0.20954296041E+03  0.19251468075E+03  0.45475493352E+03  0.00000000000E+00 0. -1.
<mgrwt>
<rscale>  0 0.16005859E+04</rscale>
<asrwt>0</asrwt>
<pdfrwt beam="1">  1        2 0.28168659E+00 0.16005859E+04</pdfrwt>
<pdfrwt beam="2">  1       -2 0.53815219E-01 0.16005859E+04</pdfrwt>
<totfact> 0.25868938E+01</totfact>
</mgrwt>
</event>
<event>
 6    1  0.4630212E-004  0.2420759E+04  0.7818608E-02  0.8431772E-01
         -2   -1    0    0    0  501 -0.00000000000E+00  0.00000000000E+00  0.10228091333E+04  0.10228091333E+04  0.00000000000E+00 0. -1.
          2   -1    0    0  501    0  0.00000000000E+00 -0.00000000000E+00 -0.14323480258E+04  0.14323480258E+04  0.00000000000E+00 0.  1.
         23    2    1    2    0    0  0.10739740279E+04  0.45933084705E+03 -0.52009375803E+03  0.12818594910E+04  0.90891131737E+02 0.  0.
         11    1    3    3    0    0  0.42284463290E+03  0.22291535394E+03 -0.23687966957E+03  0.53347991195E+03  0.00000000000E+00 0.  1.
        -11    1    3    3    0    0  0.65112939504E+03  0.23641549311E+03 -0.28321408845E+03  0.74837957907E+03  0.00000000000E+00 0. -1.
         22    1    1    2    0    0 -0.10739740279E+04 -0.45933084705E+03  0.11055486555E+03  0.11732976681E+04  0.00000000000E+00 0.  1.
<mgrwt>
<rscale>  0 0.24207591E+04</rscale>
<asrwt>0</asrwt>
<pdfrwt beam="1">  1        2 0.22036123E+00 0.24207591E+04</pdfrwt>
<pdfrwt beam="2">  1       -2 0.15735525E+00 0.24207591E+04</pdfrwt>
<totfact> 0.32815708E+00</totfact>
</mgrwt>
</event>
<event>
 6    1  0.4630212E-004  0.1085445E+04  0.7818608E-02  0.9219496E-01
          2   -1    0    0  501    0  0.00000000000E+00  0.00000000000E+00  0.21803497797E+04  0.21803497797E+04  0.00000000000E+00 0.  1.
         -2   -1    0    0    0  501 -0.00000000000E+00 -0.00000000000E+00 -0.13509189098E+03  0.13509189098E+03  0.00000000000E+00 0. -1.
         23    2    1    2    0    0  0.22350794226E+03  0.45536984368E+03  0.14208885928E+04  0.15109825278E+04  0.82621495599E+02 0.  0.
         11    1    3    3    0    0  0.72801786145E+02  0.75434089400E+02  0.26724170628E+03  0.28706886192E+03  0.00000000000E+00 0. -1.
        -11    1    3    3    0    0  0.15070615611E+03  0.37993575428E+03  0.11536468865E+04  0.12239136659E+04  0.00000000000E+00 0.  1.
         22    1    1    2    0    0 -0.22350794226E+03 -0.45536984368E+03  0.62436929592E+03  0.80445914282E+03  0.00000000000E+00 0. -1.
<mgrwt>
<rscale>  0 0.10854447E+04</rscale>
<asrwt>0</asrwt>
<pdfrwt beam="1">  1        2 0.33543840E+00 0.10854447E+04</pdfrwt>
<pdfrwt beam="2">  1       -2 0.20783369E-01 0.10854447E+04</pdfrwt>
<totfact> 0.10560213E+02</totfact>
</mgrwt>
</event>
<event>
 6    1  0.4630212E-004  0.2544748E+04  0.7818608E-02  0.8387215E-01
         -2   -1    0    0    0  501 -0.00000000000E+00  0.00000000000E+00  0.78907695757E+03  0.78907695757E+03  0.00000000000E+00 0. -1.
          2   -1    0    0  501    0  0.00000000000E+00 -0.00000000000E+00 -0.20516835709E+04  0.20516835709E+04  0.00000000000E+00 0.  1.
         23    2    1    2    0    0 -0.43698574784E+03  0.47875494402E+03  0.58805404713E+03  0.87986590600E+03  0.90518561434E+02 0.  0.
         13    1    3    3    0    0 -0.39170689191E+03  0.38625372820E+03  0.47357367425E+03  0.72587757691E+03  0.00000000000E+00 0.  1.
        -13    1    3    3    0    0 -0.45278855930E+02  0.92501215815E+02  0.11448037288E+03  0.15398832909E+03  0.00000000000E+00 0. -1.
         22    1    1    2    0    0  0.43698574784E+03 -0.47875494402E+03 -0.18506606605E+04  0.19608946225E+04  0.00000000000E+00 0.  1.
<mgrwt>
<rscale>  0 0.25447485E+04</rscale>
<asrwt>0</asrwt>
<pdfrwt beam="1">  1        2 0.31564362E+00 0.25447485E+04</pdfrwt>
<pdfrwt beam="2">  1       -2 0.12139646E+00 0.25447485E+04</pdfrwt>
<totfact> 0.28663787E+00</totfact>
</mgrwt>
</event>
<event>
 6    1  0.4630212E-004  0.3836930E+04  0.7818608E-02  0.8038276E-01
         -2   -1    0    0    0  501 -0.00000000000E+00  0.00000000000E+00  0.10275534670E+04  0.10275534670E+04  0.00000000000E+00 0. -1.
          2   -1    0    0  501    0  0.00000000000E+00 -0.00000000000E+00 -0.35818160740E+04  0.35818160740E+04  0.00000000000E+00 0.  1.
         23    2    1    2    0    0 -0.16240603651E+04  0.85067496158E+03 -0.19522050684E+04  0.26796821985E+04  0.91499160042E+02 0.  0.
         13    1    3    3    0    0 -0.38520442155E+03  0.24639220183E+03 -0.48418099564E+03  0.66597507464E+03  0.00000000000E+00 0.  1.
        -13    1    3    3    0    0 -0.12388559436E+04  0.60428275975E+03 -0.14680240728E+04  0.20137071239E+04  0.00000000000E+00 0. -1.
         22    1    1    2    0    0  0.16240603651E+04 -0.85067496158E+03 -0.60205753856E+03  0.19296873424E+04  0.00000000000E+00 0. -1.
<mgrwt>
<rscale>  0 0.38369298E+04</rscale>
<asrwt>0</asrwt>
<pdfrwt beam="1">  1        2 0.55104863E+00 0.38369298E+04</pdfrwt>
<pdfrwt beam="2">  1       -2 0.15808515E+00 0.38369298E+04</pdfrwt>
<totfact> 0.14772795E-01</totfact>
</mgrwt>
</event>
<event>
 6    1  0.4630212E-004  0.2501671E+04  0.7818608E-02  0.8402390E-01
         -2   -1    0    0    0  501 -0.00000000000E+00  0.00000000000E+00  0.61952267503E+03  0.61952267503E+03  0.00000000000E+00 0. -1.
          2   -1    0    0  501    0  0.00000000000E+00 -0.00000000000E+00 -0.25254756721E+04  0.25254756721E+04  0.00000000000E+00 0.  1.
         23    2    1    2    0    0 -0.20983896651E+03 -0.76771674009E+03  0.25629762694E+03  0.84092605097E+03  0.89703761032E+02 0.  0.
         11    1    3    3    0    0 -0.79382273181E+01 -0.10990116098E+03  0.59542300028E+02  0.12524602242E+03  0.00000000000E+00 0. -1.
        -11    1    3    3    0    0 -0.20190073919E+03 -0.65781557911E+03  0.19675532691E+03  0.71568002855E+03  0.00000000000E+00 0.  1.
         22    1    1    2    0    0  0.20983896651E+03  0.76771674009E+03 -0.21622506241E+04  0.23040722962E+04  0.00000000000E+00 0.  1.
<mgrwt>
<rscale>  0 0.25016710E+04</rscale>
<asrwt>0</asrwt>
<pdfrwt beam="1">  1        2 0.38853471E+00 0.25016710E+04</pdfrwt>
<pdfrwt beam="2">  1       -2 0.95311183E-01 0.25016710E+04</pdfrwt>
<totfact> 0.27744994E+00</totfact>
</mgrwt>
</event>
<event>
 6    1  0.4630212E-004  0.2149877E+04  0.7818608E-02  0.8539585E-01
         -2   -1    0    0    0  501 -0.00000000000E+00  0.00000000000E+00  0.14491704242E+04  0.14491704242E+04  0.00000000000E+00 0. -1.
          2   -1    0    0  501    0  0.00000000000E+00 -0.00000000000E+00 -0.79734739643E+03  0.79734739643E+03  0.00000000000E+00 0.  1.
         23    2    1    2    0    0  0.75367874448E+03 -0.75501553466E+03  0.20657473476E+03  0.10905220811E+04  0.92115041077E+02 0.  0.
         11    1    3    3    0    0  0.16824920099E+03 -0.19751747626E+03  0.16035842088E+02  0.25995787215E+03  0.00000000000E+00 0.  1.
        -11    1    3    3    0    0  0.58542954348E+03 -0.55749805840E+03  0.19053889267E+03  0.83056420891E+03  0.00000000000E+00 0. -1.
         22    1    1    2    0    0 -0.75367874448E+03  0.75501553466E+03  0.44524829301E+03  0.11559957396E+04  0.00000000000E+00 0.  1.
<mgrwt>
<rscale>  0 0.21498765E+04</rscale>
<asrwt>0</asrwt>
<pdfrwt beam="1">  1        2 0.12266883E+00 0.21498765E+04</pdfrwt>
<pdfrwt beam="2">  1       -2 0.22294930E+00 0.21498765E+04</pdfrwt>
<totfact> 0.30053581E+00</totfact>
</mgrwt>
</event>
<event>
 6    1  0.4630212E-004  0.3459492E+04  0.7818608E-02  0.8123458E-01
         -2   -1    0    0    0  501 -0.00000000000E+00  0.00000000000E+00  0.74447527204E+03  0.74447527204E+03  0.00000000000E+00 0. -1.
          2   -1    0    0  501    0  0.00000000000E+00 -0.00000000000E+00 -0.40189660682E+04  0.40189660682E+04  0.00000000000E+00 0.  1.
         23    2    1    2    0    0 -0.50067112805E+03  0.12050175914E+04 -0.31993080769E+04  0.34563868596E+04  0.91098730437E+02 0.  0.
         13    1    3    3    0    0 -0.28931594349E+03  0.77127108948E+03 -0.19285010307E+04  0.20970643848E+04  0.00000000000E+00 0. -1.
        -13    1    3    3    0    0 -0.21135518456E+03  0.43374650188E+03 -0.12708070461E+04  0.13593224748E+04  0.00000000000E+00 0.  1.
         22    1    1    2    0    0  0.50067112805E+03 -0.12050175914E+04 -0.75182719264E+02  0.13070544806E+04  0.00000000000E+00 0. -1.
<mgrwt>
<rscale>  0 0.34594918E+04</rscale>
<asrwt>0</asrwt>
<pdfrwt beam="1">  1        2 0.61830248E+00 0.34594918E+04</pdfrwt>
<pdfrwt beam="2">  1       -2 0.11453466E+00 0.34594918E+04</pdfrwt>
<totfact> 0.16168662E-01</totfact>
</mgrwt>
</event>
<event>
 6    1  0.4630212E-004  0.1050171E+04  0.7818608E-02  0.9255167E-01
          2   -1    0    0  501    0  0.00000000000E+00  0.00000000000E+00  0.26378323070E+04  0.26378323070E+04  0.00000000000E+00 0.  1.
         -2   -1    0    0    0  501 -0.00000000000E+00 -0.00000000000E+00 -0.10452329156E+03  0.10452329156E+03  0.00000000000E+00 0. -1.
         23    2    1    2    0    0 -0.15127381144E+03 -0.34063974883E+03  0.22272119683E+04  0.22600542334E+04  0.91939012119E+02 0.  0.
         13    1    3    3    0    0 -0.62774108165E+02 -0.24062298356E+03  0.13458512440E+04  0.13686327410E+04  0.00000000000E+00 0. -1.
        -13    1    3    3    0    0 -0.88499703280E+02 -0.10001676527E+03  0.88136072426E+03  0.89142149239E+03  0.00000000000E+00 0.  1.
         22    1    1    2    0    0  0.15127381144E+03  0.34063974883E+03  0.30609704718E+03  0.48230136513E+03  0.00000000000E+00 0. -1.
<mgrwt>
<rscale>  0 0.10501713E+04</rscale>
<asrwt>0</asrwt>
<pdfrwt beam="1">  1        2 0.40582031E+00 0.10501713E+04</pdfrwt>
<pdfrwt beam="2">  1       -2 0.16080508E-01 0.10501713E+04</pdfrwt>
<totfact> 0.90977927E+01</totfact>
</mgrwt>
</event>
<event>
 6    1  0.4630212E-004  0.6105657E+04  0.7818608E-02  0.7677438E-01
         -2   -1    0    0    0  501 -0.00000000000E+00  0.00000000000E+00  0.24907923817E+04  0.24907923817E+04  0.00000000000E+00 0. -1.
          2   -1    0    0  501    0  0.00000000000E+00 -0.00000000000E+00 -0.37416861280E+04  0.37416861280E+04  0.00000000000E+00 0.  1.
         23    2    1    2    0    0  0.21278510166E+04 -0.20099603538E+04 -0.15084306581E+04  0.32941089220E+04  0.89999813573E+02 0.  0.
         13    1    3    3    0    0  0.16391540689E+04 -0.15722562594E+04 -0.11326469903E+04  0.25380514202E+04  0.00000000000E+00 0. -1.
        -13    1    3    3    0    0  0.48869694770E+03 -0.43770409441E+03 -0.37578366788E+03  0.75605750178E+03  0.00000000000E+00 0.  1.
         22    1    1    2    0    0 -0.21278510166E+04  0.20099603538E+04  0.25753691178E+03  0.29383695877E+04  0.00000000000E+00 0.  1.
<mgrwt>
<rscale>  0 0.61056575E+04</rscale>
<asrwt>0</asrwt>
<pdfrwt beam="1">  1        2 0.57564402E+00 0.61056575E+04</pdfrwt>
<pdfrwt beam="2">  1       -2 0.38319883E+00 0.61056575E+04</pdfrwt>
<totfact> 0.34545855E-03</totfact>
</mgrwt>
</event>
<event>
 6    1  0.4630212E-004  0.2695310E+04  0.7818608E-02  0.8336528E-01
         -2   -1    0    0    0  501 -0.00000000000E+00  0.00000000000E+00  0.13548095169E+04  0.13548095169E+04  0.00000000000E+00 0. -1.
          2   -1    0    0  501    0  0.00000000000E+00 -0.00000000000E+00 -0.13405380130E+04  0.13405380130E+04  0.00000000000E+00 0.  1.
         23    2    1    2    0    0  0.42958695980E+03 -0.13564560156E+03 -0.12613678340E+04  0.13424985342E+04  0.91152709257E+02 0.  0.
         11    1    3    3    0    0  0.42275523802E+03 -0.11544222238E+03 -0.12073243786E+04  0.12843991019E+04  0.00000000000E+00 0.  1.
        -11    1    3    3    0    0  0.68317217739E+01 -0.20203379177E+02 -0.54043455394E+02  0.58099432213E+02  0.00000000000E+00 0. -1.
         22    1    1    2    0    0 -0.42958695980E+03  0.13564560156E+03  0.12756393378E+04  0.13528489958E+04  0.00000000000E+00 0. -1.
<mgrwt>
<rscale>  0 0.26953097E+04</rscale>
<asrwt>0</asrwt>
<pdfrwt beam="1">  1        2 0.20623662E+00 0.26953097E+04</pdfrwt>
<pdfrwt beam="2">  1       -2 0.20843223E+00 0.26953097E+04</pdfrwt>
<totfact> 0.16107141E+00</totfact>
</mgrwt>
</event>
<event>
 6    1  0.4630212E-004  0.3851498E+04  0.7818608E-02  0.8035193E-01
         -2   -1    0    0    0  501 -0.00000000000E+00  0.00000000000E+00  0.13529245862E+04  0.13529245862E+04  0.00000000000E+00 0. -1.
          2   -1    0    0  501    0  0.00000000000E+00 -0.00000000000E+00 -0.27411056733E+04  0.27411056733E+04  0.00000000000E+00 0.  1.
         23    2    1    2    0    0 -0.58489960787E+03  0.14878124515E+04  0.44474839196E+03  0.16618863663E+04  0.91497103881E+02 0.  0.
         11    1    3    3    0    0 -0.15159691609E+03  0.28544430854E+03  0.91571197183E+02  0.33592463798E+03  0.00000000000E+00 0. -1.
        -11    1    3    3    0    0 -0.43330269178E+03  0.12023681430E+04  0.35317719477E+03  0.13259617283E+04  0.00000000000E+00 0.  1.
         22    1    1    2    0    0  0.58489960787E+03 -0.14878124515E+04 -0.18329294791E+04  0.24321438933E+04  0.00000000000E+00 0.  1.
<mgrwt>
<rscale>  0 0.38514980E+04</rscale>
<asrwt>0</asrwt>
<pdfrwt beam="1">  1        2 0.42170857E+00 0.38514980E+04</pdfrwt>
<pdfrwt beam="2">  1       -2 0.20814224E+00 0.38514980E+04</pdfrwt>
<totfact> 0.23578619E-01</totfact>
</mgrwt>
</event>
<event>
 6    1  0.4630212E-004  0.1433047E+04  0.7818608E-02  0.8930239E-01
          2   -1    0    0  501    0  0.00000000000E+00  0.00000000000E+00  0.57522174384E+03  0.57522174384E+03  0.00000000000E+00 0. -1.
         -2   -1    0    0    0  501 -0.00000000000E+00 -0.00000000000E+00 -0.89253525356E+03  0.89253525356E+03  0.00000000000E+00 0.  1.
         23    2    1    2    0    0  0.91116492066E+02  0.30021114355E+03  0.49709811687E+03  0.59500546154E+03  0.92173833763E+02 0.  0.
         11    1    3    3    0    0  0.38577230649E+02  0.58619496655E+02  0.17800596444E+03  0.19133889173E+03  0.00000000000E+00 0. -1.
        -11    1    3    3    0    0  0.52539261417E+02  0.24159164690E+03  0.31909215242E+03  0.40366656980E+03  0.00000000000E+00 0.  1.
         22    1    1    2    0    0 -0.91116492066E+02 -0.30021114355E+03 -0.81441162658E+03  0.87275153586E+03  0.00000000000E+00 0.  1.
<mgrwt>
<rscale>  0 0.14330467E+04</rscale>
<asrwt>0</asrwt>
<pdfrwt beam="1">  1        2 0.88495654E-01 0.14330467E+04</pdfrwt>
<pdfrwt beam="2">  1       -2 0.13731311E+00 0.14330467E+04</pdfrwt>
<totfact> 0.19125323E+01</totfact>
</mgrwt>
</event>
<event>
 6    1  0.4630212E-004  0.6709401E+03  0.7818608E-02  0.9768261E-01
          2   -1    0    0  501    0  0.00000000000E+00  0.00000000000E+00  0.63243625279E+03  0.63243625279E+03  0.00000000000E+00 0.  1.
         -2   -1    0    0    0  501 -0.00000000000E+00 -0.00000000000E+00 -0.17794701135E+03  0.17794701135E+03  0.00000000000E+00 0. -1.
         23    2    1    2    0    0  0.68401572734E+02 -0.31959859827E+03  0.28468716524E+03  0.44206983206E+03  0.86930519399E+02 0.  0.
         11    1    3    3    0    0  0.71745358851E+02 -0.14439972176E+03  0.15878029060E+03  0.22629594969E+03  0.00000000000E+00 0.  1.
        -11    1    3    3    0    0 -0.33437861169E+01 -0.17519887651E+03  0.12590687463E+03  0.21577388238E+03  0.00000000000E+00 0. -1.
         22    1    1    2    0    0 -0.68401572734E+02  0.31959859827E+03  0.16980207620E+03  0.36831343208E+03  0.00000000000E+00 0.  1.
<mgrwt>
<rscale>  0 0.67094006E+03</rscale>
<asrwt>0</asrwt>
<pdfrwt beam="1">  1        2 0.97297884E-01 0.67094006E+03</pdfrwt>
<pdfrwt beam="2">  1       -2 0.27376464E-01 0.67094006E+03</pdfrwt>
<totfact> 0.56824489E+02</totfact>
</mgrwt>
</event>
<event>
 6    1  0.4630212E-004  0.7928020E+03  0.7818608E-02  0.9570495E-01
          2   -1    0    0  501    0  0.00000000000E+00  0.00000000000E+00  0.15229111652E+04  0.15229111652E+04  0.00000000000E+00 0.  1.
         -2   -1    0    0    0  501 -0.00000000000E+00 -0.00000000000E+00 -0.10317985876E+03  0.10317985876E+03  0.00000000000E+00 0. -1.
         23    2    1    2    0    0  0.58297712170E+02  0.22010840477E+03  0.66394459086E+02  0.25373285078E+03  0.90143231985E+02 0.  0.
         11    1    3    3    0    0  0.54846416908E+02  0.54115459095E+02  0.68656073821E+01  0.77354695562E+02  0.00000000000E+00 0.  1.
        -11    1    3    3    0    0  0.34512952619E+01  0.16599294567E+03  0.59528851704E+02  0.17637815521E+03  0.00000000000E+00 0. -1.
         22    1    1    2    0    0 -0.58297712170E+02 -0.22010840477E+03  0.13533368474E+04  0.13723581732E+04  0.00000000000E+00 0.  1.
<mgrwt>
<rscale>  0 0.79280202E+03</rscale>
<asrwt>0</asrwt>
<pdfrwt beam="1">  1        2 0.23429401E+00 0.79280202E+03</pdfrwt>
<pdfrwt beam="2">  1       -2 0.15873826E-01 0.79280202E+03</pdfrwt>
<totfact> 0.39621205E+02</totfact>
</mgrwt>
</event>
<event>
 6    1  0.4630212E-004  0.3206357E+04  0.7818608E-02  0.8187140E-01
          2   -1    0    0  501    0  0.00000000000E+00  0.00000000000E+00  0.29138844664E+04  0.29138844664E+04  0.00000000000E+00 0.  1.
         -2   -1    0    0    0  501 -0.00000000000E+00 -0.00000000000E+00 -0.88204629483E+03  0.88204629483E+03  0.00000000000E+00 0. -1.
         23    2    1    2    0    0  0.92061010704E+03 -0.12780564522E+04  0.13619635101E+04  0.20842989883E+04  0.91686451763E+02 0.  0.
         13    1    3    3    0    0  0.26567090517E+03 -0.30492907989E+03  0.36833043451E+03  0.54701927078E+03  0.00000000000E+00 0.  1.
        -13    1    3    3    0    0  0.65493920187E+03 -0.97312737231E+03  0.99363307557E+03  0.15372797175E+04  0.00000000000E+00 0. -1.
         22    1    1    2    0    0 -0.92061010704E+03  0.12780564522E+04  0.66987466152E+03  0.17116317730E+04  0.00000000000E+00 0. -1.
<mgrwt>
<rscale>  0 0.32063568E+04</rscale>
<asrwt>0</asrwt>
<pdfrwt beam="1">  1        2 0.44828991E+00 0.32063568E+04</pdfrwt>
<pdfrwt beam="2">  1       -2 0.13569943E+00 0.32063568E+04</pdfrwt>
<totfact> 0.64505934E-01</totfact>
</mgrwt>
</event>
<event>
 6    1  0.4630212E-004  0.3193811E+04  0.7818608E-02  0.8190454E-01
         -2   -1    0    0    0  501 -0.00000000000E+00  0.00000000000E+00  0.88298991155E+03  0.88298991155E+03  0.00000000000E+00 0. -1.
          2   -1    0    0  501    0  0.00000000000E+00 -0.00000000000E+00 -0.28880364234E+04  0.28880364234E+04  0.00000000000E+00 0.  1.
         23    2    1    2    0    0  0.11019565374E+04  0.61702603999E+03 -0.21547232052E+04  0.24992431549E+04  0.91405208120E+02 0.  0.
         13    1    3    3    0    0  0.50746137783E+03  0.33031490899E+03 -0.98856891973E+03  0.11592642055E+04  0.00000000000E+00 0.  1.
        -13    1    3    3    0    0  0.59449515959E+03  0.28671113100E+03 -0.11661542855E+04  0.13399789494E+04  0.00000000000E+00 0. -1.
         22    1    1    2    0    0 -0.11019565374E+04 -0.61702603999E+03  0.14967669337E+03  0.12717831800E+04  0.00000000000E+00 0. -1.
<mgrwt>
<rscale>  0 0.31938109E+04</rscale>
<asrwt>0</asrwt>
<pdfrwt beam="1">  1        2 0.44431331E+00 0.31938109E+04</pdfrwt>
<pdfrwt beam="2">  1       -2 0.13584460E+00 0.31938109E+04</pdfrwt>
<totfact> 0.66803327E-01</totfact>
</mgrwt>
</event>
<event>
 6    1  0.4630212E-004  0.3286073E+04  0.7818608E-02  0.8166448E-01
          2   -1    0    0  501    0  0.00000000000E+00  0.00000000000E+00  0.18343045741E+04  0.18343045741E+04  0.00000000000E+00 0.  1.
         -2   -1    0    0    0  501 -0.00000000000E+00 -0.00000000000E+00 -0.14717121850E+04  0.14717121850E+04  0.00000000000E+00 0. -1.
         23    2    1    2    0    0 -0.75991855551E+03  0.10493808361E+04  0.11956556810E+04  0.17656691365E+04  0.96533112643E+02 0.  0.
         13    1    3    3    0    0 -0.44429057948E+02  0.10537137652E+03  0.93800367133E+02  0.14790394537E+03  0.00000000000E+00 0. -1.
        -13    1    3    3    0    0 -0.71548949756E+03  0.94400945961E+03  0.11018553139E+04  0.16177651911E+04  0.00000000000E+00 0.  1.
         22    1    1    2    0    0  0.75991855551E+03 -0.10493808361E+04 -0.83306329191E+03  0.15403476226E+04  0.00000000000E+00 0. -1.
<mgrwt>
<rscale>  0 0.32860727E+04</rscale>
<asrwt>0</asrwt>
<pdfrwt beam="1">  1        2 0.28220070E+00 0.32860727E+04</pdfrwt>
<pdfrwt beam="2">  1       -2 0.22641726E+00 0.32860727E+04</pdfrwt>
<totfact> 0.62180122E-01</totfact>
</mgrwt>
</event>
<event>
 6    1  0.4630212E-004  0.3827594E+04  0.7818608E-02  0.8040259E-01
          2   -1    0    0  501    0  0.00000000000E+00  0.00000000000E+00  0.19681410228E+04  0.19681410228E+04  0.00000000000E+00 0. -1.
         -2   -1    0    0    0  501 -0.00000000000E+00 -0.00000000000E+00 -0.18609539410E+04  0.18609539410E+04  0.00000000000E+00 0.  1.
         23    2    1    2    0    0 -0.16524327178E+03 -0.95342067861E+03  0.17041479391E+04  0.19618509228E+04  0.91774264799E+02 0.  0.
         11    1    3    3    0    0 -0.10385384530E+01 -0.22793411421E+03  0.38291985323E+03  0.44562613588E+03  0.00000000000E+00 0. -1.
        -11    1    3    3    0    0 -0.16420473333E+03 -0.72548656440E+03  0.13212280858E+04  0.15162247869E+04  0.00000000000E+00 0.  1.
         22    1    1    2    0    0  0.16524327178E+03  0.95342067861E+03 -0.15969608573E+04  0.18672440411E+04  0.00000000000E+00 0.  1.
<mgrwt>
<rscale>  0 0.38275944E+04</rscale>
<asrwt>0</asrwt>
<pdfrwt beam="1">  1        2 0.30279093E+00 0.38275944E+04</pdfrwt>
<pdfrwt beam="2">  1       -2 0.28630061E+00 0.38275944E+04</pdfrwt>
<totfact> 0.21460876E-01</totfact>
</mgrwt>
</event>
<event>
 6    1  0.4630212E-004  0.3576134E+04  0.7818608E-02  0.8095980E-01
         -2   -1    0    0    0  501 -0.00000000000E+00  0.00000000000E+00  0.72004549631E+03  0.72004549631E+03  0.00000000000E+00 0. -1.
          2   -1    0    0  501    0  0.00000000000E+00 -0.00000000000E+00 -0.44402520694E+04  0.44402520694E+04  0.00000000000E+00 0.  1.
         23    2    1    2    0    0  0.15344260219E+04  0.15845203455E+03 -0.31627255688E+04  0.35200672971E+04  0.92035255671E+02 0.  0.
         11    1    3    3    0    0  0.83036892628E+03  0.66966014588E+02 -0.16117048240E+04  0.18142738052E+04  0.00000000000E+00 0.  1.
        -11    1    3    3    0    0  0.70405709561E+03  0.91486019962E+02 -0.15510207449E+04  0.17057934918E+04  0.00000000000E+00 0. -1.
         22    1    1    2    0    0 -0.15344260219E+04 -0.15845203455E+03 -0.55748100421E+03  0.16402302686E+04  0.00000000000E+00 0. -1.
<mgrwt>
<rscale>  0 0.35761339E+04</rscale>
<asrwt>0</asrwt>
<pdfrwt beam="1">  1        2 0.68311569E+00 0.35761339E+04</pdfrwt>
<pdfrwt beam="2">  1       -2 0.11077623E+00 0.35761339E+04</pdfrwt>
<totfact> 0.73791722E-02</totfact>
</mgrwt>
</event>
<event>
 6    1  0.4630212E-004  0.1168439E+04  0.7818608E-02  0.9140940E-01
         -2   -1    0    0    0  501 -0.00000000000E+00  0.00000000000E+00  0.27950394240E+03  0.27950394240E+03  0.00000000000E+00 0. -1.
          2   -1    0    0  501    0  0.00000000000E+00 -0.00000000000E+00 -0.12211359220E+04  0.12211359220E+04  0.00000000000E+00 0.  1.
         23    2    1    2    0    0  0.23491338923E+03  0.41617308604E+03 -0.49508196118E+02  0.48857801696E+03  0.88730373560E+02 0.  0.
         11    1    3    3    0    0  0.83860284298E+02  0.13375575771E+03  0.24769130866E+02  0.15980193944E+03  0.00000000000E+00 0. -1.
        -11    1    3    3    0    0  0.15105310493E+03  0.28241732833E+03 -0.74277326984E+02  0.32877607753E+03  0.00000000000E+00 0.  1.
         22    1    1    2    0    0 -0.23491338923E+03 -0.41617308604E+03 -0.89212378351E+03  0.10120618475E+04  0.00000000000E+00 0.  1.
<mgrwt>
<rscale>  0 0.11684388E+04</rscale>
<asrwt>0</asrwt>
<pdfrwt beam="1">  1        2 0.18786707E+00 0.11684388E+04</pdfrwt>
<pdfrwt beam="2">  1       -2 0.43000606E-01 0.11684388E+04</pdfrwt>
<totfact> 0.93222939E+01</totfact>
</mgrwt>
</event>
<event>
 6    1  0.4630212E-004  0.1464153E+04  0.7818608E-02  0.8908647E-01
          2   -1    0    0  501    0  0.00000000000E+00  0.00000000000E+00  0.13871331802E+04  0.13871331802E+04  0.00000000000E+00 0.  1.
         -2   -1    0    0    0  501 -0.00000000000E+00 -0.00000000000E+00 -0.38636235578E+03  0.38636235578E+03  0.00000000000E+00 0. -1.
         23    2    1    2    0    0  0.22811534648E+03 -0.21875157138E+03  0.12981733352E+04  0.13395172938E+04  0.95727272664E+02 0.  0.
         13    1    3    3    0    0  0.99767094955E+02 -0.16101514291E+03  0.75897363172E+03  0.78225336249E+03  0.00000000000E+00 0. -1.
        -13    1    3    3    0    0  0.12834825153E+03 -0.57736428471E+02  0.53919970350E+03  0.55726393127E+03  0.00000000000E+00 0.  1.
         22    1    1    2    0    0 -0.22811534648E+03  0.21875157138E+03 -0.29740251080E+03  0.43397824221E+03  0.00000000000E+00 0. -1.
<mgrwt>
<rscale>  0 0.14641531E+04</rscale>
<asrwt>0</asrwt>
<pdfrwt beam="1">  1        2 0.21340510E+00 0.14641531E+04</pdfrwt>
<pdfrwt beam="2">  1       -2 0.59440363E-01 0.14641531E+04</pdfrwt>
<totfact> 0.37665233E+01</totfact>
</mgrwt>
</event>
<event>
 6    1  0.4630212E-004  0.7308762E+03  0.7818608E-02  0.9665840E-01
         -2   -1    0    0    0  501 -0.00000000000E+00  0.00000000000E+00  0.59303737311E+03  0.59303737311E+03  0.00000000000E+00 0. -1.
          2   -1    0    0  501    0  0.00000000000E+00 -0.00000000000E+00 -0.22518817001E+03  0.22518817001E+03  0.00000000000E+00 0.  1.
         23    2    1    2    0    0 -0.30329557646E+03  0.75141095554E+02  0.38923100750E+03  0.50502980161E+03  0.76941096768E+02 0.  0.
         11    1    3    3    0    0  0.35503762712E+00 -0.69974709368E+01  0.11541920451E+02  0.13502095353E+02  0.00000000000E+00 0. -1.
        -11    1    3    3    0    0 -0.30365061408E+03  0.82138566491E+02  0.37768908705E+03  0.49152770625E+03  0.00000000000E+00 0.  1.
         22    1    1    2    0    0  0.30329557646E+03 -0.75141095554E+02 -0.21381804397E+02  0.31319574151E+03  0.00000000000E+00 0.  1.
<mgrwt>
<rscale>  0 0.73087619E+03</rscale>
<asrwt>0</asrwt>
<pdfrwt beam="1">  1        2 0.34644334E-01 0.73087619E+03</pdfrwt>
<pdfrwt beam="2">  1       -2 0.91236518E-01 0.73087619E+03</pdfrwt>
<totfact> 0.15638601E+02</totfact>
</mgrwt>
</event>
<event>
 6    1  0.4630212E-004  0.1293476E+04  0.7818608E-02  0.9034755E-01
          2   -1    0    0  501    0  0.00000000000E+00  0.00000000000E+00  0.17835139259E+04  0.17835139259E+04  0.00000000000E+00 0. -1.
         -2   -1    0    0    0  501 -0.00000000000E+00 -0.00000000000E+00 -0.23452004886E+03  0.23452004886E+03  0.00000000000E+00 0.  1.
         23    2    1    2    0    0 -0.92864037123E+02 -0.35487481598E+03 -0.46307500817E+02  0.38110198148E+03  0.92382202009E+02 0.  0.
         13    1    3    3    0    0 -0.23742831498E+02 -0.16161472935E+02 -0.18774218707E+02  0.34313066651E+02  0.00000000000E+00 0.  1.
        -13    1    3    3    0    0 -0.69121205625E+02 -0.33871334305E+03 -0.27533282110E+02  0.34678891483E+03  0.00000000000E+00 0. -1.
         22    1    1    2    0    0  0.92864037123E+02  0.35487481598E+03  0.15953013779E+04  0.16369319933E+04  0.00000000000E+00 0. -1.
<mgrwt>
<rscale>  0 0.12934756E+04</rscale>
<asrwt>0</asrwt>
<pdfrwt beam="1">  1        2 0.27438675E+00 0.12934756E+04</pdfrwt>
<pdfrwt beam="2">  1       -2 0.36080009E-01 0.12934756E+04</pdfrwt>
<totfact> 0.62452188E+01</totfact>
</mgrwt>
</event>
<event>
 6    1  0.6601307E-004  0.2945640E+04  0.7818608E-02  0.8259426E-01
          2   -1    0    0  501    0  0.00000000000E+00  0.00000000000E+00  0.17988494074E+04  0.17988494074E+04  0.00000000000E+00 0.  1.
         -2   -1    0    0    0  501 -0.00000000000E+00 -0.00000000000E+00 -0.12058809945E+04  0.12058809945E+04  0.00000000000E+00 0. -1.
         23    2    1    2    0    0  0.11214869515E+04  0.93427916501E+03  0.10742513293E+03  0.14664317257E+04  0.90946723032E+02 0.  0.
         11    1    3    3    0    0  0.42923462395E+03  0.30089025156E+03  0.36481555469E+02  0.52545999826E+03  0.00000000000E+00 0. -1.
        -11    1    3    3    0    0  0.69225232752E+03  0.63338891345E+03  0.70943577458E+02  0.94097172743E+03  0.00000000000E+00 0.  1.
         22    1    1    2    0    0 -0.11214869515E+04 -0.93427916501E+03  0.48554327996E+03  0.15382986762E+04  0.00000000000E+00 0. -1.
<mgrwt>
<rscale>  0 0.29456397E+04</rscale>
<asrwt>0</asrwt>
<pdfrwt beam="1">  1        2 0.27674606E+00 0.29456397E+04</pdfrwt>
<pdfrwt beam="2">  1       -2 0.18552015E+00 0.29456397E+04</pdfrwt>
<totfact> 0.12350145E+00</totfact>
</mgrwt>
</event>
<event>
 6    1  0.4630212E-004  0.3863372E+04  0.7818608E-02  0.8032691E-01
         -2   -1    0    0    0  501 -0.00000000000E+00  0.00000000000E+00  0.10878413984E+04  0.10878413984E+04  0.00000000000E+00 0. -1.
          2   -1    0    0  501    0  0.00000000000E+00 -0.00000000000E+00 -0.34301050865E+04  0.34301050865E+04  0.00000000000E+00 0.  1.
         23    2    1    2    0    0  0.12829807331E+04 -0.37591876220E+03 -0.28006047231E+04  0.31046414995E+04  0.89763846481E+02 0.  0.
         11    1    3    3    0    0  0.53752069230E+03 -0.14410323139E+03 -0.12646194694E+04  0.13816499695E+04  0.00000000000E+00 0.  1.
        -11    1    3    3    0    0  0.74546004078E+03 -0.23181553081E+03 -0.15359852537E+04  0.17229915300E+04  0.00000000000E+00 0. -1.
         22    1    1    2    0    0 -0.12829807331E+04  0.37591876220E+03  0.45834103502E+03  0.14133049853E+04  0.00000000000E+00 0. -1.
<mgrwt>
<rscale>  0 0.38633717E+04</rscale>
<asrwt>0</asrwt>
<pdfrwt beam="1">  1        2 0.52770847E+00 0.38633717E+04</pdfrwt>
<pdfrwt beam="2">  1       -2 0.16736022E+00 0.38633717E+04</pdfrwt>
<totfact> 0.16117027E-01</totfact>
</mgrwt>
</event>
<event>
 6    1  0.4630212E-004  0.1911873E+04  0.7818608E-02  0.8648969E-01
         -2   -1    0    0    0  501 -0.00000000000E+00  0.00000000000E+00  0.35421395666E+03  0.35421395666E+03  0.00000000000E+00 0. -1.
          2   -1    0    0  501    0  0.00000000000E+00 -0.00000000000E+00 -0.25798382689E+04  0.25798382689E+04  0.00000000000E+00 0.  1.
         23    2    1    2    0    0 -0.55709806500E+03  0.76445375811E+03 -0.92808196088E+03  0.13283237442E+04  0.91433259464E+02 0.  0.
         11    1    3    3    0    0 -0.30271500631E+03  0.35447347806E+03 -0.41648092901E+03  0.62509534147E+03  0.00000000000E+00 0. -1.
        -11    1    3    3    0    0 -0.25438305869E+03  0.40998028004E+03 -0.51160103187E+03  0.70322840272E+03  0.00000000000E+00 0.  1.
         22    1    1    2    0    0  0.55709806500E+03 -0.76445375811E+03 -0.12975423514E+04  0.16057284814E+04  0.00000000000E+00 0.  1.
<mgrwt>
<rscale>  0 0.19118731E+04</rscale>
<asrwt>0</asrwt>
<pdfrwt beam="1">  1        2 0.39689820E+00 0.19118731E+04</pdfrwt>
<pdfrwt beam="2">  1       -2 0.54494454E-01 0.19118731E+04</pdfrwt>
<totfact> 0.92834142E+00</totfact>
</mgrwt>
</event>
<event>
 6    1  0.4630212E-004  0.2783329E+04  0.7818608E-02  0.8308463E-01
         -2   -1    0    0    0  501 -0.00000000000E+00  0.00000000000E+00  0.11268007571E+04  0.11268007571E+04  0.00000000000E+00 0. -1.
          2   -1    0    0  501    0  0.00000000000E+00 -0.00000000000E+00 -0.17187863082E+04  0.17187863082E+04  0.00000000000E+00 0.  1.
         23    2    1    2    0    0  0.62246691154E+03 -0.94871675690E+03 -0.11173931913E+04  0.15951544484E+04  0.91769436756E+02 0.  0.
         13    1    3    3    0    0  0.38840477084E+03 -0.65746548596E+03 -0.71654349242E+03  0.10471646040E+04  0.00000000000E+00 0.  1.
        -13    1    3    3    0    0  0.23406214069E+03 -0.29125127094E+03 -0.40084969890E+03  0.54798984447E+03  0.00000000000E+00 0. -1.
         22    1    1    2    0    0 -0.62246691154E+03  0.94871675690E+03  0.52540764027E+03  0.12504326168E+04  0.00000000000E+00 0. -1.
<mgrwt>
<rscale>  0 0.27833287E+04</rscale>
<asrwt>0</asrwt>
<pdfrwt beam="1">  1        2 0.26442866E+00 0.27833287E+04</pdfrwt>
<pdfrwt beam="2">  1       -2 0.17335396E+00 0.27833287E+04</pdfrwt>
<totfact> 0.16836132E+00</totfact>
</mgrwt>
</event>
<event>
 6    1  0.4630212E-004  0.1611358E+04  0.7818608E-02  0.8813600E-01
          2   -1    0    0  501    0  0.00000000000E+00  0.00000000000E+00  0.35049823701E+04  0.35049823701E+04  0.00000000000E+00 0.  1.
         -2   -1    0    0    0  501 -0.00000000000E+00 -0.00000000000E+00 -0.18519890950E+03  0.18519890950E+03  0.00000000000E+00 0. -1.
         23    2    1    2    0    0 -0.28583746706E+03 -0.53643405106E+03  0.46289546036E+03  0.76934687919E+03  0.90320897851E+02 0.  0.
         11    1    3    3    0    0 -0.21138826944E+03 -0.31894215518E+03  0.25880043803E+03  0.46193805378E+03  0.00000000000E+00 0.  1.
        -11    1    3    3    0    0 -0.74449197619E+02 -0.21749189588E+03  0.20409502233E+03  0.30740882541E+03  0.00000000000E+00 0. -1.
         22    1    1    2    0    0  0.28583746706E+03  0.53643405106E+03  0.28568880002E+04  0.29208344004E+04  0.00000000000E+00 0.  1.
<mgrwt>
<rscale>  0 0.16113583E+04</rscale>
<asrwt>0</asrwt>
<pdfrwt beam="1">  1        2 0.53922801E+00 0.16113583E+04</pdfrwt>
<pdfrwt beam="2">  1       -2 0.28492143E-01 0.16113583E+04</pdfrwt>
<totfact> 0.88241274E+00</totfact>
</mgrwt>
</event>
<event>
 6    1  0.4630212E-004  0.4020978E+04  0.7818608E-02  0.8000328E-01
         -2   -1    0    0    0  501 -0.00000000000E+00  0.00000000000E+00  0.14803819441E+04  0.14803819441E+04  0.00000000000E+00 0. -1.
          2   -1    0    0  501    0  0.00000000000E+00 -0.00000000000E+00 -0.27304215354E+04  0.27304215354E+04  0.00000000000E+00 0.  1.
         23    2    1    2    0    0  0.39799867188E+03 -0.30982782210E+03 -0.26621438962E+04  0.27113253068E+04  0.99391009072E+02 0.  0.
         11    1    3    3    0    0  0.56536509019E+01 -0.33005428112E+02 -0.20249910347E+03  0.20524913876E+03  0.00000000000E+00 0. -1.
        -11    1    3    3    0    0  0.39234502098E+03 -0.27682239399E+03 -0.24596447928E+04  0.25060761680E+04  0.00000000000E+00 0.  1.
         22    1    1    2    0    0 -0.39799867188E+03  0.30982782210E+03  0.14121043050E+04  0.14994781727E+04  0.00000000000E+00 0. -1.
<mgrwt>
<rscale>  0 0.40209784E+04</rscale>
<asrwt>0</asrwt>
<pdfrwt beam="1">  1        2 0.42006485E+00 0.40209784E+04</pdfrwt>
<pdfrwt beam="2">  1       -2 0.22775107E+00 0.40209784E+04</pdfrwt>
<totfact> 0.17710052E-01</totfact>
</mgrwt>
</event>
<event>
 6    1  0.4630212E-004  0.3425756E+04  0.7818608E-02  0.8131614E-01
         -2   -1    0    0    0  501 -0.00000000000E+00  0.00000000000E+00  0.17314896918E+04  0.17314896918E+04  0.00000000000E+00 0.  1.
          2   -1    0    0  501    0  0.00000000000E+00 -0.00000000000E+00 -0.16944658926E+04  0.16944658926E+04  0.00000000000E+00 0. -1.
         23    2    1    2    0    0  0.17027485636E+04 -0.72084675382E+02  0.17787466166E+03  0.17158714237E+04  0.89590603493E+02 0.  0.
         13    1    3    3    0    0  0.11165913137E+03 -0.14212345933E+02  0.32223125415E+02  0.11708151949E+03  0.00000000000E+00 0.  1.
        -13    1    3    3    0    0  0.15910894322E+04 -0.57872329449E+02  0.14565153625E+03  0.15987899042E+04  0.00000000000E+00 0. -1.
         22    1    1    2    0    0 -0.17027485636E+04  0.72084675382E+02 -0.14085086242E+03  0.17100841607E+04  0.00000000000E+00 0.  1.
<mgrwt>
<rscale>  0 0.34257555E+04</rscale>
<asrwt>0</asrwt>
<pdfrwt beam="1">  1        2 0.26068706E+00 0.34257555E+04</pdfrwt>
<pdfrwt beam="2">  1       -2 0.26638303E+00 0.34257555E+04</pdfrwt>
<totfact> 0.41640715E-01</totfact>
</mgrwt>
</event>
<event>
 6    1  0.5223687E-004  0.5703779E+04  0.7818608E-02  0.7728255E-01
         -2   -1    0    0    0  501 -0.00000000000E+00  0.00000000000E+00  0.23807444800E+04  0.23807444800E+04  0.00000000000E+00 0. -1.
          2   -1    0    0  501    0  0.00000000000E+00 -0.00000000000E+00 -0.34162735792E+04  0.34162735792E+04  0.00000000000E+00 0.  1.
         23    2    1    2    0    0 -0.25892292202E+04  0.10721214010E+04  0.15339711290E+02  0.28040467080E+04  0.94288814963E+02 0.  0.
         11    1    3    3    0    0 -0.97080034335E+03  0.36078170606E+03 -0.19275177031E+02  0.10358514751E+04  0.00000000000E+00 0.  1.
        -11    1    3    3    0    0 -0.16184288768E+04  0.71133969495E+03  0.34614888322E+02  0.17681952328E+04  0.00000000000E+00 0. -1.
         22    1    1    2    0    0  0.25892292202E+04 -0.10721214010E+04 -0.10508688105E+04  0.29929713513E+04  0.00000000000E+00 0.  1.
<mgrwt>
<rscale>  0 0.57037793E+04</rscale>
<asrwt>0</asrwt>
<pdfrwt beam="1">  1        2 0.52558055E+00 0.57037793E+04</pdfrwt>
<pdfrwt beam="2">  1       -2 0.36626838E+00 0.57037793E+04</pdfrwt>
<totfact> 0.78384140E-03</totfact>
</mgrwt>
</event>
<event>
 6    1  0.4630212E-004  0.2136541E+04  0.7818608E-02  0.8545315E-01
         -2   -1    0    0    0  501 -0.00000000000E+00  0.00000000000E+00  0.15997717655E+04  0.15997717655E+04  0.00000000000E+00 0. -1.
          2   -1    0    0  501    0  0.00000000000E+00 -0.00000000000E+00 -0.71335305697E+03  0.71335305697E+03  0.00000000000E+00 0.  1.
         23    2    1    2    0    0  0.61465225838E+03 -0.11741802562E+03  0.13788098378E+04  0.15168626698E+04  0.90395789593E+02 0.  0.
         11    1    3    3    0    0  0.10236981807E+03  0.12938518295E+02  0.20423705327E+03  0.22882254879E+03  0.00000000000E+00 0. -1.
        -11    1    3    3    0    0  0.51228244030E+03 -0.13035654391E+03  0.11745727846E+04  0.12880401210E+04  0.00000000000E+00 0.  1.
         22    1    1    2    0    0 -0.61465225838E+03  0.11741802562E+03 -0.49239112932E+03  0.79626215262E+03  0.00000000000E+00 0.  1.
<mgrwt>
<rscale>  0 0.21365412E+04</rscale>
<asrwt>0</asrwt>
<pdfrwt beam="1">  1        2 0.10974662E+00 0.21365412E+04</pdfrwt>
<pdfrwt beam="2">  1       -2 0.24611873E+00 0.21365412E+04</pdfrwt>
<totfact> 0.24948104E+00</totfact>
</mgrwt>
</event>
<event>
 6    1  0.4630212E-004  0.9935665E+03  0.7818608E-02  0.9315629E-01
          2   -1    0    0  501    0  0.00000000000E+00  0.00000000000E+00  0.66576278459E+03  0.66576278459E+03  0.00000000000E+00 0.  1.
         -2   -1    0    0    0  501 -0.00000000000E+00 -0.00000000000E+00 -0.37069301668E+03  0.37069301668E+03  0.00000000000E+00 0. -1.
         23    2    1    2    0    0 -0.27046470367E+03 -0.41143892464E+03  0.14614405927E+03  0.52205128016E+03  0.93521700284E+02 0.  0.
         11    1    3    3    0    0 -0.18592318392E+03 -0.21770790746E+03  0.11441180386E+03  0.30830865079E+03  0.00000000000E+00 0.  1.
        -11    1    3    3    0    0 -0.84541519743E+02 -0.19373101718E+03  0.31732255412E+02  0.21374262938E+03  0.00000000000E+00 0. -1.
         22    1    1    2    0    0  0.27046470367E+03  0.41143892464E+03  0.14892570864E+03  0.51440452110E+03  0.00000000000E+00 0.  1.
<mgrwt>
<rscale>  0 0.99356654E+03</rscale>
<asrwt>0</asrwt>
<pdfrwt beam="1">  1        2 0.10242504E+00 0.99356654E+03</pdfrwt>
<pdfrwt beam="2">  1       -2 0.57029695E-01 0.99356654E+03</pdfrwt>
<totfact> 0.12568616E+02</totfact>
</mgrwt>
</event>
<event>
 6    1  0.4630212E-004  0.2176988E+04  0.7818608E-02  0.8528068E-01
         -2   -1    0    0    0  501 -0.00000000000E+00  0.00000000000E+00  0.66432299051E+03  0.66432299051E+03  0.00000000000E+00 0. -1.
          2   -1    0    0  501    0  0.00000000000E+00 -0.00000000000E+00 -0.17834980335E+04  0.17834980335E+04  0.00000000000E+00 0.  1.
         23    2    1    2    0    0  0.37926757158E+03  0.66655829950E+03  0.30510087592E+03  0.83019753546E+03  0.89428999194E+02 0.  0.
         13    1    3    3    0    0  0.69651326924E+02  0.17784220268E+03  0.10549986689E+03  0.21819573394E+03  0.00000000000E+00 0.  1.
        -13    1    3    3    0    0  0.30961624466E+03  0.48871609682E+03  0.19960100904E+03  0.61200180152E+03  0.00000000000E+00 0. -1.
         22    1    1    2    0    0 -0.37926757158E+03 -0.66655829950E+03 -0.14242759189E+04  0.16176234885E+04  0.00000000000E+00 0.  1.
<mgrwt>
<rscale>  0 0.21769876E+04</rscale>
<asrwt>0</asrwt>
<pdfrwt beam="1">  1        2 0.27438431E+00 0.21769876E+04</pdfrwt>
<pdfrwt beam="2">  1       -2 0.10220354E+00 0.21769876E+04</pdfrwt>
<totfact> 0.63289935E+00</totfact>
</mgrwt>
</event>
<event>
 6    1  0.4630212E-004  0.4984126E+04  0.7818608E-02  0.7830961E-01
         -2   -1    0    0    0  501 -0.00000000000E+00  0.00000000000E+00  0.15221704700E+04  0.15221704700E+04  0.00000000000E+00 0. -1.
          2   -1    0    0  501    0  0.00000000000E+00 -0.00000000000E+00 -0.40799493025E+04  0.40799493025E+04  0.00000000000E+00 0.  1.
         23    2    1    2    0    0  0.15510570050E+04  0.16458686182E+04 -0.10522185371E+03  0.22659997094E+04  0.94982648344E+02 0.  0.
         11    1    3    3    0    0  0.10542573196E+04  0.10991983667E+04 -0.11336593626E+03  0.15272679467E+04  0.00000000000E+00 0.  1.
        -11    1    3    3    0    0  0.49679968533E+03  0.54667025146E+03  0.81440825518E+01  0.73873176273E+03  0.00000000000E+00 0. -1.
         22    1    1    2    0    0 -0.15510570050E+04 -0.16458686182E+04 -0.24525569788E+04  0.33361200631E+04  0.00000000000E+00 0.  1.
<mgrwt>
<rscale>  0 0.49841261E+04</rscale>
<asrwt>0</asrwt>
<pdfrwt beam="1">  1        2 0.62768450E+00 0.49841261E+04</pdfrwt>
<pdfrwt beam="2">  1       -2 0.23418008E+00 0.49841261E+04</pdfrwt>
<totfact> 0.17170371E-02</totfact>
</mgrwt>
</event>
<event>
 6    1  0.4630212E-004  0.6263583E+03  0.7818608E-02  0.9852181E-01
          2   -1    0    0  501    0  0.00000000000E+00  0.00000000000E+00  0.11153922796E+04  0.11153922796E+04  0.00000000000E+00 0.  1.
         -2   -1    0    0    0  501 -0.00000000000E+00 -0.00000000000E+00 -0.87934233032E+02  0.87934233032E+02  0.00000000000E+00 0. -1.
         23    2    1    2    0    0 -0.11278510267E+03 -0.28477886747E+03  0.49825081453E+03  0.59186941914E+03  0.90752699086E+02 0.  0.
         13    1    3    3    0    0 -0.11593485995E+03 -0.18491184718E+03  0.31631431393E+03  0.38430200127E+03  0.00000000000E+00 0. -1.
        -13    1    3    3    0    0  0.31497572813E+01 -0.99867020286E+02  0.18193650060E+03  0.20756741787E+03  0.00000000000E+00 0.  1.
         22    1    1    2    0    0  0.11278510267E+03  0.28477886747E+03  0.52920723202E+03  0.61145709348E+03  0.00000000000E+00 0. -1.
<mgrwt>
<rscale>  0 0.62635825E+03</rscale>
<asrwt>0</asrwt>
<pdfrwt beam="1">  1        2 0.17159880E+00 0.62635825E+03</pdfrwt>
<pdfrwt beam="2">  1       -2 0.13528344E-01 0.62635825E+03</pdfrwt>
<totfact> 0.89730190E+02</totfact>
</mgrwt>
</event>
<event>
 6    1  0.4630212E-004  0.3485338E+04  0.7818608E-02  0.8117273E-01
          2   -1    0    0  501    0  0.00000000000E+00  0.00000000000E+00  0.18609945175E+04  0.18609945175E+04  0.00000000000E+00 0. -1.
         -2   -1    0    0    0  501 -0.00000000000E+00 -0.00000000000E+00 -0.16318667550E+04  0.16318667550E+04  0.00000000000E+00 0.  1.
         23    2    1    2    0    0 -0.25582150369E+03 -0.93140177488E+03 -0.13376126739E+04  0.16523098597E+04  0.89254125756E+02 0.  0.
         11    1    3    3    0    0 -0.67845307746E+02 -0.34344291205E+03 -0.54378702323E+03  0.64673050512E+03  0.00000000000E+00 0.  1.
        -11    1    3    3    0    0 -0.18797619595E+03 -0.58795886283E+03 -0.79382565069E+03  0.10055793546E+04  0.00000000000E+00 0. -1.
         22    1    1    2    0    0  0.25582150369E+03  0.93140177488E+03  0.15667404365E+04  0.18405514128E+04  0.00000000000E+00 0. -1.
<mgrwt>
<rscale>  0 0.34853379E+04</rscale>
<asrwt>0</asrwt>
<pdfrwt beam="1">  1        2 0.28630685E+00 0.34853379E+04</pdfrwt>
<pdfrwt beam="2">  1       -2 0.25105642E+00 0.34853379E+04</pdfrwt>
<totfact> 0.41572533E-01</totfact>
</mgrwt>
</event>
<event>
 6    1  0.4630212E-004  0.7316942E+03  0.7818608E-02  0.9664515E-01
         -2   -1    0    0    0  501 -0.00000000000E+00  0.00000000000E+00  0.14053280757E+03  0.14053280757E+03  0.00000000000E+00 0. -1.
          2   -1    0    0  501    0  0.00000000000E+00 -0.00000000000E+00 -0.95240476529E+03  0.95240476529E+03  0.00000000000E+00 0.  1.
         23    2    1    2    0    0 -0.12891265523E+03  0.29039203467E+03 -0.66733933392E+03  0.74388788325E+03  0.84150993925E+02 0.  0.
         13    1    3    3    0    0 -0.78394854098E+02  0.80899632804E+02 -0.24940119460E+03  0.27366304026E+03  0.00000000000E+00 0. -1.
        -13    1    3    3    0    0 -0.50517801131E+02  0.20949240186E+03 -0.41793813931E+03  0.47022484299E+03  0.00000000000E+00 0.  1.
         22    1    1    2    0    0  0.12891265523E+03 -0.29039203467E+03 -0.14453262380E+03  0.34904968961E+03  0.00000000000E+00 0. -1.
<mgrwt>
<rscale>  0 0.73169424E+03</rscale>
<asrwt>0</asrwt>
<pdfrwt beam="1">  1        2 0.14652381E+00 0.73169424E+03</pdfrwt>
<pdfrwt beam="2">  1       -2 0.21620432E-01 0.73169424E+03</pdfrwt>
<totfact> 0.50616000E+02</totfact>
</mgrwt>
</event>
<event>
 6    1  0.4630212E-004  0.5484633E+04  0.7818608E-02  0.7757807E-01
          2   -1    0    0  501    0  0.00000000000E+00  0.00000000000E+00  0.32544473931E+04  0.32544473931E+04  0.00000000000E+00 0.  1.
         -2   -1    0    0    0  501 -0.00000000000E+00 -0.00000000000E+00 -0.23107765424E+04  0.23107765424E+04  0.00000000000E+00 0. -1.
         23    2    1    2    0    0 -0.27345210582E+04  0.16115916615E+03  0.58602347565E+03  0.28027088967E+04  0.90420965773E+02 0.  0.
         11    1    3    3    0    0 -0.39835673862E+03  0.31362811181E+02  0.11734098891E+03  0.41646203286E+03  0.00000000000E+00 0.  1.
        -11    1    3    3    0    0 -0.23361643196E+04  0.12979635497E+03  0.46868248674E+03  0.23862468639E+04  0.00000000000E+00 0. -1.
         22    1    1    2    0    0  0.27345210582E+04 -0.16115916615E+03  0.35764737499E+03  0.27625150388E+04  0.00000000000E+00 0. -1.
<mgrwt>
<rscale>  0 0.54846333E+04</rscale>
<asrwt>0</asrwt>
<pdfrwt beam="1">  1        2 0.50068421E+00 0.54846333E+04</pdfrwt>
<pdfrwt beam="2">  1       -2 0.35550408E+00 0.54846333E+04</pdfrwt>
<totfact> 0.12004780E-02</totfact>
</mgrwt>
</event>
<event>
 6    1  0.4630212E-004  0.1463040E+04  0.7818608E-02  0.8909410E-01
          2   -1    0    0  501    0  0.00000000000E+00  0.00000000000E+00  0.10705427789E+04  0.10705427789E+04  0.00000000000E+00 0.  1.
         -2   -1    0    0    0  501 -0.00000000000E+00 -0.00000000000E+00 -0.49985992721E+03  0.49985992721E+03  0.00000000000E+00 0. -1.
         23    2    1    2    0    0 -0.10076421552E+03 -0.71048607973E+03  0.15137746761E+03  0.73928243698E+03  0.93163766082E+02 0.  0.
         13    1    3    3    0    0 -0.21345939379E+02 -0.46563953740E+03  0.10294848761E+03  0.47736172764E+03  0.00000000000E+00 0. -1.
        -13    1    3    3    0    0 -0.79418276144E+02 -0.24484654233E+03  0.48428980000E+02  0.26192070934E+03  0.00000000000E+00 0.  1.
         22    1    1    2    0    0  0.10076421552E+03  0.71048607973E+03  0.41930538406E+03  0.83112026911E+03  0.00000000000E+00 0.  1.
<mgrwt>
<rscale>  0 0.14630399E+04</rscale>
<asrwt>0</asrwt>
<pdfrwt beam="1">  1        2 0.16469889E+00 0.14630399E+04</pdfrwt>
<pdfrwt beam="2">  1       -2 0.76901527E-01 0.14630399E+04</pdfrwt>
<totfact> 0.33256850E+01</totfact>
</mgrwt>
</event>
<event>
 6    1  0.4630212E-004  0.1499765E+04  0.7818608E-02  0.8884609E-01
          2   -1    0    0  501    0  0.00000000000E+00  0.00000000000E+00  0.17823475574E+04  0.17823475574E+04  0.00000000000E+00 0. -1.
         -2   -1    0    0    0  501 -0.00000000000E+00 -0.00000000000E+00 -0.31549596683E+03  0.31549596683E+03  0.00000000000E+00 0.  1.
         23    2    1    2    0    0 -0.65223117761E+03  0.36428704777E+03  0.76271954215E+03  0.10712411164E+04  0.87783069114E+02 0.  0.
         11    1    3    3    0    0 -0.21816027353E+03  0.98802245053E+02  0.19469073023E+03  0.30864262345E+03  0.00000000000E+00 0. -1.
        -11    1    3    3    0    0 -0.43407090408E+03  0.26548480272E+03  0.56802881192E+03  0.76259849293E+03  0.00000000000E+00 0.  1.
         22    1    1    2    0    0  0.65223117761E+03 -0.36428704777E+03  0.70413204846E+03  0.10266024079E+04  0.00000000000E+00 0.  1.
<mgrwt>
<rscale>  0 0.14997646E+04</rscale>
<asrwt>0</asrwt>
<pdfrwt beam="1">  1        2 0.27420731E+00 0.14997646E+04</pdfrwt>
<pdfrwt beam="2">  1       -2 0.48537842E-01 0.14997646E+04</pdfrwt>
<totfact> 0.34280244E+01</totfact>
</mgrwt>
</event>
<event>
 6    1  0.4630212E-004  0.1177790E+04  0.7818608E-02  0.9132522E-01
          2   -1    0    0  501    0  0.00000000000E+00  0.00000000000E+00  0.22096457136E+04  0.22096457136E+04  0.00000000000E+00 0.  1.
         -2   -1    0    0    0  501 -0.00000000000E+00 -0.00000000000E+00 -0.15694698194E+03  0.15694698194E+03  0.00000000000E+00 0. -1.
         23    2    1    2    0    0  0.40113245604E+01  0.55706368441E+03  0.67258433129E+03  0.87828768738E+03  0.93185513369E+02 0.  0.
         13    1    3    3    0    0  0.43076674314E+02  0.23797502785E+03  0.25729367115E+03  0.35311152200E+03  0.00000000000E+00 0.  1.
        -13    1    3    3    0    0 -0.39065349754E+02  0.31908865656E+03  0.41529066013E+03  0.52517616539E+03  0.00000000000E+00 0. -1.
         22    1    1    2    0    0 -0.40113245604E+01 -0.55706368441E+03  0.13801144004E+04  0.14883050082E+04  0.00000000000E+00 0.  1.
<mgrwt>
<rscale>  0 0.11777898E+04</rscale>
<asrwt>0</asrwt>
<pdfrwt beam="1">  1        2 0.33994547E+00 0.11777898E+04</pdfrwt>
<pdfrwt beam="2">  1       -2 0.24145691E-01 0.11777898E+04</pdfrwt>
<totfact> 0.77249880E+01</totfact>
</mgrwt>
</event>
<event>
 6    1  0.4630212E-004  0.3727505E+04  0.7818608E-02  0.8061894E-01
          2   -1    0    0  501    0  0.00000000000E+00  0.00000000000E+00  0.26104515104E+04  0.26104515104E+04  0.00000000000E+00 0.  1.
         -2   -1    0    0    0  501 -0.00000000000E+00 -0.00000000000E+00 -0.13306407032E+04  0.13306407032E+04  0.00000000000E+00 0. -1.
         23    2    1    2    0    0 -0.53947537634E+03 -0.99518773236E+03  0.22042302919E+04  0.24795917217E+04  0.91168099030E+02 0.  0.
         11    1    3    3    0    0 -0.27104158779E+03 -0.52811549516E+03  0.12502375218E+04  0.13840026660E+04  0.00000000000E+00 0. -1.
        -11    1    3    3    0    0 -0.26843378854E+03 -0.46707223720E+03  0.95399277007E+03  0.10955890557E+04  0.00000000000E+00 0.  1.
         22    1    1    2    0    0  0.53947537634E+03  0.99518773236E+03 -0.92441948469E+03  0.14615004920E+04  0.00000000000E+00 0. -1.
<mgrwt>
<rscale>  0 0.37275048E+04</rscale>
<asrwt>0</asrwt>
<pdfrwt beam="1">  1        2 0.40160792E+00 0.37275048E+04</pdfrwt>
<pdfrwt beam="2">  1       -2 0.20471395E+00 0.37275048E+04</pdfrwt>
<totfact> 0.29978473E-01</totfact>
</mgrwt>
</event>
<event>
 6    1  0.4630212E-004  0.2676633E+04  0.7818608E-02  0.8342627E-01
         -2   -1    0    0    0  501 -0.00000000000E+00  0.00000000000E+00  0.12868987226E+04  0.12868987226E+04  0.00000000000E+00 0. -1.
          2   -1    0    0  501    0  0.00000000000E+00 -0.00000000000E+00 -0.13917884345E+04  0.13917884345E+04  0.00000000000E+00 0.  1.
         23    2    1    2    0    0  0.10913360175E+03  0.90609728402E+03  0.92516179995E+03  0.13024863911E+04  0.87315587231E+02 0.  0.
         11    1    3    3    0    0  0.85995442434E+02  0.55502801624E+03  0.51406345169E+03  0.76138856525E+03  0.00000000000E+00 0.  1.
        -11    1    3    3    0    0  0.23138159313E+02  0.35106926778E+03  0.41109834826E+03  0.54109782585E+03  0.00000000000E+00 0. -1.
         22    1    1    2    0    0 -0.10913360175E+03 -0.90609728402E+03 -0.10300515119E+04  0.13762007660E+04  0.00000000000E+00 0.  1.
<mgrwt>
<rscale>  0 0.26766328E+04</rscale>
<asrwt>0</asrwt>
<pdfrwt beam="1">  1        2 0.21412130E+00 0.26766328E+04</pdfrwt>
<pdfrwt beam="2">  1       -2 0.19798442E+00 0.26766328E+04</pdfrwt>
<totfact> 0.17633612E+00</totfact>
</mgrwt>
</event>
<event>
 6    1  0.4630212E-004  0.2255200E+04  0.7818608E-02  0.8495798E-01
          2   -1    0    0  501    0  0.00000000000E+00  0.00000000000E+00  0.15407769942E+04  0.15407769942E+04  0.00000000000E+00 0. -1.
         -2   -1    0    0    0  501 -0.00000000000E+00 -0.00000000000E+00 -0.82522098256E+03  0.82522098256E+03  0.00000000000E+00 0.  1.
         23    2    1    2    0    0 -0.51394437587E+03 -0.22630731651E+02 -0.69217537627E+03  0.86721225757E+03  0.91100914619E+02 0.  0.
         11    1    3    3    0    0 -0.39176482582E+03  0.82268585118E+01 -0.56995734604E+03  0.69166374508E+03  0.00000000000E+00 0.  1.
        -11    1    3    3    0    0 -0.12217955006E+03 -0.30857590163E+02 -0.12221803023E+03  0.17554851249E+03  0.00000000000E+00 0. -1.
         22    1    1    2    0    0  0.51394437587E+03  0.22630731651E+02  0.14077313879E+04  0.14987857192E+04  0.00000000000E+00 0. -1.
<mgrwt>
<rscale>  0 0.22551998E+04</rscale>
<asrwt>0</asrwt>
<pdfrwt beam="1">  1        2 0.23704261E+00 0.22551998E+04</pdfrwt>
<pdfrwt beam="2">  1       -2 0.12695707E+00 0.22551998E+04</pdfrwt>
<totfact> 0.50520437E+00</totfact>
</mgrwt>
</event>
<event>
 6    1  0.4630212E-004  0.3036454E+04  0.7818608E-02  0.8233397E-01
         -2   -1    0    0    0  501 -0.00000000000E+00  0.00000000000E+00  0.12913941983E+04  0.12913941983E+04  0.00000000000E+00 0. -1.
          2   -1    0    0  501    0  0.00000000000E+00 -0.00000000000E+00 -0.17849029473E+04  0.17849029473E+04  0.00000000000E+00 0.  1.
         23    2    1    2    0    0 -0.12351495259E+04 -0.87569279022E+03 -0.15335582747E+03  0.15244800739E+04  0.89940379236E+02 0.  0.
         13    1    3    3    0    0 -0.69702365704E+03 -0.52660929315E+03 -0.12428659232E+03  0.88238681038E+03  0.00000000000E+00 0. -1.
        -13    1    3    3    0    0 -0.53812586882E+03 -0.34908349707E+03 -0.29069235146E+02  0.64209326351E+03  0.00000000000E+00 0.  1.
         22    1    1    2    0    0  0.12351495259E+04  0.87569279022E+03 -0.34015292153E+03  0.15518170717E+04  0.00000000000E+00 0.  1.
<mgrwt>
<rscale>  0 0.30364541E+04</rscale>
<asrwt>0</asrwt>
<pdfrwt beam="1">  1        2 0.27460045E+00 0.30364541E+04</pdfrwt>
<pdfrwt beam="2">  1       -2 0.19867603E+00 0.30364541E+04</pdfrwt>
<totfact> 0.10188990E+00</totfact>
</mgrwt>
</event>
<event>
 6    1  0.4630212E-004  0.7807941E+03  0.7818608E-02  0.9588241E-01
         -2   -1    0    0    0  501 -0.00000000000E+00  0.00000000000E+00  0.20711835222E+03  0.20711835222E+03  0.00000000000E+00 0. -1.
          2   -1    0    0  501    0  0.00000000000E+00 -0.00000000000E+00 -0.73585879370E+03  0.73585879370E+03  0.00000000000E+00 0.  1.
         23    2    1    2    0    0 -0.58462630301E+01 -0.15292907901E+03  0.15875720967E+03  0.23865158034E+03  0.91264687481E+02 0.  0.
         13    1    3    3    0    0 -0.47543762683E+02 -0.67275533587E+02  0.64365693337E+02  0.10454352810E+03  0.00000000000E+00 0. -1.
        -13    1    3    3    0    0  0.41697499652E+02 -0.85653545418E+02  0.94391516329E+02  0.13410805224E+03  0.00000000000E+00 0.  1.
         22    1    1    2    0    0  0.58462630301E+01  0.15292907901E+03 -0.68749765115E+03  0.70432556558E+03  0.00000000000E+00 0.  1.
<mgrwt>
<rscale>  0 0.78079411E+03</rscale>
<asrwt>0</asrwt>
<pdfrwt beam="1">  1        2 0.11320904E+00 0.78079411E+03</pdfrwt>
<pdfrwt beam="2">  1       -2 0.31864362E-01 0.78079411E+03</pdfrwt>
<totfact> 0.35375157E+02</totfact>
</mgrwt>
</event>
<event>
 6    1  0.4630212E-004  0.1812500E+04  0.7818608E-02  0.8699680E-01
         -2   -1    0    0    0  501 -0.00000000000E+00  0.00000000000E+00  0.56379282712E+03  0.56379282712E+03  0.00000000000E+00 0. -1.
          2   -1    0    0  501    0  0.00000000000E+00 -0.00000000000E+00 -0.14567208961E+04  0.14567208961E+04  0.00000000000E+00 0.  1.
         23    2    1    2    0    0  0.88328280188E+03  0.15162317256E+03 -0.31118757202E+03  0.95205684514E+03  0.79977727150E+02 0.  0.
         11    1    3    3    0    0  0.38702057516E+03  0.57340698796E+02 -0.17685922610E+03  0.42936239611E+03  0.00000000000E+00 0. -1.
        -11    1    3    3    0    0  0.49626222672E+03  0.94282473760E+02 -0.13432834592E+03  0.52269444903E+03  0.00000000000E+00 0.  1.
         22    1    1    2    0    0 -0.88328280188E+03 -0.15162317256E+03 -0.58174049700E+03  0.10684568781E+04  0.00000000000E+00 0. -1.
<mgrwt>
<rscale>  0 0.18124997E+04</rscale>
<asrwt>0</asrwt>
<pdfrwt beam="1">  1        2 0.22411090E+00 0.18124997E+04</pdfrwt>
<pdfrwt beam="2">  1       -2 0.86737360E-01 0.18124997E+04</pdfrwt>
<totfact> 0.14574344E+01</totfact>
</mgrwt>
</event>
<event>
 6    1  0.4630212E-004  0.9362824E+03  0.7818608E-02  0.9381330E-01
         -2   -1    0    0    0  501 -0.00000000000E+00  0.00000000000E+00  0.62243699361E+03  0.62243699361E+03  0.00000000000E+00 0. -1.
          2   -1    0    0  501    0  0.00000000000E+00 -0.00000000000E+00 -0.35209375688E+03  0.35209375688E+03  0.00000000000E+00 0.  1.
         23    2    1    2    0    0 -0.13011593221E+03 -0.42245525791E+03  0.28259076218E+03  0.53232197329E+03  0.90058556650E+02 0.  0.
         13    1    3    3    0    0 -0.23261028594E+02 -0.19257502088E+03  0.89335990535E+02  0.21355826681E+03  0.00000000000E+00 0. -1.
        -13    1    3    3    0    0 -0.10685490362E+03 -0.22988023702E+03  0.19325477164E+03  0.31876370647E+03  0.00000000000E+00 0.  1.
         22    1    1    2    0    0  0.13011593221E+03  0.42245525791E+03 -0.12247525453E+02  0.44220877720E+03  0.00000000000E+00 0.  1.
<mgrwt>
<rscale>  0 0.93628239E+03</rscale>
<asrwt>0</asrwt>
<pdfrwt beam="1">  1        2 0.54168270E-01 0.93628239E+03</pdfrwt>
<pdfrwt beam="2">  1       -2 0.95759537E-01 0.93628239E+03</pdfrwt>
<totfact> 0.84131910E+01</totfact>
</mgrwt>
</event>
<event>
 6    1  0.5899189E-004  0.4086246E+04  0.7818608E-02  0.7987370E-01
          2   -1    0    0  501    0  0.00000000000E+00  0.00000000000E+00  0.27028132654E+04  0.27028132654E+04  0.00000000000E+00 0. -1.
         -2   -1    0    0    0  501 -0.00000000000E+00 -0.00000000000E+00 -0.15444470152E+04  0.15444470152E+04  0.00000000000E+00 0.  1.
         23    2    1    2    0    0  0.88994554155E+03  0.39482625702E+03 -0.12863113373E+04  0.16158463361E+04  0.92041757271E+02 0.  0.
         13    1    3    3    0    0  0.49524604181E+03  0.26862938083E+03 -0.72739166335E+03  0.92007011586E+03  0.00000000000E+00 0.  1.
        -13    1    3    3    0    0  0.39469949973E+03  0.12619687619E+03 -0.55891967399E+03  0.69577622022E+03  0.00000000000E+00 0. -1.
         22    1    1    2    0    0 -0.88994554155E+03 -0.39482625702E+03  0.24446775875E+04  0.26314139445E+04  0.00000000000E+00 0. -1.
<mgrwt>
<rscale>  0 0.40862461E+04</rscale>
<asrwt>0</asrwt>
<pdfrwt beam="1">  1        2 0.41581743E+00 0.40862461E+04</pdfrwt>
<pdfrwt beam="2">  1       -2 0.23760723E+00 0.40862461E+04</pdfrwt>
<totfact> 0.15882338E-01</totfact>
</mgrwt>
</event>
<event>
 6    1  0.4630212E-004  0.1352209E+04  0.7818608E-02  0.8989157E-01
          2   -1    0    0  501    0  0.00000000000E+00  0.00000000000E+00  0.14623591495E+04  0.14623591495E+04  0.00000000000E+00 0.  1.
         -2   -1    0    0    0  501 -0.00000000000E+00 -0.00000000000E+00 -0.31258915161E+03  0.31258915161E+03  0.00000000000E+00 0. -1.
         23    2    1    2    0    0 -0.13978718722E+03  0.21886221711E+03  0.13925408188E+04  0.14194503416E+04  0.90709494070E+02 0.  0.
         13    1    3    3    0    0 -0.51523983645E+02  0.59683176047E+02  0.65745426019E+03  0.66216531669E+03  0.00000000000E+00 0.  1.
        -13    1    3    3    0    0 -0.88263203572E+02  0.15917904107E+03  0.73508655862E+03  0.75728502487E+03  0.00000000000E+00 0. -1.
         22    1    1    2    0    0  0.13978718722E+03 -0.21886221711E+03 -0.24277082089E+03  0.35549795958E+03  0.00000000000E+00 0. -1.
<mgrwt>
<rscale>  0 0.13522095E+04</rscale>
<asrwt>0</asrwt>
<pdfrwt beam="1">  1        2 0.22497833E+00 0.13522095E+04</pdfrwt>
<pdfrwt beam="2">  1       -2 0.48090639E-01 0.13522095E+04</pdfrwt>
<totfact> 0.53324126E+01</totfact>
</mgrwt>
</event>
<event>
 6    1  0.4630212E-004  0.1127856E+04  0.7818608E-02  0.9178459E-01
         -2   -1    0    0    0  501 -0.00000000000E+00  0.00000000000E+00  0.11719385442E+03  0.11719385442E+03  0.00000000000E+00 0. -1.
          2   -1    0    0  501    0  0.00000000000E+00 -0.00000000000E+00 -0.27135803509E+04  0.27135803509E+04  0.00000000000E+00 0.  1.
         23    2    1    2    0    0  0.33041337014E+03 -0.40674052207E+03 -0.18034939339E+04  0.18803587892E+04  0.92455172474E+02 0.  0.
         11    1    3    3    0    0  0.10490221736E+03 -0.82239570805E+02 -0.55692543283E+03  0.57265500953E+03  0.00000000000E+00 0.  1.
        -11    1    3    3    0    0  0.22551115278E+03 -0.32450095126E+03 -0.12465685011E+04  0.13077037797E+04  0.00000000000E+00 0. -1.
         22    1    1    2    0    0 -0.33041337014E+03  0.40674052207E+03 -0.79289256252E+03  0.95041541610E+03  0.00000000000E+00 0.  1.
<mgrwt>
<rscale>  0 0.11278563E+04</rscale>
<asrwt>0</asrwt>
<pdfrwt beam="1">  1        2 0.41747391E+00 0.11278563E+04</pdfrwt>
<pdfrwt beam="2">  1       -2 0.18029824E-01 0.11278563E+04</pdfrwt>
<totfact> 0.66965210E+01</totfact>
</mgrwt>
</event>
<event>
 6    1  0.4630212E-004  0.5677777E+03  0.7818608E-02  0.9974608E-01
         -2   -1    0    0    0  501 -0.00000000000E+00  0.00000000000E+00  0.46806299805E+02  0.46806299805E+02  0.00000000000E+00 0. -1.
          2   -1    0    0  501    0  0.00000000000E+00 -0.00000000000E+00 -0.17218380121E+04  0.17218380121E+04  0.00000000000E+00 0.  1.
         23    2    1    2    0    0 -0.16022962903E+03 -0.18477499077E+03 -0.46432974797E+03  0.53348659824E+03  0.95867118508E+02 0.  0.
         11    1    3    3    0    0 -0.84453207175E+02 -0.35061375436E+02 -0.12434253295E+03  0.15434607138E+03  0.00000000000E+00 0. -1.
        -11    1    3    3    0    0 -0.75776421850E+02 -0.14971361533E+03 -0.33998721503E+03  0.37914052686E+03  0.00000000000E+00 0.  1.
         22    1    1    2    0    0  0.16022962903E+03  0.18477499077E+03 -0.12107019643E+04  0.12351577137E+04  0.00000000000E+00 0.  1.
<mgrwt>
<rscale>  0 0.56777765E+03</rscale>
<asrwt>0</asrwt>
<pdfrwt beam="1">  1        2 0.26489816E+00 0.56777765E+03</pdfrwt>
<pdfrwt beam="2">  1       -2 0.72009692E-02 0.56777765E+03</pdfrwt>
<totfact> 0.11383174E+03</totfact>
</mgrwt>
</event>
<event>
 6    1  0.4630212E-004  0.3642788E+04  0.7818608E-02  0.8080760E-01
          2   -1    0    0  501    0  0.00000000000E+00  0.00000000000E+00  0.17537423931E+04  0.17537423931E+04  0.00000000000E+00 0.  1.
         -2   -1    0    0    0  501 -0.00000000000E+00 -0.00000000000E+00 -0.18916552767E+04  0.18916552767E+04  0.00000000000E+00 0. -1.
         23    2    1    2    0    0  0.31857922615E+03  0.48116218831E+03  0.16586789316E+04  0.17584021942E+04  0.88049437800E+02 0.  0.
         13    1    3    3    0    0  0.23730950135E+02  0.23041280460E+02  0.16947243563E+03  0.17267010465E+03  0.00000000000E+00 0.  1.
        -13    1    3    3    0    0  0.29484827601E+03  0.45812090784E+03  0.14892064960E+04  0.15857320895E+04  0.00000000000E+00 0. -1.
         22    1    1    2    0    0 -0.31857922615E+03 -0.48116218831E+03 -0.17965918152E+04  0.18869954757E+04  0.00000000000E+00 0. -1.
<mgrwt>
<rscale>  0 0.36427880E+04</rscale>
<asrwt>0</asrwt>
<pdfrwt beam="1">  1        2 0.26980652E+00 0.36427880E+04</pdfrwt>
<pdfrwt beam="2">  1       -2 0.29102389E+00 0.36427880E+04</pdfrwt>
<totfact> 0.26815907E-01</totfact>
</mgrwt>
</event>
<event>
 6    1  0.4630212E-004  0.1667429E+04  0.7818608E-02  0.8780162E-01
          1   -1    0    0  501    0  0.00000000000E+00  0.00000000000E+00  0.77396801021E+03  0.77396801021E+03  0.00000000000E+00 0.  1.
         -1   -1    0    0    0  501 -0.00000000000E+00 -0.00000000000E+00 -0.89807289829E+03  0.89807289829E+03  0.00000000000E+00 0. -1.
         23    2    1    2    0    0  0.11665841948E+03 -0.38846699744E+03 -0.78969346774E+03  0.89260267983E+03  0.92779179341E+02 0.  0.
         13    1    3    3    0    0  0.78505811317E+02 -0.31656038305E+03 -0.54963381533E+03  0.63911733624E+03  0.00000000000E+00 0. -1.
        -13    1    3    3    0    0  0.38152608162E+02 -0.71906614396E+02 -0.24005965240E+03  0.25348534359E+03  0.00000000000E+00 0.  1.
         22    1    1    2    0    0 -0.11665841948E+03  0.38846699744E+03  0.66558857966E+03  0.77943822867E+03  0.00000000000E+00 0.  1.
<mgrwt>
<rscale>  0 0.16674288E+04</rscale>
<asrwt>0</asrwt>
<pdfrwt beam="1">  1        1 0.11907200E+00 0.16674288E+04</pdfrwt>
<pdfrwt beam="2">  1       -1 0.13816506E+00 0.16674288E+04</pdfrwt>
<totfact> 0.96511797E+00</totfact>
</mgrwt>
</event>
<event>
 6    1  0.4630212E-004  0.4226846E+04  0.7818608E-02  0.7960285E-01
         -2   -1    0    0    0  501 -0.00000000000E+00  0.00000000000E+00  0.19006445666E+04  0.19006445666E+04  0.00000000000E+00 0. -1.
          2   -1    0    0  501    0  0.00000000000E+00 -0.00000000000E+00 -0.23500220970E+04  0.23500220970E+04  0.00000000000E+00 0.  1.
         23    2    1    2    0    0  0.13662892612E+04  0.16077321318E+04 -0.32872996298E+03  0.21373505992E+04  0.93033556487E+02 0.  0.
         11    1    3    3    0    0  0.26090509285E+03  0.27178056029E+03 -0.31099624382E+02  0.37802556403E+03  0.00000000000E+00 0. -1.
        -11    1    3    3    0    0  0.11053841683E+04  0.13359515715E+04 -0.29763033860E+03  0.17593250352E+04  0.00000000000E+00 0.  1.
         22    1    1    2    0    0 -0.13662892612E+04 -0.16077321318E+04 -0.12064756741E+03  0.21133160645E+04  0.00000000000E+00 0.  1.
<mgrwt>
<rscale>  0 0.42268460E+04</rscale>
<asrwt>0</asrwt>
<pdfrwt beam="1">  1        2 0.36154186E+00 0.42268460E+04</pdfrwt>
<pdfrwt beam="2">  1       -2 0.29240686E+00 0.42268460E+04</pdfrwt>
<totfact> 0.11633648E-01</totfact>
</mgrwt>
</event>
<event>
 6    1  0.4630212E-004  0.2866529E+04  0.7818608E-02  0.8282906E-01
         -2   -1    0    0    0  501 -0.00000000000E+00  0.00000000000E+00  0.73269807506E+03  0.73269807506E+03  0.00000000000E+00 0. -1.
          2   -1    0    0  501    0  0.00000000000E+00 -0.00000000000E+00 -0.28036751525E+04  0.28036751525E+04  0.00000000000E+00 0.  1.
         23    2    1    2    0    0 -0.13348378133E+04 -0.35670026146E+03 -0.15000785449E+04  0.20413975760E+04  0.89673620609E+02 0.  0.
         13    1    3    3    0    0 -0.87378239173E+03 -0.22546457606E+03 -0.10406311572E+04  0.13774044970E+04  0.00000000000E+00 0. -1.
        -13    1    3    3    0    0 -0.46105542155E+03 -0.13123568540E+03 -0.45944738773E+03  0.66399307900E+03  0.00000000000E+00 0.  1.
         22    1    1    2    0    0  0.13348378133E+04  0.35670026146E+03 -0.57089853257E+03  0.14949756516E+04  0.00000000000E+00 0. -1.
<mgrwt>
<rscale>  0 0.28665292E+04</rscale>
<asrwt>0</asrwt>
<pdfrwt beam="1">  1        2 0.43133464E+00 0.28665292E+04</pdfrwt>
<pdfrwt beam="2">  1       -2 0.11272278E+00 0.28665292E+04</pdfrwt>
<totfact> 0.12321811E+00</totfact>
</mgrwt>
</event>
<event>
 6    1  0.4630212E-004  0.8047523E+03  0.7818608E-02  0.9553164E-01
         -2   -1    0    0    0  501 -0.00000000000E+00  0.00000000000E+00  0.65479588221E+02  0.65479588221E+02  0.00000000000E+00 0. -1.
          2   -1    0    0  501    0  0.00000000000E+00 -0.00000000000E+00 -0.24726262302E+04  0.24726262302E+04  0.00000000000E+00 0.  1.
         23    2    1    2    0    0 -0.21395027750E+03  0.27543633780E+03 -0.18228303243E+04  0.18576166881E+04  0.79934167510E+02 0.  0.
         13    1    3    3    0    0 -0.18853620997E+03  0.27199392498E+03 -0.16465022845E+04  0.16794333481E+04  0.00000000000E+00 0. -1.
        -13    1    3    3    0    0 -0.25414067531E+02  0.34424128209E+01 -0.17632803979E+03  0.17818333999E+03  0.00000000000E+00 0.  1.
         22    1    1    2    0    0  0.21395027750E+03 -0.27543633780E+03 -0.58431631761E+03  0.68048913030E+03  0.00000000000E+00 0. -1.
<mgrwt>
<rscale>  0 0.80475225E+03</rscale>
<asrwt>0</asrwt>
<pdfrwt beam="1">  1        2 0.38040404E+00 0.80475225E+03</pdfrwt>
<pdfrwt beam="2">  1       -2 0.10073783E-01 0.80475225E+03</pdfrwt>
<totfact> 0.25266609E+02</totfact>
</mgrwt>
</event>
<event>
 6    1  0.4984011E-004  0.1313276E+04  0.7818608E-02  0.9019103E-01
         -2   -1    0    0    0  501 -0.00000000000E+00  0.00000000000E+00  0.42765891050E+03  0.42765891050E+03  0.00000000000E+00 0. -1.
          2   -1    0    0  501    0  0.00000000000E+00 -0.00000000000E+00 -0.10082173921E+04  0.10082173921E+04  0.00000000000E+00 0.  1.
         23    2    1    2    0    0 -0.60113416950E+03  0.21256400268E+03 -0.44706412347E+03  0.78444212432E+03  0.94537669401E+02 0.  0.
         11    1    3    3    0    0 -0.28270199163E+03  0.55875498907E+02 -0.17372467497E+03  0.33648588402E+03  0.00000000000E+00 0. -1.
        -11    1    3    3    0    0 -0.31843217786E+03  0.15668850377E+03 -0.27333944850E+03  0.44795624030E+03  0.00000000000E+00 0.  1.
         22    1    1    2    0    0  0.60113416950E+03 -0.21256400268E+03 -0.13349435811E+03  0.65143417827E+03  0.00000000000E+00 0.  1.
<mgrwt>
<rscale>  0 0.13132755E+04</rscale>
<asrwt>0</asrwt>
<pdfrwt beam="1">  1        2 0.15511037E+00 0.13132755E+04</pdfrwt>
<pdfrwt beam="2">  1       -2 0.65793679E-01 0.13132755E+04</pdfrwt>
<totfact> 0.51836876E+01</totfact>
</mgrwt>
</event>
<event>
 6    1  0.4630212E-004  0.2137303E+04  0.7818608E-02  0.8544987E-01
          2   -1    0    0  501    0  0.00000000000E+00  0.00000000000E+00  0.95882936323E+03  0.95882936323E+03  0.00000000000E+00 0.  1.
         -2   -1    0    0    0  501 -0.00000000000E+00 -0.00000000000E+00 -0.11910522068E+04  0.11910522068E+04  0.00000000000E+00 0. -1.
         23    2    1    2    0    0 -0.26912871304E+02 -0.78935524531E+03  0.60484308451E+03  0.99901868771E+03  0.91636104060E+02 0.  0.
         13    1    3    3    0    0  0.23483315340E+02 -0.30122644047E+03  0.19443125833E+03  0.35929423702E+03  0.00000000000E+00 0. -1.
        -13    1    3    3    0    0 -0.50396186644E+02 -0.48812880484E+03  0.41041182618E+03  0.63972445069E+03  0.00000000000E+00 0.  1.
         22    1    1    2    0    0  0.26912871304E+02  0.78935524531E+03 -0.83706592806E+03  0.11508628823E+04  0.00000000000E+00 0. -1.
<mgrwt>
<rscale>  0 0.21373028E+04</rscale>
<asrwt>0</asrwt>
<pdfrwt beam="1">  1        2 0.14751221E+00 0.21373028E+04</pdfrwt>
<pdfrwt beam="2">  1       -2 0.18323880E+00 0.21373028E+04</pdfrwt>
<totfact> 0.42385326E+00</totfact>
</mgrwt>
</event>
<event>
 6    1  0.6243850E-004  0.5664092E+04  0.7818608E-02  0.7733505E-01
          2   -1    0    0  501    0  0.00000000000E+00  0.00000000000E+00  0.23963956557E+04  0.23963956557E+04  0.00000000000E+00 0.  1.
         -2   -1    0    0    0  501 -0.00000000000E+00 -0.00000000000E+00 -0.33468952679E+04  0.33468952679E+04  0.00000000000E+00 0. -1.
         23    2    1    2    0    0 -0.28141947729E+04  0.29298711111E+02 -0.78861327357E+03  0.29242914875E+04  0.94969332872E+02 0.  0.
         11    1    3    3    0    0 -0.79853574425E+03 -0.34184260826E+02 -0.21844266226E+03  0.82858016825E+03  0.00000000000E+00 0. -1.
        -11    1    3    3    0    0 -0.20156590287E+04  0.63482971937E+02 -0.57017061131E+03  0.20957113192E+04  0.00000000000E+00 0.  1.
         22    1    1    2    0    0  0.28141947729E+04 -0.29298711111E+02 -0.16188633865E+03  0.28189994362E+04  0.00000000000E+00 0.  1.
<mgrwt>
<rscale>  0 0.56640923E+04</rscale>
<asrwt>0</asrwt>
<pdfrwt beam="1">  1        2 0.36867626E+00 0.56640923E+04</pdfrwt>
<pdfrwt beam="2">  1       -2 0.51490696E+00 0.56640923E+04</pdfrwt>
<totfact> 0.37388710E-03</totfact>
</mgrwt>
</event>
<event>
 6    1  0.4630212E-004  0.2165205E+04  0.7818608E-02  0.8533052E-01
         -1   -1    0    0    0  501 -0.00000000000E+00  0.00000000000E+00  0.49538131605E+03  0.49538131605E+03  0.00000000000E+00 0. -1.
          1   -1    0    0  501    0  0.00000000000E+00 -0.00000000000E+00 -0.23659104053E+04  0.23659104053E+04  0.00000000000E+00 0.  1.
         23    2    1    2    0    0  0.57442611890E+03  0.86335343943E+03 -0.53549803814E+03  0.11708324835E+04  0.93520201702E+02 0.  0.
         13    1    3    3    0    0  0.22621575434E+03  0.26199967217E+03 -0.16850733905E+03  0.38498327113E+03  0.00000000000E+00 0.  1.
        -13    1    3    3    0    0  0.34821036455E+03  0.60135376726E+03 -0.36699069908E+03  0.78584921237E+03  0.00000000000E+00 0. -1.
         22    1    1    2    0    0 -0.57442611890E+03 -0.86335343943E+03 -0.13350310511E+04  0.16904592379E+04  0.00000000000E+00 0.  1.
<mgrwt>
<rscale>  0 0.21652047E+04</rscale>
<asrwt>0</asrwt>
<pdfrwt beam="1">  1        1 0.36398622E+00 0.21652047E+04</pdfrwt>
<pdfrwt beam="2">  1       -1 0.76212509E-01 0.21652047E+04</pdfrwt>
<totfact> 0.26509840E+00</totfact>
</mgrwt>
</event>
<event>
 6    1  0.4630212E-004  0.5029045E+03  0.7818608E-02  0.1013024E+00
         -2   -1    0    0    0  501 -0.00000000000E+00  0.00000000000E+00  0.27522650322E+03  0.27522650322E+03  0.00000000000E+00 0. -1.
          2   -1    0    0  501    0  0.00000000000E+00 -0.00000000000E+00 -0.22973160723E+03  0.22973160723E+03  0.00000000000E+00 0.  1.
         23    2    1    2    0    0 -0.10636975970E+02 -0.18585711378E+03  0.18483264570E+03  0.27242634811E+03  0.73464251362E+02 0.  0.
         11    1    3    3    0    0 -0.13961797100E+02 -0.38675332363E+02  0.72453728193E+01  0.41751748933E+02  0.00000000000E+00 0.  1.
        -11    1    3    3    0    0  0.33248211303E+01 -0.14718178141E+03  0.17758727288E+03  0.23067459918E+03  0.00000000000E+00 0. -1.
         22    1    1    2    0    0  0.10636975970E+02  0.18585711378E+03 -0.13933774971E+03  0.23253176233E+03  0.00000000000E+00 0.  1.
<mgrwt>
<rscale>  0 0.50290447E+03</rscale>
<asrwt>0</asrwt>
<pdfrwt beam="1">  1        2 0.35343324E-01 0.50290447E+03</pdfrwt>
<pdfrwt beam="2">  1       -2 0.42342539E-01 0.50290447E+03</pdfrwt>
<totfact> 0.78547145E+02</totfact>
</mgrwt>
</event>
<event>
 6    1  0.4630212E-004  0.2934752E+04  0.7818608E-02  0.8262612E-01
         -2   -1    0    0    0  501 -0.00000000000E+00  0.00000000000E+00  0.17123050545E+04  0.17123050545E+04  0.00000000000E+00 0. -1.
          2   -1    0    0  501    0  0.00000000000E+00 -0.00000000000E+00 -0.12574813544E+04  0.12574813544E+04  0.00000000000E+00 0.  1.
         23    2    1    2    0    0  0.76878065596E+03  0.58201526249E+03 -0.88975096983E+03  0.13152029249E+04  0.91304340572E+02 0.  0.
         13    1    3    3    0    0  0.35204650468E+02  0.80625057150E+01 -0.45549548355E+02  0.58130308517E+02  0.00000000000E+00 0. -1.
        -13    1    3    3    0    0  0.73357600549E+03  0.57395275678E+03 -0.84420142148E+03  0.12570726164E+04  0.00000000000E+00 0.  1.
         22    1    1    2    0    0 -0.76878065596E+03 -0.58201526249E+03  0.13445746698E+04  0.16545834840E+04  0.00000000000E+00 0. -1.
<mgrwt>
<rscale>  0 0.29347516E+04</rscale>
<asrwt>0</asrwt>
<pdfrwt beam="1">  1        2 0.19345867E+00 0.29347516E+04</pdfrwt>
<pdfrwt beam="2">  1       -2 0.26343155E+00 0.29347516E+04</pdfrwt>
<totfact> 0.80102428E-01</totfact>
</mgrwt>
</event>
<event>
 6    1  0.4630212E-004  0.4301506E+04  0.7818608E-02  0.7946340E-01
          2   -1    0    0  501    0  0.00000000000E+00  0.00000000000E+00  0.16641822181E+04  0.16641822181E+04  0.00000000000E+00 0.  1.
         -2   -1    0    0    0  501 -0.00000000000E+00 -0.00000000000E+00 -0.27795865574E+04  0.27795865574E+04  0.00000000000E+00 0. -1.
         23    2    1    2    0    0  0.77253480167E+03  0.15946656005E+04  0.69959634081E+03  0.19072365234E+04  0.91365850187E+02 0.  0.
         11    1    3    3    0    0  0.16918132263E+03  0.43896010477E+03  0.19599759907E+03  0.50963060382E+03  0.00000000000E+00 0. -1.
        -11    1    3    3    0    0  0.60335347904E+03  0.11557054958E+04  0.50359874173E+03  0.13976059195E+04  0.00000000000E+00 0.  1.
         22    1    1    2    0    0 -0.77253480167E+03 -0.15946656005E+04 -0.18150006801E+04  0.25365322522E+04  0.00000000000E+00 0. -1.
<mgrwt>
<rscale>  0 0.43015060E+04</rscale>
<asrwt>0</asrwt>
<pdfrwt beam="1">  1        2 0.25602804E+00 0.43015060E+04</pdfrwt>
<pdfrwt beam="2">  1       -2 0.42762870E+00 0.43015060E+04</pdfrwt>
<totfact> 0.38602150E-02</totfact>
</mgrwt>
</event>
<event>
 6    1  0.4630212E-004  0.3385448E+04  0.7818608E-02  0.8141487E-01
          2   -1    0    0  501    0  0.00000000000E+00  0.00000000000E+00  0.29920761232E+04  0.29920761232E+04  0.00000000000E+00 0. -1.
         -2   -1    0    0    0  501 -0.00000000000E+00 -0.00000000000E+00 -0.95763447260E+03  0.95763447260E+03  0.00000000000E+00 0.  1.
         23    2    1    2    0    0  0.33578849354E+03  0.14994832472E+04  0.18429729603E+04  0.24012067436E+04  0.89669238818E+02 0.  0.
         13    1    3    3    0    0  0.47036983098E+02  0.16645813168E+03  0.16784221969E+03  0.24102240164E+03  0.00000000000E+00 0.  1.
        -13    1    3    3    0    0  0.28875151044E+03  0.13330251155E+04  0.16751307406E+04  0.21601843420E+04  0.00000000000E+00 0. -1.
         22    1    1    2    0    0 -0.33578849354E+03 -0.14994832472E+04  0.19146869035E+03  0.15485038522E+04  0.00000000000E+00 0.  1.
<mgrwt>
<rscale>  0 0.33854484E+04</rscale>
<asrwt>0</asrwt>
<pdfrwt beam="1">  1        2 0.46031940E+00 0.33854484E+04</pdfrwt>
<pdfrwt beam="2">  1       -2 0.14732838E+00 0.33854484E+04</pdfrwt>
<totfact> 0.45866222E-01</totfact>
</mgrwt>
</event>
<event>
 6    1  0.4630212E-004  0.2861344E+04  0.7818608E-02  0.8284473E-01
          2   -1    0    0  501    0  0.00000000000E+00  0.00000000000E+00  0.14960803168E+04  0.14960803168E+04  0.00000000000E+00 0.  1.
         -2   -1    0    0    0  501 -0.00000000000E+00 -0.00000000000E+00 -0.13681229100E+04  0.13681229100E+04  0.00000000000E+00 0. -1.
         23    2    1    2    0    0  0.22472666712E+03 -0.27441303052E+03  0.14498918035E+04  0.14955121969E+04  0.92552163696E+02 0.  0.
         13    1    3    3    0    0  0.22214387709E+03 -0.23303440939E+03  0.12118688630E+04  0.12539055304E+04  0.00000000000E+00 0. -1.
        -13    1    3    3    0    0  0.25827900369E+01 -0.41378621135E+02  0.23802294049E+03  0.24160666649E+03  0.00000000000E+00 0.  1.
         22    1    1    2    0    0 -0.22472666712E+03  0.27441303052E+03 -0.13219343967E+04  0.13686910299E+04  0.00000000000E+00 0. -1.
<mgrwt>
<rscale>  0 0.28613436E+04</rscale>
<asrwt>0</asrwt>
<pdfrwt beam="1">  1        2 0.23016620E+00 0.28613436E+04</pdfrwt>
<pdfrwt beam="2">  1       -2 0.21048045E+00 0.28613436E+04</pdfrwt>
<totfact> 0.12560608E+00</totfact>
</mgrwt>
</event>
<event>
 6    1  0.4630212E-004  0.2290746E+04  0.7818608E-02  0.8481579E-01
          2   -1    0    0  501    0  0.00000000000E+00  0.00000000000E+00  0.30225556457E+04  0.30225556457E+04  0.00000000000E+00 0.  1.
         -2   -1    0    0    0  501 -0.00000000000E+00 -0.00000000000E+00 -0.43402997276E+03  0.43402997276E+03  0.00000000000E+00 0. -1.
         23    2    1    2    0    0 -0.62929598631E+03  0.93906675843E+03  0.15558329431E+04  0.19254703095E+04  0.94657015647E+02 0.  0.
         13    1    3    3    0    0 -0.28082071295E+03  0.35971415829E+03  0.57211554478E+03  0.73182699122E+03  0.00000000000E+00 0. -1.
        -13    1    3    3    0    0 -0.34847527336E+03  0.57935260015E+03  0.98371739831E+03  0.11936433182E+04  0.00000000000E+00 0.  1.
         22    1    1    2    0    0  0.62929598631E+03 -0.93906675843E+03  0.10326927298E+04  0.15311153090E+04  0.00000000000E+00 0.  1.
<mgrwt>
<rscale>  0 0.22907464E+04</rscale>
<asrwt>0</asrwt>
<pdfrwt beam="1">  1        2 0.46500855E+00 0.22907464E+04</pdfrwt>
<pdfrwt beam="2">  1       -2 0.66773844E-01 0.22907464E+04</pdfrwt>
<totfact> 0.31524155E+00</totfact>
</mgrwt>
</event>
<event>
 6    1  0.4630212E-004  0.3398180E+04  0.7818608E-02  0.8138353E-01
         -2   -1    0    0    0  501 -0.00000000000E+00  0.00000000000E+00  0.68698958779E+03  0.68698958779E+03  0.00000000000E+00 0. -1.
          2   -1    0    0  501    0  0.00000000000E+00 -0.00000000000E+00 -0.42022576641E+04  0.42022576641E+04  0.00000000000E+00 0.  1.
         23    2    1    2    0    0  0.52457668763E+03  0.12262791862E+04 -0.24720418270E+03  0.13594904676E+04  0.90349762735E+02 0.  0.
         13    1    3    3    0    0  0.36668883284E+03  0.82506519040E+03 -0.20814477359E+03  0.92656220262E+03  0.00000000000E+00 0. -1.
        -13    1    3    3    0    0  0.15788785480E+03  0.40121399583E+03 -0.39059409109E+02  0.43292826494E+03  0.00000000000E+00 0.  1.
         22    1    1    2    0    0 -0.52457668763E+03 -0.12262791862E+04 -0.32680638936E+04  0.35297567843E+04  0.00000000000E+00 0.  1.
<mgrwt>
<rscale>  0 0.33981803E+04</rscale>
<asrwt>0</asrwt>
<pdfrwt beam="1">  1        2 0.64650119E+00 0.33981803E+04</pdfrwt>
<pdfrwt beam="2">  1       -2 0.10569070E+00 0.33981803E+04</pdfrwt>
<totfact> 0.13837024E-01</totfact>
</mgrwt>
</event>
<event>
 6    1  0.4630212E-004  0.1498447E+04  0.7818608E-02  0.8885486E-01
          2   -1    0    0  501    0  0.00000000000E+00  0.00000000000E+00  0.25337679645E+04  0.25337679645E+04  0.00000000000E+00 0.  1.
         -2   -1    0    0    0  501 -0.00000000000E+00 -0.00000000000E+00 -0.22154188179E+03  0.22154188179E+03  0.00000000000E+00 0. -1.
         23    2    1    2    0    0 -0.26018218166E+03  0.54570785472E+03  0.35557921808E+03  0.70739412947E+03  0.92076292933E+02 0.  0.
         13    1    3    3    0    0 -0.23197406791E+03  0.41297786405E+03  0.30049419104E+03  0.56094513388E+03  0.00000000000E+00 0.  1.
        -13    1    3    3    0    0 -0.28208113753E+02  0.13272999067E+03  0.55085027042E+02  0.14644899559E+03  0.00000000000E+00 0. -1.
         22    1    1    2    0    0  0.26018218166E+03 -0.54570785472E+03  0.19566468646E+04  0.20479157168E+04  0.00000000000E+00 0.  1.
<mgrwt>
<rscale>  0 0.14984468E+04</rscale>
<asrwt>0</asrwt>
<pdfrwt beam="1">  1        2 0.38981044E+00 0.14984468E+04</pdfrwt>
<pdfrwt beam="2">  1       -2 0.34083368E-01 0.14984468E+04</pdfrwt>
<totfact> 0.25991501E+01</totfact>
</mgrwt>
</event>
<event>
 6    1  0.4630212E-004  0.2186540E+04  0.7818608E-02  0.8524051E-01
          2   -1    0    0  501    0  0.00000000000E+00  0.00000000000E+00  0.93259796380E+03  0.93259796380E+03  0.00000000000E+00 0.  1.
         -2   -1    0    0    0  501 -0.00000000000E+00 -0.00000000000E+00 -0.12816237897E+04  0.12816237897E+04  0.00000000000E+00 0. -1.
         23    2    1    2    0    0  0.22773071441E+03  0.10180077972E+04  0.14967360917E+03  0.10579768487E+04  0.93336324799E+02 0.  0.
         11    1    3    3    0    0  0.18823614326E+03  0.63543763319E+03  0.95253894301E+02  0.66954248236E+03  0.00000000000E+00 0. -1.
        -11    1    3    3    0    0  0.39494571155E+02  0.38257016402E+03  0.54419714867E+02  0.38843436629E+03  0.00000000000E+00 0.  1.
         22    1    1    2    0    0 -0.22773071441E+03 -0.10180077972E+04 -0.49869943510E+03  0.11562449049E+04  0.00000000000E+00 0. -1.
<mgrwt>
<rscale>  0 0.21865404E+04</rscale>
<asrwt>0</asrwt>
<pdfrwt beam="1">  1        2 0.14347661E+00 0.21865404E+04</pdfrwt>
<pdfrwt beam="2">  1       -2 0.19717289E+00 0.21865404E+04</pdfrwt>
<totfact> 0.35407826E+00</totfact>
</mgrwt>
</event>
<event>
 6    1  0.4630212E-004  0.3267351E+04  0.7818608E-02  0.8171253E-01
         -2   -1    0    0    0  501 -0.00000000000E+00  0.00000000000E+00  0.14126730921E+04  0.14126730921E+04  0.00000000000E+00 0. -1.
          2   -1    0    0  501    0  0.00000000000E+00 -0.00000000000E+00 -0.18892519902E+04  0.18892519902E+04  0.00000000000E+00 0.  1.
         23    2    1    2    0    0 -0.10601951483E+04  0.91201818207E+03  0.61243117519E+03  0.15294313992E+04  0.91090853217E+02 0.  0.
         11    1    3    3    0    0 -0.75341748284E+03  0.69885727484E+03  0.43613692522E+03  0.11163578331E+04  0.00000000000E+00 0.  1.
        -11    1    3    3    0    0 -0.30677766546E+03  0.21316090723E+03  0.17629424997E+03  0.41307356605E+03  0.00000000000E+00 0. -1.
         22    1    1    2    0    0  0.10601951483E+04 -0.91201818207E+03 -0.10890100732E+04  0.17724936831E+04  0.00000000000E+00 0.  1.
<mgrwt>
<rscale>  0 0.32673509E+04</rscale>
<asrwt>0</asrwt>
<pdfrwt beam="1">  1        2 0.29065415E+00 0.32673509E+04</pdfrwt>
<pdfrwt beam="2">  1       -2 0.21733432E+00 0.32673509E+04</pdfrwt>
<totfact> 0.66258035E-01</totfact>
</mgrwt>
</event>
<event>
 6    1  0.6932119E-004  0.4134152E+04  0.7818608E-02  0.7978017E-01
         -2   -1    0    0    0  501 -0.00000000000E+00  0.00000000000E+00  0.15122762759E+04  0.15122762759E+04  0.00000000000E+00 0. -1.
          2   -1    0    0  501    0  0.00000000000E+00 -0.00000000000E+00 -0.28254117195E+04  0.28254117195E+04  0.00000000000E+00 0.  1.
         23    2    1    2    0    0 -0.28554952191E+03  0.19903995546E+04 -0.11541277402E+04  0.23206326252E+04  0.10047897286E+03 0.  0.
         13    1    3    3    0    0 -0.18229846839E+03  0.95683975565E+03 -0.53187979441E+03  0.11098068144E+04  0.00000000000E+00 0. -1.
        -13    1    3    3    0    0 -0.10325105352E+03  0.10335597990E+04 -0.62224794575E+03  0.12108258108E+04  0.00000000000E+00 0.  1.
         22    1    1    2    0    0  0.28554952191E+03 -0.19903995546E+04 -0.15900770352E+03  0.20170553702E+04  0.00000000000E+00 0.  1.
<mgrwt>
<rscale>  0 0.41341520E+04</rscale>
<asrwt>0</asrwt>
<pdfrwt beam="1">  1        2 0.43467872E+00 0.41341520E+04</pdfrwt>
<pdfrwt beam="2">  1       -2 0.23265789E+00 0.41341520E+04</pdfrwt>
<totfact> 0.14327477E-01</totfact>
</mgrwt>
</event>
<event>
 6    1  0.4630212E-004  0.3973345E+04  0.7818608E-02  0.8009945E-01
          2   -1    0    0  501    0  0.00000000000E+00  0.00000000000E+00  0.19827330638E+04  0.19827330638E+04  0.00000000000E+00 0.  1.
         -2   -1    0    0    0  501 -0.00000000000E+00 -0.00000000000E+00 -0.19906201218E+04  0.19906201218E+04  0.00000000000E+00 0. -1.
         23    2    1    2    0    0  0.16889568450E+04 -0.63583529626E+03  0.82424055625E+03  0.19860690806E+04  0.90753237403E+02 0.  0.
         13    1    3    3    0    0  0.54425586269E+03 -0.23575554534E+03  0.30538223817E+03  0.66712325145E+03  0.00000000000E+00 0. -1.
        -13    1    3    3    0    0  0.11447009823E+04 -0.40007975092E+03  0.51885831808E+03  0.13189458291E+04  0.00000000000E+00 0.  1.
         22    1    1    2    0    0 -0.16889568450E+04  0.63583529626E+03 -0.83212761426E+03  0.19872841051E+04  0.00000000000E+00 0. -1.
<mgrwt>
<rscale>  0 0.39733454E+04</rscale>
<asrwt>0</asrwt>
<pdfrwt beam="1">  1        2 0.30503586E+00 0.39733454E+04</pdfrwt>
<pdfrwt beam="2">  1       -2 0.30624925E+00 0.39733454E+04</pdfrwt>
<totfact> 0.15714124E-01</totfact>
</mgrwt>
</event>
<event>
 6    1  0.4630212E-004  0.3803871E+04  0.7818608E-02  0.8045325E-01
         -2   -1    0    0    0  501 -0.00000000000E+00  0.00000000000E+00  0.10109753546E+04  0.10109753546E+04  0.00000000000E+00 0. -1.
          2   -1    0    0  501    0  0.00000000000E+00 -0.00000000000E+00 -0.35780886161E+04  0.35780886161E+04  0.00000000000E+00 0.  1.
         23    2    1    2    0    0  0.97039689949E+03  0.10413750543E+04 -0.28041209080E+04  0.31460446463E+04  0.91491551786E+02 0.  0.
         11    1    3    3    0    0  0.42795629764E+03  0.46003012625E+03 -0.13386379279E+04  0.14787581992E+04  0.00000000000E+00 0. -1.
        -11    1    3    3    0    0  0.54244060185E+03  0.58134492801E+03 -0.14654829800E+04  0.16672864471E+04  0.00000000000E+00 0.  1.
         22    1    1    2    0    0 -0.97039689949E+03 -0.10413750543E+04  0.23700764649E+03  0.14430193244E+04  0.00000000000E+00 0. -1.
<mgrwt>
<rscale>  0 0.38038714E+04</rscale>
<asrwt>0</asrwt>
<pdfrwt beam="1">  1        2 0.55047516E+00 0.38038714E+04</pdfrwt>
<pdfrwt beam="2">  1       -2 0.15553467E+00 0.38038714E+04</pdfrwt>
<totfact> 0.15575201E-01</totfact>
</mgrwt>
</event>
<event>
 6    1  0.4630212E-004  0.3022195E+04  0.7818608E-02  0.8237421E-01
         -2   -1    0    0    0  501 -0.00000000000E+00  0.00000000000E+00  0.80922656458E+03  0.80922656458E+03  0.00000000000E+00 0. -1.
          2   -1    0    0  501    0  0.00000000000E+00 -0.00000000000E+00 -0.28217251817E+04  0.28217251817E+04  0.00000000000E+00 0.  1.
         23    2    1    2    0    0  0.99386979793E+03  0.57190919304E+03 -0.21870111252E+04  0.24710759272E+04  0.91330584597E+02 0.  0.
         13    1    3    3    0    0  0.29680681439E+03  0.13163131263E+03 -0.66869909363E+03  0.74335695689E+03  0.00000000000E+00 0.  1.
        -13    1    3    3    0    0  0.69706298355E+03  0.44027788041E+03 -0.15183120316E+04  0.17277189703E+04  0.00000000000E+00 0. -1.
         22    1    1    2    0    0 -0.99386979793E+03 -0.57190919304E+03  0.17451250808E+03  0.11598758191E+04  0.00000000000E+00 0. -1.
<mgrwt>
<rscale>  0 0.30221946E+04</rscale>
<asrwt>0</asrwt>
<pdfrwt beam="1">  1        2 0.43411156E+00 0.30221946E+04</pdfrwt>
<pdfrwt beam="2">  1       -2 0.12449640E+00 0.30221946E+04</pdfrwt>
<totfact> 0.92799277E-01</totfact>
</mgrwt>
</event>
<event>
 6    1  0.4630212E-004  0.1795274E+04  0.7818608E-02  0.8708817E-01
         -2   -1    0    0    0  501 -0.00000000000E+00  0.00000000000E+00  0.31374847671E+03  0.31374847671E+03  0.00000000000E+00 0. -1.
          2   -1    0    0  501    0  0.00000000000E+00 -0.00000000000E+00 -0.25681478838E+04  0.25681478838E+04  0.00000000000E+00 0.  1.
         23    2    1    2    0    0 -0.82427648560E+03  0.32766776435E+03 -0.13258466393E+04  0.15977592452E+04  0.90373701691E+02 0.  0.
         11    1    3    3    0    0 -0.43159430464E+03  0.12421813000E+03 -0.68644052338E+03  0.82030749098E+03  0.00000000000E+00 0.  1.
        -11    1    3    3    0    0 -0.39268218095E+03  0.20344963435E+03 -0.63940611596E+03  0.77745175418E+03  0.00000000000E+00 0. -1.
         22    1    1    2    0    0  0.82427648560E+03 -0.32766776435E+03 -0.92855276776E+03  0.12841371153E+04  0.00000000000E+00 0. -1.
<mgrwt>
<rscale>  0 0.17952743E+04</rscale>
<asrwt>0</asrwt>
<pdfrwt beam="1">  1        2 0.39509967E+00 0.17952743E+04</pdfrwt>
<pdfrwt beam="2">  1       -2 0.48268996E-01 0.17952743E+04</pdfrwt>
<totfact> 0.12216931E+01</totfact>
</mgrwt>
</event>
<event>
 6    1  0.4630212E-004  0.5274313E+03  0.7818608E-02  0.1006857E+00
         -2   -1    0    0    0  501 -0.00000000000E+00  0.00000000000E+00  0.12314700156E+03  0.12314700156E+03  0.00000000000E+00 0. -1.
          2   -1    0    0  501    0  0.00000000000E+00 -0.00000000000E+00 -0.56473929074E+03  0.56473929074E+03  0.00000000000E+00 0.  1.
         23    2    1    2    0    0 -0.20612654657E+03  0.14311829206E+03 -0.16230714451E+03  0.31242498835E+03  0.91075603036E+02 0.  0.
         11    1    3    3    0    0 -0.92612532862E+02  0.12253962335E+02 -0.49849203097E+02  0.10588760024E+03  0.00000000000E+00 0. -1.
        -11    1    3    3    0    0 -0.11351401371E+03  0.13086432972E+03 -0.11245794141E+03  0.20653738811E+03  0.00000000000E+00 0.  1.
         22    1    1    2    0    0  0.20612654657E+03 -0.14311829206E+03 -0.27928514468E+03  0.37546130394E+03  0.00000000000E+00 0.  1.
<mgrwt>
<rscale>  0 0.52743132E+03</rscale>
<asrwt>0</asrwt>
<pdfrwt beam="1">  1        2 0.86882967E-01 0.52743132E+03</pdfrwt>
<pdfrwt beam="2">  1       -2 0.18945693E-01 0.52743132E+03</pdfrwt>
<totfact> 0.12532246E+03</totfact>
</mgrwt>
</event>
<event>
 6    1  0.4630212E-004  0.1440553E+04  0.7818608E-02  0.8924977E-01
          2   -1    0    0  501    0  0.00000000000E+00  0.00000000000E+00  0.71566322984E+03  0.71566322984E+03  0.00000000000E+00 0.  1.
         -2   -1    0    0    0  501 -0.00000000000E+00 -0.00000000000E+00 -0.72491907884E+03  0.72491907884E+03  0.00000000000E+00 0. -1.
         23    2    1    2    0    0 -0.68384785336E+03 -0.18458991504E+03 -0.11721541623E+03  0.72407927907E+03  0.93968214254E+02 0.  0.
         11    1    3    3    0    0 -0.29370515143E+03 -0.12185852883E+03 -0.29823040503E+02  0.31937694151E+03  0.00000000000E+00 0.  1.
        -11    1    3    3    0    0 -0.39014270193E+03 -0.62731386211E+02 -0.87392375730E+02  0.40470233756E+03  0.00000000000E+00 0. -1.
         22    1    1    2    0    0  0.68384785336E+03  0.18458991504E+03  0.10795956723E+03  0.71650302961E+03  0.00000000000E+00 0.  1.
<mgrwt>
<rscale>  0 0.14405526E+04</rscale>
<asrwt>0</asrwt>
<pdfrwt beam="1">  1        2 0.11010204E+00 0.14405526E+04</pdfrwt>
<pdfrwt beam="2">  1       -2 0.11152601E+00 0.14405526E+04</pdfrwt>
<totfact> 0.24564395E+01</totfact>
</mgrwt>
</event>
<event>
 6    1  0.4630212E-004  0.3400229E+04  0.7818608E-02  0.8137850E-01
         -2   -1    0    0    0  501 -0.00000000000E+00  0.00000000000E+00  0.14940135949E+04  0.14940135949E+04  0.00000000000E+00 0. -1.
          2   -1    0    0  501    0  0.00000000000E+00 -0.00000000000E+00 -0.19346477711E+04  0.19346477711E+04  0.00000000000E+00 0.  1.
         23    2    1    2    0    0 -0.19147537890E+02  0.59149700617E+03  0.13849898470E+04  0.15095109261E+04  0.10095059678E+03 0.  0.
         13    1    3    3    0    0 -0.47794466373E+02  0.13981300569E+03  0.34405534276E+03  0.37444100531E+03  0.00000000000E+00 0. -1.
        -13    1    3    3    0    0  0.28646928484E+02  0.45168400048E+03  0.10409345043E+04  0.11350699208E+04  0.00000000000E+00 0.  1.
         22    1    1    2    0    0  0.19147537890E+02 -0.59149700617E+03 -0.18256240233E+04  0.19191504399E+04  0.00000000000E+00 0.  1.
<mgrwt>
<rscale>  0 0.34002294E+04</rscale>
<asrwt>0</asrwt>
<pdfrwt beam="1">  1        2 0.29763812E+00 0.34002294E+04</pdfrwt>
<pdfrwt beam="2">  1       -2 0.22984825E+00 0.34002294E+04</pdfrwt>
<totfact> 0.51568975E-01</totfact>
</mgrwt>
</event>
<event>
 6    1  0.4630212E-004  0.1648009E+04  0.7818608E-02  0.8791585E-01
          2   -1    0    0  501    0  0.00000000000E+00  0.00000000000E+00  0.66249467565E+03  0.66249467565E+03  0.00000000000E+00 0.  1.
         -2   -1    0    0    0  501 -0.00000000000E+00 -0.00000000000E+00 -0.10248889552E+04  0.10248889552E+04  0.00000000000E+00 0. -1.
         23    2    1    2    0    0 -0.68436481068E+03 -0.60758290728E+02 -0.64230514821E+03  0.94549626858E+03  0.96749814000E+02 0.  0.
         11    1    3    3    0    0 -0.31014806922E+03  0.10107268070E+02 -0.32972280224E+03  0.45278152350E+03  0.00000000000E+00 0.  1.
        -11    1    3    3    0    0 -0.37421674146E+03 -0.70865558798E+02 -0.31258234597E+03  0.49271474509E+03  0.00000000000E+00 0. -1.
         22    1    1    2    0    0  0.68436481068E+03  0.60758290728E+02  0.27991086861E+03  0.74188736231E+03  0.00000000000E+00 0.  1.
<mgrwt>
<rscale>  0 0.16480091E+04</rscale>
<asrwt>0</asrwt>
<pdfrwt beam="1">  1        2 0.10192226E+00 0.16480091E+04</pdfrwt>
<pdfrwt beam="2">  1       -2 0.15767522E+00 0.16480091E+04</pdfrwt>
<totfact> 0.10988782E+01</totfact>
</mgrwt>
</event>
<event>
 6    1  0.6261230E-004  0.3225183E+04  0.7818608E-02  0.8182198E-01
         -2   -1    0    0    0  501 -0.00000000000E+00  0.00000000000E+00  0.11759176580E+04  0.11759176580E+04  0.00000000000E+00 0. -1.
          2   -1    0    0  501    0  0.00000000000E+00 -0.00000000000E+00 -0.22114229742E+04  0.22114229742E+04  0.00000000000E+00 0.  1.
         23    2    1    2    0    0 -0.23144921497E+03 -0.37036543786E+03 -0.21472018690E+04  0.21929334478E+04  0.87988314703E+02 0.  0.
         11    1    3    3    0    0 -0.10365608510E+03 -0.11292639683E+03 -0.60060239953E+03  0.61985498094E+03  0.00000000000E+00 0. -1.
        -11    1    3    3    0    0 -0.12779312987E+03 -0.25743904103E+03 -0.15465994695E+04  0.15730784669E+04  0.00000000000E+00 0.  1.
         22    1    1    2    0    0  0.23144921497E+03  0.37036543786E+03  0.11116965528E+04  0.11944071844E+04  0.00000000000E+00 0. -1.
<mgrwt>
<rscale>  0 0.32251830E+04</rscale>
<asrwt>0</asrwt>
<pdfrwt beam="1">  1        2 0.34021892E+00 0.32251830E+04</pdfrwt>
<pdfrwt beam="2">  1       -2 0.18091041E+00 0.32251830E+04</pdfrwt>
<totfact> 0.76411133E-01</totfact>
</mgrwt>
</event>
<event>
 6    1  0.4630212E-004  0.1792087E+04  0.7818608E-02  0.8710519E-01
         -2   -1    0    0    0  501 -0.00000000000E+00  0.00000000000E+00  0.68419344283E+03  0.68419344283E+03  0.00000000000E+00 0. -1.
          2   -1    0    0  501    0  0.00000000000E+00 -0.00000000000E+00 -0.11734902324E+04  0.11734902324E+04  0.00000000000E+00 0.  1.
         23    2    1    2    0    0 -0.84124016797E+02 -0.51348040100E+03  0.50802109381E+03  0.73279171023E+03  0.90328768451E+02 0.  0.
         13    1    3    3    0    0  0.10511274724E+02 -0.71931118759E+02  0.10380854301E+03  0.12673115775E+03  0.00000000000E+00 0.  1.
        -13    1    3    3    0    0 -0.94635291521E+02 -0.44154928225E+03  0.40421255080E+03  0.60606055248E+03  0.00000000000E+00 0. -1.
         22    1    1    2    0    0  0.84124016797E+02  0.51348040100E+03 -0.99731788337E+03  0.11248919650E+04  0.00000000000E+00 0.  1.
<mgrwt>
<rscale>  0 0.17920874E+04</rscale>
<asrwt>0</asrwt>
<pdfrwt beam="1">  1        2 0.18053696E+00 0.17920874E+04</pdfrwt>
<pdfrwt beam="2">  1       -2 0.10526053E+00 0.17920874E+04</pdfrwt>
<totfact> 0.13565368E+01</totfact>
</mgrwt>
</event>
<event>
 6    1  0.4630212E-004  0.5338323E+04  0.7818608E-02  0.7778336E-01
          2   -1    0    0  501    0  0.00000000000E+00  0.00000000000E+00  0.48521518276E+04  0.48521518276E+04  0.00000000000E+00 0.  1.
         -2   -1    0    0    0  501 -0.00000000000E+00 -0.00000000000E+00 -0.14683016328E+04  0.14683016328E+04  0.00000000000E+00 0. -1.
         23    2    1    2    0    0  0.18394665290E+04  0.28530026929E+02 -0.59548995436E+03  0.19364371402E+04  0.10358300317E+03 0.  0.
         11    1    3    3    0    0  0.84774405437E+03  0.24822224133E+02 -0.22171329448E+03  0.87660875508E+03  0.00000000000E+00 0.  1.
        -11    1    3    3    0    0  0.99172247460E+03  0.37078027959E+01 -0.37377665988E+03  0.10598283851E+04  0.00000000000E+00 0. -1.
         22    1    1    2    0    0 -0.18394665290E+04 -0.28530026929E+02  0.39793401491E+04  0.43840163202E+04  0.00000000000E+00 0.  1.
<mgrwt>
<rscale>  0 0.53383228E+04</rscale>
<asrwt>0</asrwt>
<pdfrwt beam="1">  1        2 0.74648489E+00 0.53383228E+04</pdfrwt>
<pdfrwt beam="2">  1       -2 0.22589256E+00 0.53383228E+04</pdfrwt>
<totfact> 0.32823201E-03</totfact>
</mgrwt>
</event>
<event>
 6    1  0.4630212E-004  0.2712118E+04  0.7818608E-02  0.8331084E-01
         -2   -1    0    0    0  501 -0.00000000000E+00  0.00000000000E+00  0.82027079853E+03  0.82027079853E+03  0.00000000000E+00 0. -1.
          2   -1    0    0  501    0  0.00000000000E+00 -0.00000000000E+00 -0.22418161789E+04  0.22418161789E+04  0.00000000000E+00 0.  1.
         23    2    1    2    0    0 -0.84079213643E+03  0.96092592253E+03 -0.20100164522E+03  0.12957243152E+04  0.90497481955E+02 0.  0.
         11    1    3    3    0    0 -0.72480922680E+03  0.86181058385E+03 -0.15725225725E+03  0.11370110686E+04  0.00000000000E+00 0.  1.
        -11    1    3    3    0    0 -0.11598290963E+03  0.99115338678E+02 -0.43749387974E+02  0.15871324657E+03  0.00000000000E+00 0. -1.
         22    1    1    2    0    0  0.84079213643E+03 -0.96092592253E+03 -0.12205437352E+04  0.17663626623E+04  0.00000000000E+00 0.  1.
<mgrwt>
<rscale>  0 0.27121182E+04</rscale>
<asrwt>0</asrwt>
<pdfrwt beam="1">  1        2 0.34489480E+00 0.27121182E+04</pdfrwt>
<pdfrwt beam="2">  1       -2 0.12619551E+00 0.27121182E+04</pdfrwt>
<totfact> 0.20065094E+00</totfact>
</mgrwt>
</event>
<event>
 6    1  0.4630212E-004  0.1701436E+04  0.7818608E-02  0.8760546E-01
          2   -1    0    0  501    0  0.00000000000E+00  0.00000000000E+00  0.98677754738E+03  0.98677754738E+03  0.00000000000E+00 0.  1.
         -2   -1    0    0    0  501 -0.00000000000E+00 -0.00000000000E+00 -0.73341851235E+03  0.73341851235E+03  0.00000000000E+00 0. -1.
         23    2    1    2    0    0 -0.46403997024E+03  0.33744481350E+03  0.75876200242E+03  0.95558226469E+03  0.90639903644E+02 0.  0.
         11    1    3    3    0    0 -0.16376555261E+03  0.10252345070E+03  0.32492199374E+03  0.37802713683E+03  0.00000000000E+00 0.  1.
        -11    1    3    3    0    0 -0.30027441763E+03  0.23492136280E+03  0.43384000868E+03  0.57755512786E+03  0.00000000000E+00 0. -1.
         22    1    1    2    0    0  0.46403997024E+03 -0.33744481350E+03 -0.50540296739E+03  0.76461379505E+03  0.00000000000E+00 0. -1.
<mgrwt>
<rscale>  0 0.17014358E+04</rscale>
<asrwt>0</asrwt>
<pdfrwt beam="1">  1        2 0.15181193E+00 0.17014358E+04</pdfrwt>
<pdfrwt beam="2">  1       -2 0.11283362E+00 0.17014358E+04</pdfrwt>
<totfact> 0.15097685E+01</totfact>
</mgrwt>
</event>
<event>
 6    1  0.4630212E-004  0.3891397E+04  0.7818608E-02  0.8026821E-01
          2   -1    0    0  501    0  0.00000000000E+00  0.00000000000E+00  0.20012651069E+04  0.20012651069E+04  0.00000000000E+00 0.  1.
         -2   -1    0    0    0  501 -0.00000000000E+00 -0.00000000000E+00 -0.18916749604E+04  0.18916749604E+04  0.00000000000E+00 0. -1.
         23    2    1    2    0    0  0.18100456987E+04 -0.11102969563E+03 -0.64764147413E+03  0.19277447203E+04  0.90372577520E+02 0.  0.
         11    1    3    3    0    0  0.76429817862E+03 -0.75776014057E+02 -0.23803076493E+03  0.80408479354E+03  0.00000000000E+00 0.  1.
        -11    1    3    3    0    0  0.10457475201E+04 -0.35253681571E+02 -0.40961070920E+03  0.11236599268E+04  0.00000000000E+00 0. -1.
         22    1    1    2    0    0 -0.18100456987E+04  0.11102969563E+03  0.75723162061E+03  0.19651953471E+04  0.00000000000E+00 0.  1.
<mgrwt>
<rscale>  0 0.38913972E+04</rscale>
<asrwt>0</asrwt>
<pdfrwt beam="1">  1        2 0.30788694E+00 0.38913972E+04</pdfrwt>
<pdfrwt beam="2">  1       -2 0.29102692E+00 0.38913972E+04</pdfrwt>
<totfact> 0.19145921E-01</totfact>
</mgrwt>
</event>
<event>
 6    1  0.4630212E-004  0.3615829E+04  0.7818608E-02  0.8086875E-01
         -2   -1    0    0    0  501 -0.00000000000E+00  0.00000000000E+00  0.15668316319E+04  0.15668316319E+04  0.00000000000E+00 0. -1.
          2   -1    0    0  501    0  0.00000000000E+00 -0.00000000000E+00 -0.20860923717E+04  0.20860923717E+04  0.00000000000E+00 0.  1.
         23    2    1    2    0    0  0.31090089289E+03  0.14965137207E+04 -0.12330848137E+04  0.19659866930E+04  0.91612432150E+02 0.  0.
         11    1    3    3    0    0  0.25134842059E+03  0.11555738151E+04 -0.99997619252E+03  0.15487024428E+04  0.00000000000E+00 0. -1.
        -11    1    3    3    0    0  0.59552472300E+02  0.34093990564E+03 -0.23310862123E+03  0.41728425025E+03  0.00000000000E+00 0.  1.
         22    1    1    2    0    0 -0.31090089289E+03 -0.14965137207E+04  0.71382407397E+03  0.16869373106E+04  0.00000000000E+00 0. -1.
<mgrwt>
<rscale>  0 0.36158294E+04</rscale>
<asrwt>0</asrwt>
<pdfrwt beam="1">  1        2 0.32093729E+00 0.36158294E+04</pdfrwt>
<pdfrwt beam="2">  1       -2 0.24105102E+00 0.36158294E+04</pdfrwt>
<totfact> 0.35534768E-01</totfact>
</mgrwt>
</event>
<event>
 6    1  0.4630212E-004  0.2218864E+04  0.7818608E-02  0.8510617E-01
          2   -1    0    0  501    0  0.00000000000E+00  0.00000000000E+00  0.20900855149E+04  0.20900855149E+04  0.00000000000E+00 0.  1.
         -2   -1    0    0    0  501 -0.00000000000E+00 -0.00000000000E+00 -0.58889417427E+03  0.58889417427E+03  0.00000000000E+00 0. -1.
         23    2    1    2    0    0 -0.71636602216E+03 -0.13223371276E+03 -0.25558773414E+03  0.77715457890E+03  0.89320306595E+02 0.  0.
         13    1    3    3    0    0 -0.41812759822E+03 -0.67098331104E+02 -0.10275523106E+03  0.43576543224E+03  0.00000000000E+00 0. -1.
        -13    1    3    3    0    0 -0.29823842394E+03 -0.65135381657E+02 -0.15283250308E+03  0.34138914666E+03  0.00000000000E+00 0.  1.
         22    1    1    2    0    0  0.71636602216E+03  0.13223371276E+03  0.17567790748E+04  0.19018251103E+04  0.00000000000E+00 0.  1.
<mgrwt>
<rscale>  0 0.22188638E+04</rscale>
<asrwt>0</asrwt>
<pdfrwt beam="1">  1        2 0.32155161E+00 0.22188638E+04</pdfrwt>
<pdfrwt beam="2">  1       -2 0.90599105E-01 0.22188638E+04</pdfrwt>
<totfact> 0.56518952E+00</totfact>
</mgrwt>
</event>
<event>
 6    1  0.4630212E-004  0.5209212E+03  0.7818608E-02  0.1008458E+00
          2   -1    0    0  501    0  0.00000000000E+00  0.00000000000E+00  0.74120797115E+03  0.74120797115E+03  0.00000000000E+00 0.  1.
         -2   -1    0    0    0  501 -0.00000000000E+00 -0.00000000000E+00 -0.91525904990E+02  0.91525904990E+02  0.00000000000E+00 0. -1.
         23    2    1    2    0    0 -0.20359709642E+03  0.14104008244E+03  0.41102974580E+03  0.48878764119E+03  0.92864545016E+02 0.  0.
         11    1    3    3    0    0 -0.16989226280E+03  0.67102381637E+02  0.29923107493E+03  0.35057858860E+03  0.00000000000E+00 0. -1.
        -11    1    3    3    0    0 -0.33704833622E+02  0.73937700803E+02  0.11179867086E+03  0.13820905258E+03  0.00000000000E+00 0.  1.
         22    1    1    2    0    0  0.20359709642E+03 -0.14104008244E+03  0.23865232036E+03  0.34394623495E+03  0.00000000000E+00 0. -1.
<mgrwt>
<rscale>  0 0.52092122E+03</rscale>
<asrwt>0</asrwt>
<pdfrwt beam="1">  1        2 0.11403199E+00 0.52092122E+03</pdfrwt>
<pdfrwt beam="2">  1       -2 0.14080909E-01 0.52092122E+03</pdfrwt>
<totfact> 0.14880051E+03</totfact>
</mgrwt>
</event>
<event>
 6    1  0.4630212E-004  0.2734663E+04  0.7818608E-02  0.8323845E-01
         -2   -1    0    0    0  501 -0.00000000000E+00  0.00000000000E+00  0.11219106308E+04  0.11219106308E+04  0.00000000000E+00 0. -1.
          2   -1    0    0  501    0  0.00000000000E+00 -0.00000000000E+00 -0.16664382866E+04  0.16664382866E+04  0.00000000000E+00 0.  1.
         23    2    1    2    0    0 -0.10265079462E+04 -0.59323461990E+03 -0.96397867449E+03  0.15307380735E+04  0.90875117018E+02 0.  0.
         13    1    3    3    0    0 -0.28466258890E+03 -0.20925529417E+03 -0.26746068851E+03  0.44312051132E+03  0.00000000000E+00 0. -1.
        -13    1    3    3    0    0 -0.74184535726E+03 -0.38397932574E+03 -0.69651798599E+03  0.10876175621E+04  0.00000000000E+00 0.  1.
         22    1    1    2    0    0  0.10265079462E+04  0.59323461990E+03  0.41945101864E+03  0.12576108440E+04  0.00000000000E+00 0.  1.
<mgrwt>
<rscale>  0 0.27346626E+04</rscale>
<asrwt>0</asrwt>
<pdfrwt beam="1">  1        2 0.25637512E+00 0.27346626E+04</pdfrwt>
<pdfrwt beam="2">  1       -2 0.17260164E+00 0.27346626E+04</pdfrwt>
<totfact> 0.18299024E+00</totfact>
</mgrwt>
</event>
<event>
 6    1  0.4630212E-004  0.4530465E+03  0.7818608E-02  0.1026817E+00
          2   -1    0    0  501    0  0.00000000000E+00  0.00000000000E+00  0.10223094095E+03  0.10223094095E+03  0.00000000000E+00 0.  1.
         -2   -1    0    0    0  501 -0.00000000000E+00 -0.00000000000E+00 -0.50192996534E+03  0.50192996534E+03  0.00000000000E+00 0. -1.
         23    2    1    2    0    0  0.14018216683E+03  0.64793193540E+02 -0.40444459054E+01  0.17943541459E+03  0.91277120026E+02 0.  0.
         11    1    3    3    0    0  0.53724078407E+02  0.72944533120E+02 -0.15269959923E+02  0.91871394834E+02  0.00000000000E+00 0. -1.
        -11    1    3    3    0    0  0.86458088427E+02 -0.81513395796E+01  0.11225514018E+02  0.87564019759E+02  0.00000000000E+00 0.  1.
         22    1    1    2    0    0 -0.14018216683E+03 -0.64793193540E+02 -0.39565457848E+03  0.42472549170E+03  0.00000000000E+00 0. -1.
<mgrwt>
<rscale>  0 0.45304646E+03</rscale>
<asrwt>0</asrwt>
<pdfrwt beam="1">  1        2 0.15727836E-01 0.45304646E+03</pdfrwt>
<pdfrwt beam="2">  1       -2 0.77219997E-01 0.45304646E+03</pdfrwt>
<totfact> 0.57057406E+02</totfact>
</mgrwt>
</event>
<event>
 6    1  0.4630212E-004  0.6777853E+04  0.7818608E-02  0.7600790E-01
          2   -1    0    0  501    0  0.00000000000E+00  0.00000000000E+00  0.32338697419E+04  0.32338697419E+04  0.00000000000E+00 0.  1.
         -2   -1    0    0    0  501 -0.00000000000E+00 -0.00000000000E+00 -0.35514173784E+04  0.35514173784E+04  0.00000000000E+00 0. -1.
         23    2    1    2    0    0 -0.21146439926E+04 -0.20268656950E+04  0.15462483620E+04  0.33134519737E+04  0.90422475121E+02 0.  0.
         13    1    3    3    0    0 -0.12810886362E+04 -0.12430113646E+04  0.99043400029E+03  0.20413781755E+04  0.00000000000E+00 0. -1.
        -13    1    3    3    0    0 -0.83355535639E+03 -0.78385433043E+03  0.55581436167E+03  0.12720737982E+04  0.00000000000E+00 0.  1.
         22    1    1    2    0    0  0.21146439926E+04  0.20268656950E+04 -0.18637959985E+04  0.34718351466E+04  0.00000000000E+00 0. -1.
<mgrwt>
<rscale>  0 0.67778525E+04</rscale>
<asrwt>0</asrwt>
<pdfrwt beam="1">  1        2 0.49751842E+00 0.67778525E+04</pdfrwt>
<pdfrwt beam="2">  1       -2 0.54637191E+00 0.67778525E+04</pdfrwt>
<totfact> 0.71176045E-04</totfact>
</mgrwt>
</event>
<event>
 6    1  0.4630212E-004  0.4630852E+04  0.7818608E-02  0.7888121E-01
         -1   -1    0    0    0  501 -0.00000000000E+00  0.00000000000E+00  0.15007587210E+04  0.15007587210E+04  0.00000000000E+00 0. -1.
          1   -1    0    0  501    0  0.00000000000E+00 -0.00000000000E+00 -0.35723251782E+04  0.35723251782E+04  0.00000000000E+00 0.  1.
         23    2    1    2    0    0  0.56573053682E+03  0.22381673123E+04 -0.12186760960E+04  0.26120138216E+04  0.89447297462E+02 0.  0.
         11    1    3    3    0    0  0.38464447103E+03  0.13951277537E+04 -0.72946316109E+03  0.16206323833E+04  0.00000000000E+00 0. -1.
        -11    1    3    3    0    0  0.18108606578E+03  0.84303955861E+03 -0.48921293493E+03  0.99138143835E+03  0.00000000000E+00 0.  1.
         22    1    1    2    0    0 -0.56573053682E+03 -0.22381673123E+04 -0.85289036123E+03  0.24610700776E+04  0.00000000000E+00 0.  1.
<mgrwt>
<rscale>  0 0.46308523E+04</rscale>
<asrwt>0</asrwt>
<pdfrwt beam="1">  1        1 0.54958848E+00 0.46308523E+04</pdfrwt>
<pdfrwt beam="2">  1       -1 0.23088596E+00 0.46308523E+04</pdfrwt>
<totfact> 0.15134618E-02</totfact>
</mgrwt>
</event>
<event>
 6    1  0.4630212E-004  0.9843861E+03  0.7818608E-02  0.9325838E-01
         -2   -1    0    0    0  501 -0.00000000000E+00  0.00000000000E+00  0.12327676185E+03  0.12327676185E+03  0.00000000000E+00 0. -1.
          2   -1    0    0  501    0  0.00000000000E+00 -0.00000000000E+00 -0.19651230501E+04  0.19651230501E+04  0.00000000000E+00 0.  1.
         23    2    1    2    0    0 -0.40817406678E+03  0.34938144913E+02 -0.36616872013E+03  0.55691327012E+03  0.90808127781E+02 0.  0.
         11    1    3    3    0    0 -0.15871885231E+03  0.56484799784E+02 -0.13102042716E+03  0.21342108382E+03  0.00000000000E+00 0. -1.
        -11    1    3    3    0    0 -0.24945521446E+03 -0.21546654871E+02 -0.23514829297E+03  0.34349218630E+03  0.00000000000E+00 0.  1.
         22    1    1    2    0    0  0.40817406678E+03 -0.34938144913E+02 -0.14756775682E+04  0.15314865419E+04  0.00000000000E+00 0. -1.
<mgrwt>
<rscale>  0 0.98438612E+03</rscale>
<asrwt>0</asrwt>
<pdfrwt beam="1">  1        2 0.30232662E+00 0.98438612E+03</pdfrwt>
<pdfrwt beam="2">  1       -2 0.18965656E-01 0.98438612E+03</pdfrwt>
<totfact> 0.16435064E+02</totfact>
</mgrwt>
</event>
<event>
 6    1  0.4630212E-004  0.3221239E+04  0.7818608E-02  0.8183230E-01
         -2   -1    0    0    0  501 -0.00000000000E+00  0.00000000000E+00  0.14176459862E+04  0.14176459862E+04  0.00000000000E+00 0. -1.
          2   -1    0    0  501    0  0.00000000000E+00 -0.00000000000E+00 -0.18298612194E+04  0.18298612194E+04  0.00000000000E+00 0.  1.
         23    2    1    2    0    0 -0.24776448660E+03 -0.15899038783E+04 -0.20430682132E+03  0.16250376401E+04  0.99118472064E+02 0.  0.
         11    1    3    3    0    0 -0.93042976285E+02 -0.63811197513E+03 -0.33401887946E+02  0.64572406983E+03  0.00000000000E+00 0. -1.
        -11    1    3    3    0    0 -0.15472151031E+03 -0.95179190316E+03 -0.17090493338E+03  0.97931357028E+03  0.00000000000E+00 0.  1.
         22    1    1    2    0    0  0.24776448660E+03  0.15899038783E+04 -0.20790841191E+03  0.16224695654E+04  0.00000000000E+00 0.  1.
<mgrwt>
<rscale>  0 0.32212391E+04</rscale>
<asrwt>0</asrwt>
<pdfrwt beam="1">  1        2 0.28151711E+00 0.32212391E+04</pdfrwt>
<pdfrwt beam="2">  1       -2 0.21809939E+00 0.32212391E+04</pdfrwt>
<totfact> 0.70953524E-01</totfact>
</mgrwt>
</event>
<event>
 6    1  0.4630212E-004  0.1597989E+04  0.7818608E-02  0.8821784E-01
         -2   -1    0    0    0  501 -0.00000000000E+00  0.00000000000E+00  0.51516843445E+03  0.51516843445E+03  0.00000000000E+00 0. -1.
          2   -1    0    0  501    0  0.00000000000E+00 -0.00000000000E+00 -0.12391916283E+04  0.12391916283E+04  0.00000000000E+00 0.  1.
         23    2    1    2    0    0 -0.17456190016E+03  0.18240329069E+03 -0.11915793122E+04  0.12229924487E+04  0.11002933622E+03 0.  0.
         11    1    3    3    0    0 -0.14408308435E+03  0.82930755093E+02 -0.61347435261E+03  0.63560068175E+03  0.00000000000E+00 0.  1.
        -11    1    3    3    0    0 -0.30478815806E+02  0.99472535600E+02 -0.57810495961E+03  0.58739176694E+03  0.00000000000E+00 0. -1.
         22    1    1    2    0    0  0.17456190016E+03 -0.18240329069E+03  0.46755611836E+03  0.53136761405E+03  0.00000000000E+00 0. -1.
<mgrwt>
<rscale>  0 0.15979893E+04</rscale>
<asrwt>0</asrwt>
<pdfrwt beam="1">  1        2 0.19064486E+00 0.15979893E+04</pdfrwt>
<pdfrwt beam="2">  1       -2 0.79256684E-01 0.15979893E+04</pdfrwt>
<totfact> 0.24304364E+01</totfact>
</mgrwt>
</event>
<event>
 6    1  0.4630212E-004  0.2725936E+03  0.7818608E-02  0.1099804E+00
         -2   -1    0    0    0  501 -0.00000000000E+00  0.00000000000E+00  0.43114098563E+02  0.43114098563E+02  0.00000000000E+00 0. -1.
          2   -1    0    0  501    0  0.00000000000E+00 -0.00000000000E+00 -0.43087570409E+03  0.43087570409E+03  0.00000000000E+00 0.  1.
         23    2    1    2    0    0  0.42859886356E+02 -0.10904259508E+03 -0.26647466926E+03  0.30535475793E+03  0.92225383894E+02 0.  0.
         13    1    3    3    0    0  0.55112356021E+02 -0.10894110251E+03 -0.17686380392E+03  0.21491007594E+03  0.00000000000E+00 0. -1.
        -13    1    3    3    0    0 -0.12252469665E+02 -0.10149256284E+00 -0.89610865341E+02  0.90444681993E+02  0.00000000000E+00 0.  1.
         22    1    1    2    0    0 -0.42859886356E+02  0.10904259508E+03 -0.12128693626E+03  0.16863504472E+03  0.00000000000E+00 0. -1.
<mgrwt>
<rscale>  0 0.27259360E+03</rscale>
<asrwt>0</asrwt>
<pdfrwt beam="1">  1        2 0.66288572E-01 0.27259360E+03</pdfrwt>
<pdfrwt beam="2">  1       -2 0.66329381E-02 0.27259360E+03</pdfrwt>
<totfact> 0.92543822E+03</totfact>
</mgrwt>
</event>
<event>
 6    1  0.4630212E-004  0.3953403E+04  0.7818608E-02  0.8014013E-01
          1   -1    0    0  501    0  0.00000000000E+00  0.00000000000E+00  0.20750969881E+04  0.20750969881E+04  0.00000000000E+00 0.  1.
         -1   -1    0    0    0  501 -0.00000000000E+00 -0.00000000000E+00 -0.18829717813E+04  0.18829717813E+04  0.00000000000E+00 0. -1.
         23    2    1    2    0    0  0.18633381775E+04  0.52312942829E+03 -0.30119443102E+03  0.19608061859E+04  0.91374234904E+02 0.  0.
         13    1    3    3    0    0  0.97259684545E+03  0.29474214433E+03 -0.11704839781E+03  0.10229945664E+04  0.00000000000E+00 0. -1.
        -13    1    3    3    0    0  0.89074133205E+03  0.22838728395E+03 -0.18414603321E+03  0.93781161948E+03  0.00000000000E+00 0.  1.
         22    1    1    2    0    0 -0.18633381775E+04 -0.52312942829E+03  0.49331963787E+03  0.19972625835E+04  0.00000000000E+00 0.  1.
<mgrwt>
<rscale>  0 0.39534031E+04</rscale>
<asrwt>0</asrwt>
<pdfrwt beam="1">  1        1 0.31924569E+00 0.39534031E+04</pdfrwt>
<pdfrwt beam="2">  1       -1 0.28968797E+00 0.39534031E+04</pdfrwt>
<totfact> 0.80188789E-02</totfact>
</mgrwt>
</event>
<event>
 6    1  0.4630212E-004  0.2264554E+04  0.7818608E-02  0.8492030E-01
          2   -1    0    0  501    0  0.00000000000E+00  0.00000000000E+00  0.24164208798E+04  0.24164208798E+04  0.00000000000E+00 0.  1.
         -2   -1    0    0    0  501 -0.00000000000E+00 -0.00000000000E+00 -0.53055776418E+03  0.53055776418E+03  0.00000000000E+00 0. -1.
         23    2    1    2    0    0 -0.30506035064E+03  0.89379665544E+03  0.13533620859E+03  0.95793899354E+03  0.86005506746E+02 0.  0.
         13    1    3    3    0    0 -0.15906203191E+03  0.37456868689E+03  0.27267296493E+02  0.40785528886E+03  0.00000000000E+00 0. -1.
        -13    1    3    3    0    0 -0.14599831872E+03  0.51922796855E+03  0.10806891210E+03  0.55008370468E+03  0.00000000000E+00 0.  1.
         22    1    1    2    0    0  0.30506035064E+03 -0.89379665544E+03  0.17505269071E+04  0.19890396505E+04  0.00000000000E+00 0.  1.
<mgrwt>
<rscale>  0 0.22645537E+04</rscale>
<asrwt>0</asrwt>
<pdfrwt beam="1">  1        2 0.37175705E+00 0.22645537E+04</pdfrwt>
<pdfrwt beam="2">  1       -2 0.81624273E-01 0.22645537E+04</pdfrwt>
<totfact> 0.46722365E+00</totfact>
</mgrwt>
</event>
<event>
 6    1  0.4630212E-004  0.1354434E+04  0.7818608E-02  0.8987478E-01
         -2   -1    0    0    0  501 -0.00000000000E+00  0.00000000000E+00  0.51334756689E+03  0.51334756689E+03  0.00000000000E+00 0. -1.
          2   -1    0    0  501    0  0.00000000000E+00 -0.00000000000E+00 -0.89339624647E+03  0.89339624647E+03  0.00000000000E+00 0.  1.
         23    2    1    2    0    0  0.58599337859E+03 -0.31341301612E+03 -0.31017743511E+03  0.73853879300E+03  0.87255653623E+02 0.  0.
         13    1    3    3    0    0  0.13050553979E+03 -0.11263886806E+03 -0.74857752475E+02  0.18794385763E+03  0.00000000000E+00 0. -1.
        -13    1    3    3    0    0  0.45548783880E+03 -0.20077414806E+03 -0.23531968263E+03  0.55059493537E+03  0.00000000000E+00 0.  1.
         22    1    1    2    0    0 -0.58599337859E+03  0.31341301612E+03 -0.69871244467E+02  0.66820502036E+03  0.00000000000E+00 0.  1.
<mgrwt>
<rscale>  0 0.13544339E+04</rscale>
<asrwt>0</asrwt>
<pdfrwt beam="1">  1        2 0.13744558E+00 0.13544339E+04</pdfrwt>
<pdfrwt beam="2">  1       -2 0.78976550E-01 0.13544339E+04</pdfrwt>
<totfact> 0.41176656E+01</totfact>
</mgrwt>
</event>
<event>
 6    1  0.4630212E-004  0.2675369E+04  0.7818608E-02  0.8343041E-01
          2   -1    0    0  501    0  0.00000000000E+00  0.00000000000E+00  0.97499420431E+03  0.97499420431E+03  0.00000000000E+00 0.  1.
         -2   -1    0    0    0  501 -0.00000000000E+00 -0.00000000000E+00 -0.18352929045E+04  0.18352929045E+04  0.00000000000E+00 0. -1.
         23    2    1    2    0    0 -0.15732366994E+03  0.11729045096E+04 -0.10822324466E+04  0.16062479428E+04  0.91376470540E+02 0.  0.
         13    1    3    3    0    0 -0.87861393357E+02  0.34916872727E+03 -0.34259712220E+03  0.49700222604E+03  0.00000000000E+00 0.  1.
        -13    1    3    3    0    0 -0.69462276583E+02  0.82373578231E+03 -0.73963532443E+03  0.11092457167E+04  0.00000000000E+00 0. -1.
         22    1    1    2    0    0  0.15732366994E+03 -0.11729045096E+04  0.22193374639E+03  0.12040391661E+04  0.00000000000E+00 0.  1.
<mgrwt>
<rscale>  0 0.26753691E+04</rscale>
<asrwt>0</asrwt>
<pdfrwt beam="1">  1        2 0.14999911E+00 0.26753691E+04</pdfrwt>
<pdfrwt beam="2">  1       -2 0.28235275E+00 0.26753691E+04</pdfrwt>
<totfact> 0.93641108E-01</totfact>
</mgrwt>
</event>
<event>
 6    1  0.4630212E-004  0.2450752E+04  0.7818608E-02  0.8420743E-01
          2   -1    0    0  501    0  0.00000000000E+00  0.00000000000E+00  0.86824211734E+03  0.86824211734E+03  0.00000000000E+00 0.  1.
         -2   -1    0    0    0  501 -0.00000000000E+00 -0.00000000000E+00 -0.17294100594E+04  0.17294100594E+04  0.00000000000E+00 0. -1.
         23    2    1    2    0    0  0.99725386600E+03  0.53955407678E+03  0.56871063363E+02  0.11387383717E+04  0.88639079136E+02 0.  0.
         11    1    3    3    0    0  0.55744351558E+03  0.32093972258E+03 -0.83157904829E+01  0.64328433135E+03  0.00000000000E+00 0.  1.
        -11    1    3    3    0    0  0.43981035042E+03  0.21861435420E+03  0.65186853846E+02  0.49545404036E+03  0.00000000000E+00 0. -1.
         22    1    1    2    0    0 -0.99725386600E+03 -0.53955407678E+03 -0.91803900545E+03  0.14589138050E+04  0.00000000000E+00 0. -1.
<mgrwt>
<rscale>  0 0.24507523E+04</rscale>
<asrwt>0</asrwt>
<pdfrwt beam="1">  1        2 0.13357571E+00 0.24507523E+04</pdfrwt>
<pdfrwt beam="2">  1       -2 0.26606309E+00 0.24507523E+04</pdfrwt>
<totfact> 0.14140315E+00</totfact>
</mgrwt>
</event>
<event>
 6    1  0.4630212E-004  0.1551739E+04  0.7818608E-02  0.8850758E-01
          2   -1    0    0  501    0  0.00000000000E+00  0.00000000000E+00  0.58377590277E+03  0.58377590277E+03  0.00000000000E+00 0.  1.
         -2   -1    0    0    0  501 -0.00000000000E+00 -0.00000000000E+00 -0.10311719863E+04  0.10311719863E+04  0.00000000000E+00 0. -1.
         23    2    1    2    0    0  0.75020749911E+03  0.13732461686E+03 -0.92272436097E+02  0.77364999472E+03  0.91382546200E+02 0.  0.
         11    1    3    3    0    0  0.35009954316E+03  0.41243755246E+02 -0.26990052636E+01  0.35253088106E+03  0.00000000000E+00 0.  1.
        -11    1    3    3    0    0  0.40010795595E+03  0.96080861610E+02 -0.89573430833E+02  0.42111911366E+03  0.00000000000E+00 0. -1.
         22    1    1    2    0    0 -0.75020749911E+03 -0.13732461686E+03 -0.35512364747E+03  0.84129789439E+03  0.00000000000E+00 0.  1.
<mgrwt>
<rscale>  0 0.15517388E+04</rscale>
<asrwt>0</asrwt>
<pdfrwt beam="1">  1        2 0.89811678E-01 0.15517388E+04</pdfrwt>
<pdfrwt beam="2">  1       -2 0.15864184E+00 0.15517388E+04</pdfrwt>
<totfact> 0.12709540E+01</totfact>
</mgrwt>
</event>
<event>
 6    1  0.4630212E-004  0.3005758E+04  0.7818608E-02  0.8242089E-01
         -2   -1    0    0    0  501 -0.00000000000E+00  0.00000000000E+00  0.70705773915E+03  0.70705773915E+03  0.00000000000E+00 0. -1.
          2   -1    0    0  501    0  0.00000000000E+00 -0.00000000000E+00 -0.31944281500E+04  0.31944281500E+04  0.00000000000E+00 0.  1.
         23    2    1    2    0    0  0.14276712484E+04  0.34067700880E+03 -0.16552170388E+04  0.22142439822E+04  0.93951845557E+02 0.  0.
         13    1    3    3    0    0  0.98634663623E+02  0.46381974314E+02 -0.13885639294E+03  0.17652530206E+03  0.00000000000E+00 0. -1.
        -13    1    3    3    0    0  0.13290365848E+04  0.29429503448E+03 -0.15163606459E+04  0.20377186802E+04  0.00000000000E+00 0.  1.
         22    1    1    2    0    0 -0.14276712484E+04 -0.34067700880E+03 -0.83215337207E+03  0.16872419070E+04  0.00000000000E+00 0. -1.
<mgrwt>
<rscale>  0 0.30057579E+04</rscale>
<asrwt>0</asrwt>
<pdfrwt beam="1">  1        2 0.49145049E+00 0.30057579E+04</pdfrwt>
<pdfrwt beam="2">  1       -2 0.10877811E+00 0.30057579E+04</pdfrwt>
<totfact> 0.75471511E-01</totfact>
</mgrwt>
</event>
<event>
 6    1  0.4630212E-004  0.2711382E+04  0.7818608E-02  0.8331321E-01
          2   -1    0    0  501    0  0.00000000000E+00  0.00000000000E+00  0.28498389966E+04  0.28498389966E+04  0.00000000000E+00 0.  1.
         -2   -1    0    0    0  501 -0.00000000000E+00 -0.00000000000E+00 -0.64491299868E+03  0.64491299868E+03  0.00000000000E+00 0. -1.
         23    2    1    2    0    0  0.12953312094E+04  0.35028949828E+03  0.86835642106E+03  0.16008132665E+04  0.89300423117E+02 0.  0.
         11    1    3    3    0    0  0.39986245108E+03  0.12353259547E+03  0.31734517136E+03  0.52522208609E+03  0.00000000000E+00 0. -1.
        -11    1    3    3    0    0  0.89546875830E+03  0.22675690281E+03  0.55101124971E+03  0.10755911804E+04  0.00000000000E+00 0.  1.
         22    1    1    2    0    0 -0.12953312094E+04 -0.35028949828E+03  0.13365695769E+04  0.18939387288E+04  0.00000000000E+00 0. -1.
<mgrwt>
<rscale>  0 0.27113821E+04</rscale>
<asrwt>0</asrwt>
<pdfrwt beam="1">  1        2 0.43843676E+00 0.27113821E+04</pdfrwt>
<pdfrwt beam="2">  1       -2 0.99217386E-01 0.27113821E+04</pdfrwt>
<totfact> 0.15900988E+00</totfact>
</mgrwt>
</event>
<event>
 6    1  0.4630212E-004  0.3269981E+04  0.7818608E-02  0.8170576E-01
          2   -1    0    0  501    0  0.00000000000E+00  0.00000000000E+00  0.28641193306E+04  0.28641193306E+04  0.00000000000E+00 0.  1.
         -2   -1    0    0    0  501 -0.00000000000E+00 -0.00000000000E+00 -0.93333886188E+03  0.93333886188E+03  0.00000000000E+00 0. -1.
         23    2    1    2    0    0  0.12159965373E+04 -0.56827417417E+03 -0.11537303320E+03  0.13503522959E+04  0.92505515130E+02 0.  0.
         13    1    3    3    0    0  0.87193982598E+03 -0.36129196773E+03 -0.74687790646E+02  0.94677833317E+03  0.00000000000E+00 0.  1.
        -13    1    3    3    0    0  0.34405671134E+03 -0.20698220644E+03 -0.40685242559E+02  0.40357396270E+03  0.00000000000E+00 0. -1.
         22    1    1    2    0    0 -0.12159965373E+04  0.56827417417E+03  0.20461535020E+04  0.24471058966E+04  0.00000000000E+00 0.  1.
<mgrwt>
<rscale>  0 0.32699810E+04</rscale>
<asrwt>0</asrwt>
<pdfrwt beam="1">  1        2 0.44063374E+00 0.32699810E+04</pdfrwt>
<pdfrwt beam="2">  1       -2 0.14359060E+00 0.32699810E+04</pdfrwt>
<totfact> 0.59458799E-01</totfact>
</mgrwt>
</event>
<event>
 6    1  0.4630212E-004  0.2037934E+04  0.7818608E-02  0.8589088E-01
         -2   -1    0    0    0  501 -0.00000000000E+00  0.00000000000E+00  0.61475002167E+03  0.61475002167E+03  0.00000000000E+00 0. -1.
          2   -1    0    0  501    0  0.00000000000E+00 -0.00000000000E+00 -0.16889688633E+04  0.16889688633E+04  0.00000000000E+00 0.  1.
         23    2    1    2    0    0 -0.17867969759E+03  0.72350923196E+03  0.24379440422E+03  0.78960166385E+03  0.92967913688E+02 0.  0.
         11    1    3    3    0    0 -0.18141020804E+03  0.58496348906E+03  0.19960639528E+03  0.64415422079E+03  0.00000000000E+00 0. -1.
        -11    1    3    3    0    0  0.27305104524E+01  0.13854574289E+03  0.44188008934E+02  0.14544744307E+03  0.00000000000E+00 0.  1.
         22    1    1    2    0    0  0.17867969759E+03 -0.72350923196E+03 -0.13180132459E+04  0.15141172211E+04  0.00000000000E+00 0.  1.
<mgrwt>
<rscale>  0 0.20379339E+04</rscale>
<asrwt>0</asrwt>
<pdfrwt beam="1">  1        2 0.25984136E+00 0.20379339E+04</pdfrwt>
<pdfrwt beam="2">  1       -2 0.94576928E-01 0.20379339E+04</pdfrwt>
<totfact> 0.86765193E+00</totfact>
</mgrwt>
</event>
<event>
 6    1  0.4630212E-004  0.2056419E+04  0.7818608E-02  0.8580688E-01
          2   -1    0    0  501    0  0.00000000000E+00  0.00000000000E+00  0.62799892029E+03  0.62799892029E+03  0.00000000000E+00 0.  1.
         -2   -1    0    0    0  501 -0.00000000000E+00 -0.00000000000E+00 -0.16834664399E+04  0.16834664399E+04  0.00000000000E+00 0. -1.
         23    2    1    2    0    0 -0.14723050333E+03  0.17335664074E+03 -0.16538222537E+04  0.16713421425E+04  0.80790869574E+02 0.  0.
         11    1    3    3    0    0 -0.53870588013E+02  0.12453547255E+03 -0.97348385002E+03  0.98289466904E+03  0.00000000000E+00 0.  1.
        -11    1    3    3    0    0 -0.93359915315E+02  0.48821168190E+02 -0.68033840367E+03  0.68844747349E+03  0.00000000000E+00 0. -1.
         22    1    1    2    0    0  0.14723050333E+03 -0.17335664074E+03  0.59835473408E+03  0.64012321767E+03  0.00000000000E+00 0.  1.
<mgrwt>
<rscale>  0 0.20564193E+04</rscale>
<asrwt>0</asrwt>
<pdfrwt beam="1">  1        2 0.96615219E-01 0.20564193E+04</pdfrwt>
<pdfrwt beam="2">  1       -2 0.25899484E+00 0.20564193E+04</pdfrwt>
<totfact> 0.24550651E+00</totfact>
</mgrwt>
</event>
<event>
 6    1  0.4630212E-004  0.2063126E+04  0.7818608E-02  0.8577663E-01
         -2   -1    0    0    0  501 -0.00000000000E+00  0.00000000000E+00  0.64238887547E+03  0.64238887547E+03  0.00000000000E+00 0. -1.
          2   -1    0    0  501    0  0.00000000000E+00 -0.00000000000E+00 -0.16565076225E+04  0.16565076225E+04  0.00000000000E+00 0.  1.
         23    2    1    2    0    0 -0.45000361739E+03 -0.91518825448E+03 -0.66469125507E+03  0.12208555113E+04  0.92741135404E+02 0.  0.
         11    1    3    3    0    0 -0.21687403376E+03 -0.33871465968E+03 -0.26500746416E+03  0.48165436079E+03  0.00000000000E+00 0.  1.
        -11    1    3    3    0    0 -0.23312958363E+03 -0.57647359480E+03 -0.39968379090E+03  0.73920115055E+03  0.00000000000E+00 0. -1.
         22    1    1    2    0    0  0.45000361739E+03  0.91518825448E+03 -0.34942749200E+03  0.10780409867E+04  0.00000000000E+00 0.  1.
<mgrwt>
<rscale>  0 0.20631259E+04</rscale>
<asrwt>0</asrwt>
<pdfrwt beam="1">  1        2 0.25484732E+00 0.20631259E+04</pdfrwt>
<pdfrwt beam="2">  1       -2 0.98829061E-01 0.20631259E+04</pdfrwt>
<totfact> 0.81414358E+00</totfact>
</mgrwt>
</event>
<event>
 6    1  0.4630212E-004  0.4738856E+04  0.7818608E-02  0.7870104E-01
          2   -1    0    0  501    0  0.00000000000E+00  0.00000000000E+00  0.29911605433E+04  0.29911605433E+04  0.00000000000E+00 0. -1.
         -2   -1    0    0    0  501 -0.00000000000E+00 -0.00000000000E+00 -0.18769266197E+04  0.18769266197E+04  0.00000000000E+00 0.  1.
         23    2    1    2    0    0 -0.16675520870E+04  0.59175531794E+03  0.21747791927E+04  0.28051619130E+04  0.91457651158E+02 0.  0.
         13    1    3    3    0    0 -0.56246184398E+03  0.18982178990E+03  0.79728695221E+03  0.99401313976E+03  0.00000000000E+00 0. -1.
        -13    1    3    3    0    0 -0.11050902430E+04  0.40193352804E+03  0.13774922405E+04  0.18111487732E+04  0.00000000000E+00 0.  1.
         22    1    1    2    0    0  0.16675520870E+04 -0.59175531794E+03 -0.10605452691E+04  0.20629252500E+04  0.00000000000E+00 0.  1.
<mgrwt>
<rscale>  0 0.47388559E+04</rscale>
<asrwt>0</asrwt>
<pdfrwt beam="1">  1        2 0.46017854E+00 0.47388559E+04</pdfrwt>
<pdfrwt beam="2">  1       -2 0.28875794E+00 0.47388559E+04</pdfrwt>
<totfact> 0.48781246E-02</totfact>
</mgrwt>
</event>
<event>
 6    1  0.4630212E-004  0.3615458E+04  0.7818608E-02  0.8086960E-01
          2   -1    0    0  501    0  0.00000000000E+00  0.00000000000E+00  0.32909895739E+04  0.32909895739E+04  0.00000000000E+00 0.  1.
         -2   -1    0    0    0  501 -0.00000000000E+00 -0.00000000000E+00 -0.99297945374E+03  0.99297945374E+03  0.00000000000E+00 0. -1.
         23    2    1    2    0    0 -0.45350141547E+03  0.30312788083E+03  0.31904363591E+04  0.32380366025E+04  0.91906645742E+02 0.  0.
         11    1    3    3    0    0 -0.38781253992E+03  0.21626168839E+03  0.25981574377E+04  0.26358280967E+04  0.00000000000E+00 0.  1.
        -11    1    3    3    0    0 -0.65688875553E+02  0.86866192440E+02  0.59227892140E+03  0.60220850583E+03  0.00000000000E+00 0. -1.
         22    1    1    2    0    0  0.45350141547E+03 -0.30312788083E+03 -0.89242623896E+03  0.10459324251E+04  0.00000000000E+00 0. -1.
<mgrwt>
<rscale>  0 0.36154585E+04</rscale>
<asrwt>0</asrwt>
<pdfrwt beam="1">  1        2 0.50630608E+00 0.36154585E+04</pdfrwt>
<pdfrwt beam="2">  1       -2 0.15276607E+00 0.36154585E+04</pdfrwt>
<totfact> 0.26204700E-01</totfact>
</mgrwt>
</event>
<event>
 6    1  0.6354871E-004  0.3788694E+04  0.7818608E-02  0.8048586E-01
          1   -1    0    0  501    0  0.00000000000E+00  0.00000000000E+00  0.21704109142E+04  0.21704109142E+04  0.00000000000E+00 0. -1.
         -1   -1    0    0    0  501 -0.00000000000E+00 -0.00000000000E+00 -0.16533966475E+04  0.16533966475E+04  0.00000000000E+00 0.  1.
         23    2    1    2    0    0  0.97199270142E+03 -0.53037780339E+02  0.18975202979E+04  0.21346125700E+04  0.91677289097E+02 0.  0.
         11    1    3    3    0    0  0.48680951188E+03 -0.51952413794E+02  0.86963108810E+03  0.99796832793E+03  0.00000000000E+00 0. -1.
        -11    1    3    3    0    0  0.48518318954E+03 -0.10853665445E+01  0.10278892098E+04  0.11366442421E+04  0.00000000000E+00 0.  1.
         22    1    1    2    0    0 -0.97199270142E+03  0.53037780339E+02 -0.13805060312E+04  0.16891949917E+04  0.00000000000E+00 0.  1.
<mgrwt>
<rscale>  0 0.37886938E+04</rscale>
<asrwt>0</asrwt>
<pdfrwt beam="1">  1        1 0.33390937E+00 0.37886938E+04</pdfrwt>
<pdfrwt beam="2">  1       -1 0.25436871E+00 0.37886938E+04</pdfrwt>
<totfact> 0.11867136E-01</totfact>
</mgrwt>
</event>
<event>
 6    1  0.4630212E-004  0.1634856E+04  0.7818608E-02  0.8799416E-01
          2   -1    0    0  501    0  0.00000000000E+00  0.00000000000E+00  0.53866142003E+03  0.53866142003E+03  0.00000000000E+00 0.  1.
         -2   -1    0    0    0  501 -0.00000000000E+00 -0.00000000000E+00 -0.12404609161E+04  0.12404609161E+04  0.00000000000E+00 0. -1.
         23    2    1    2    0    0 -0.37238279062E+02  0.79762497338E+03 -0.17539106362E+03  0.82272381806E+03  0.92304756228E+02 0.  0.
         11    1    3    3    0    0 -0.76033670447E+01  0.41333421955E+03 -0.13639907323E+03  0.43532481600E+03  0.00000000000E+00 0. -1.
        -11    1    3    3    0    0 -0.29634912017E+02  0.38429075383E+03 -0.38991990389E+02  0.38739900206E+03  0.00000000000E+00 0.  1.
         22    1    1    2    0    0  0.37238279062E+02 -0.79762497338E+03 -0.52640843241E+03  0.95639851803E+03  0.00000000000E+00 0.  1.
<mgrwt>
<rscale>  0 0.16348559E+04</rscale>
<asrwt>0</asrwt>
<pdfrwt beam="1">  1        2 0.82870987E-01 0.16348559E+04</pdfrwt>
<pdfrwt beam="2">  1       -2 0.19084014E+00 0.16348559E+04</pdfrwt>
<totfact> 0.82485459E+00</totfact>
</mgrwt>
</event>
<event>
 6    1  0.4630212E-004  0.1643798E+04  0.7818608E-02  0.8794084E-01
          2   -1    0    0  501    0  0.00000000000E+00  0.00000000000E+00  0.73671236384E+03  0.73671236384E+03  0.00000000000E+00 0. -1.
         -2   -1    0    0    0  501 -0.00000000000E+00 -0.00000000000E+00 -0.91693537531E+03  0.91693537531E+03  0.00000000000E+00 0.  1.
         23    2    1    2    0    0 -0.19505996609E+03 -0.61771307385E+03  0.41456644962E+03  0.77422046246E+03  0.89073853412E+02 0.  0.
         13    1    3    3    0    0 -0.14433043850E+03 -0.31214932622E+03  0.22828324729E+03  0.41277320447E+03  0.00000000000E+00 0. -1.
        -13    1    3    3    0    0 -0.50729527596E+02 -0.30556374763E+03  0.18628320233E+03  0.36144725799E+03  0.00000000000E+00 0.  1.
         22    1    1    2    0    0  0.19505996609E+03  0.61771307385E+03 -0.59478946109E+03  0.87942727670E+03  0.00000000000E+00 0.  1.
<mgrwt>
<rscale>  0 0.16437976E+04</rscale>
<asrwt>0</asrwt>
<pdfrwt beam="1">  1        2 0.11334036E+00 0.16437976E+04</pdfrwt>
<pdfrwt beam="2">  1       -2 0.14106698E+00 0.16437976E+04</pdfrwt>
<totfact> 0.12910488E+01</totfact>
</mgrwt>
</event>
<event>
 6    1  0.4630212E-004  0.4031983E+04  0.7818608E-02  0.7998125E-01
          2   -1    0    0  501    0  0.00000000000E+00  0.00000000000E+00  0.40530262335E+04  0.40530262335E+04  0.00000000000E+00 0.  1.
         -2   -1    0    0    0  501 -0.00000000000E+00 -0.00000000000E+00 -0.10027624471E+04  0.10027624471E+04  0.00000000000E+00 0. -1.
         23    2    1    2    0    0  0.19544621266E+04  0.48938832006E+03  0.14948503390E+04  0.25104529219E+04  0.91505218648E+02 0.  0.
         11    1    3    3    0    0  0.14214504219E+04  0.32958556320E+03  0.10419766121E+04  0.17930039614E+04  0.00000000000E+00 0. -1.
        -11    1    3    3    0    0  0.53301170462E+03  0.15980275686E+03  0.45287372687E+03  0.71744896046E+03  0.00000000000E+00 0.  1.
         22    1    1    2    0    0 -0.19544621266E+04 -0.48938832006E+03  0.15554134475E+04  0.25453357587E+04  0.00000000000E+00 0.  1.
<mgrwt>
<rscale>  0 0.40319834E+04</rscale>
<asrwt>0</asrwt>
<pdfrwt beam="1">  1        2 0.62354249E+00 0.40319834E+04</pdfrwt>
<pdfrwt beam="2">  1       -2 0.15427115E+00 0.40319834E+04</pdfrwt>
<totfact> 0.67462146E-02</totfact>
</mgrwt>
</event>
<event>
 6    1  0.4630212E-004  0.1645383E+04  0.7818608E-02  0.8793142E-01
         -2   -1    0    0    0  501 -0.00000000000E+00  0.00000000000E+00  0.36932636239E+03  0.36932636239E+03  0.00000000000E+00 0. -1.
          2   -1    0    0  501    0  0.00000000000E+00 -0.00000000000E+00 -0.18325837263E+04  0.18325837263E+04  0.00000000000E+00 0.  1.
         23    2    1    2    0    0 -0.26786062136E+03 -0.76648723399E+03 -0.88832175489E+03  0.12070216794E+04  0.92378580256E+02 0.  0.
         11    1    3    3    0    0 -0.11274530889E+03 -0.20038350880E+03 -0.26455688536E+03  0.35050734781E+03  0.00000000000E+00 0. -1.
        -11    1    3    3    0    0 -0.15511531247E+03 -0.56610372519E+03 -0.62376486952E+03  0.85651433163E+03  0.00000000000E+00 0.  1.
         22    1    1    2    0    0  0.26786062136E+03  0.76648723399E+03 -0.57493560904E+03  0.99488840927E+03  0.00000000000E+00 0. -1.
<mgrwt>
<rscale>  0 0.16453832E+04</rscale>
<asrwt>0</asrwt>
<pdfrwt beam="1">  1        2 0.28193596E+00 0.16453832E+04</pdfrwt>
<pdfrwt beam="2">  1       -2 0.56819440E-01 0.16453832E+04</pdfrwt>
<totfact> 0.22972835E+01</totfact>
</mgrwt>
</event>
<event>
 6    1  0.4630212E-004  0.1949337E+04  0.7818608E-02  0.8630680E-01
          3   -1    0    0  501    0  0.00000000000E+00  0.00000000000E+00  0.18805289602E+04  0.18805289602E+04  0.00000000000E+00 0.  1.
         -3   -1    0    0    0  501 -0.00000000000E+00 -0.00000000000E+00 -0.50516573042E+03  0.50516573042E+03  0.00000000000E+00 0. -1.
         23    2    1    2    0    0  0.17336658409E+03  0.93653627269E+03  0.92978983883E+03  0.13341758799E+04  0.91432880823E+02 0.  0.
         11    1    3    3    0    0  0.16901811810E+03  0.79770478729E+03  0.75856690696E+03  0.11136982555E+04  0.00000000000E+00 0. -1.
        -11    1    3    3    0    0  0.43484659952E+01  0.13883148540E+03  0.17122293187E+03  0.22047762447E+03  0.00000000000E+00 0.  1.
         22    1    1    2    0    0 -0.17336658409E+03 -0.93653627269E+03  0.44557339098E+03  0.10515188107E+04  0.00000000000E+00 0. -1.
<mgrwt>
<rscale>  0 0.19493371E+04</rscale>
<asrwt>0</asrwt>
<pdfrwt beam="1">  1        3 0.28931214E+00 0.19493371E+04</pdfrwt>
<pdfrwt beam="2">  1       -3 0.77717806E-01 0.19493371E+04</pdfrwt>
<totfact> 0.16783308E-01</totfact>
</mgrwt>
</event>
<event>
 6    1  0.4630212E-004  0.3203698E+03  0.7818608E-02  0.1075479E+00
         -2   -1    0    0    0  501 -0.00000000000E+00  0.00000000000E+00  0.72599269426E+02  0.72599269426E+02  0.00000000000E+00 0. -1.
          2   -1    0    0  501    0  0.00000000000E+00 -0.00000000000E+00 -0.35343608223E+03  0.35343608223E+03  0.00000000000E+00 0.  1.
         23    2    1    2    0    0  0.13837111469E+03  0.97579007289E+00 -0.22028991760E+03  0.27499415176E+03  0.89143806044E+02 0.  0.
         13    1    3    3    0    0  0.17945572404E+02 -0.54738801777E+01 -0.10993710729E+03  0.11152656406E+03  0.00000000000E+00 0. -1.
        -13    1    3    3    0    0  0.12042554229E+03  0.64496702506E+01 -0.11035281031E+03  0.16346758769E+03  0.00000000000E+00 0.  1.
         22    1    1    2    0    0 -0.13837111469E+03 -0.97579007289E+00 -0.60546895201E+02  0.15104119990E+03  0.00000000000E+00 0. -1.
<mgrwt>
<rscale>  0 0.32036979E+03</rscale>
<asrwt>0</asrwt>
<pdfrwt beam="1">  1        2 0.54374782E-01 0.32036979E+03</pdfrwt>
<pdfrwt beam="2">  1       -2 0.11169118E-01 0.32036979E+03</pdfrwt>
<totfact> 0.50805866E+03</totfact>
</mgrwt>
</event>
<event>
 6    1  0.4630212E-004  0.2054758E+03  0.7818608E-02  0.1145200E+00
          2   -1    0    0  501    0  0.00000000000E+00  0.00000000000E+00  0.36657725332E+02  0.36657725332E+02  0.00000000000E+00 0.  1.
         -2   -1    0    0    0  501 -0.00000000000E+00 -0.00000000000E+00 -0.28793593240E+03  0.28793593240E+03  0.00000000000E+00 0. -1.
         23    2    1    2    0    0 -0.75970414503E+02  0.31376823244E+02 -0.14951038524E+03  0.19377814460E+03  0.91872765893E+02 0.  0.
         11    1    3    3    0    0 -0.84360758018E+02  0.39555028054E+02 -0.15499238554E+03  0.18084241016E+03  0.00000000000E+00 0. -1.
        -11    1    3    3    0    0  0.83903435145E+01 -0.81782048101E+01  0.54820002980E+01  0.12935734439E+02  0.00000000000E+00 0.  1.
         22    1    1    2    0    0  0.75970414503E+02 -0.31376823244E+02 -0.10176782183E+03  0.13081551313E+03  0.00000000000E+00 0. -1.
<mgrwt>
<rscale>  0 0.20547580E+03</rscale>
<asrwt>0</asrwt>
<pdfrwt beam="1">  1        2 0.56396502E-02 0.20547580E+03</pdfrwt>
<pdfrwt beam="2">  1       -2 0.44297835E-01 0.20547580E+03</pdfrwt>
<totfact> 0.63867816E+03</totfact>
</mgrwt>
</event>
<event>
 6    1  0.4630212E-004  0.2671584E+04  0.7818608E-02  0.8344284E-01
          2   -1    0    0  501    0  0.00000000000E+00  0.00000000000E+00  0.47948116134E+04  0.47948116134E+04  0.00000000000E+00 0.  1.
         -2   -1    0    0    0  501 -0.00000000000E+00 -0.00000000000E+00 -0.37213983919E+03  0.37213983919E+03  0.00000000000E+00 0. -1.
         23    2    1    2    0    0 -0.26444242921E+03  0.71696846160E+03  0.99228984228E+02  0.77649234999E+03  0.95500811427E+02 0.  0.
         13    1    3    3    0    0 -0.10527832637E+03  0.36502585393E+03  0.88534511166E+02  0.39008429821E+03  0.00000000000E+00 0. -1.
        -13    1    3    3    0    0 -0.15916410284E+03  0.35194260767E+03  0.10694473062E+02  0.38640805178E+03  0.00000000000E+00 0.  1.
         22    1    1    2    0    0  0.26444242921E+03 -0.71696846160E+03  0.43234427900E+04  0.43904591026E+04  0.00000000000E+00 0.  1.
<mgrwt>
<rscale>  0 0.26715841E+04</rscale>
<asrwt>0</asrwt>
<pdfrwt beam="1">  1        2 0.73766328E+00 0.26715841E+04</pdfrwt>
<pdfrwt beam="2">  1       -2 0.57252286E-01 0.26715841E+04</pdfrwt>
<totfact> 0.15234700E-01</totfact>
</mgrwt>
</event>
<event>
 6    1  0.4630212E-004  0.5092943E+04  0.7818608E-02  0.7814328E-01
          2   -1    0    0  501    0  0.00000000000E+00  0.00000000000E+00  0.48326757089E+04  0.48326757089E+04  0.00000000000E+00 0.  1.
         -2   -1    0    0    0  501 -0.00000000000E+00 -0.00000000000E+00 -0.13418066358E+04  0.13418066358E+04  0.00000000000E+00 0. -1.
         23    2    1    2    0    0 -0.75069097702E+03  0.18791548542E+04 -0.12749150161E+03  0.20287263028E+04  0.68676194165E+02 0.  0.
         11    1    3    3    0    0 -0.58474197868E+03  0.15284161918E+04 -0.90578778522E+02  0.16389581301E+04  0.00000000000E+00 0.  1.
        -11    1    3    3    0    0 -0.16594899834E+03  0.35073866244E+03 -0.36912723085E+02  0.38976817277E+03  0.00000000000E+00 0. -1.
         22    1    1    2    0    0  0.75069097702E+03 -0.18791548542E+04  0.36183605747E+04  0.41457560418E+04  0.00000000000E+00 0.  1.
<mgrwt>
<rscale>  0 0.50929427E+04</rscale>
<asrwt>0</asrwt>
<pdfrwt beam="1">  1        2 0.74348856E+00 0.50929427E+04</pdfrwt>
<pdfrwt beam="2">  1       -2 0.20643179E+00 0.50929427E+04</pdfrwt>
<totfact> 0.46969476E-03</totfact>
</mgrwt>
</event>
<event>
 6    1  0.4630212E-004  0.1726457E+04  0.7818608E-02  0.8746417E-01
          2   -1    0    0  501    0  0.00000000000E+00  0.00000000000E+00  0.20388212817E+04  0.20388212817E+04  0.00000000000E+00 0.  1.
         -2   -1    0    0    0  501 -0.00000000000E+00 -0.00000000000E+00 -0.36548725753E+03  0.36548725753E+03  0.00000000000E+00 0. -1.
         23    2    1    2    0    0 -0.16411717776E+03 -0.79071849464E+03  0.12537435005E+04  0.14942390949E+04  0.93314104573E+02 0.  0.
         13    1    3    3    0    0 -0.17055100979E+03 -0.76350555595E+03  0.12291683230E+04  0.14570117183E+04  0.00000000000E+00 0.  1.
        -13    1    3    3    0    0  0.64338320312E+01 -0.27212938693E+02  0.24575177452E+02  0.37227376670E+02  0.00000000000E+00 0. -1.
         22    1    1    2    0    0  0.16411717776E+03  0.79071849464E+03  0.41959052368E+03  0.91006944425E+03  0.00000000000E+00 0. -1.
<mgrwt>
<rscale>  0 0.17264567E+04</rscale>
<asrwt>0</asrwt>
<pdfrwt beam="1">  1        2 0.31366481E+00 0.17264567E+04</pdfrwt>
<pdfrwt beam="2">  1       -2 0.56228810E-01 0.17264567E+04</pdfrwt>
<totfact> 0.17923188E+01</totfact>
</mgrwt>
</event>
<event>
 6    1  0.4630212E-004  0.4376783E+04  0.7818608E-02  0.7932571E-01
          2   -1    0    0  501    0  0.00000000000E+00  0.00000000000E+00  0.17799203066E+04  0.17799203066E+04  0.00000000000E+00 0.  1.
         -2   -1    0    0    0  501 -0.00000000000E+00 -0.00000000000E+00 -0.26906026190E+04  0.26906026190E+04  0.00000000000E+00 0. -1.
         23    2    1    2    0    0  0.20570670205E+04  0.65288140288E+03 -0.90939989776E+02  0.21618964231E+04  0.88018232995E+02 0.  0.
         13    1    3    3    0    0  0.13367711896E+04  0.38728142835E+03 -0.35518610632E+02  0.13921945588E+04  0.00000000000E+00 0.  1.
        -13    1    3    3    0    0  0.72029583091E+03  0.26559997453E+03 -0.55421379144E+02  0.76970186421E+03  0.00000000000E+00 0. -1.
         22    1    1    2    0    0 -0.20570670205E+04 -0.65288140288E+03 -0.81974232265E+03  0.23086265026E+04  0.00000000000E+00 0. -1.
<mgrwt>
<rscale>  0 0.43767834E+04</rscale>
<asrwt>0</asrwt>
<pdfrwt beam="1">  1        2 0.27383389E+00 0.43767834E+04</pdfrwt>
<pdfrwt beam="2">  1       -2 0.41393886E+00 0.43767834E+04</pdfrwt>
<totfact> 0.40736389E-02</totfact>
</mgrwt>
</event>
<event>
 6    1  0.4630212E-004  0.2870446E+04  0.7818608E-02  0.8281725E-01
          2   -1    0    0  501    0  0.00000000000E+00  0.00000000000E+00  0.27772607630E+04  0.27772607630E+04  0.00000000000E+00 0.  1.
         -2   -1    0    0    0  501 -0.00000000000E+00 -0.00000000000E+00 -0.74168939712E+03  0.74168939712E+03  0.00000000000E+00 0. -1.
         23    2    1    2    0    0 -0.91130892227E+03 -0.43685235875E+03  0.22656057589E+04  0.24824947790E+04  0.92124577794E+02 0.  0.
         11    1    3    3    0    0 -0.17042585618E+03 -0.64004498458E+02  0.33508783071E+03  0.38134682714E+03  0.00000000000E+00 0. -1.
        -11    1    3    3    0    0 -0.74088306609E+03 -0.37284786029E+03  0.19305179282E+04  0.21011479519E+04  0.00000000000E+00 0.  1.
         22    1    1    2    0    0  0.91130892227E+03  0.43685235875E+03 -0.23003439299E+03  0.10364553811E+04  0.00000000000E+00 0. -1.
<mgrwt>
<rscale>  0 0.28704459E+04</rscale>
<asrwt>0</asrwt>
<pdfrwt beam="1">  1        2 0.42727088E+00 0.28704459E+04</pdfrwt>
<pdfrwt beam="2">  1       -2 0.11410606E+00 0.28704459E+04</pdfrwt>
<totfact> 0.12405168E+00</totfact>
</mgrwt>
</event>
<event>
 6    1  0.4630212E-004  0.3884494E+04  0.7818608E-02  0.8028262E-01
         -2   -1    0    0    0  501 -0.00000000000E+00  0.00000000000E+00  0.13971223826E+04  0.13971223826E+04  0.00000000000E+00 0. -1.
          2   -1    0    0  501    0  0.00000000000E+00 -0.00000000000E+00 -0.27000666571E+04  0.27000666571E+04  0.00000000000E+00 0.  1.
         23    2    1    2    0    0 -0.18954588986E+04  0.96783282428E+00 -0.21032570839E+03  0.19093634744E+04  0.93094579310E+02 0.  0.
         13    1    3    3    0    0 -0.74821353086E+03 -0.41881686477E+02 -0.66101027463E+02  0.75229442990E+03  0.00000000000E+00 0. -1.
        -13    1    3    3    0    0 -0.11472453677E+04  0.42849519301E+02 -0.14422468092E+03  0.11570690445E+04  0.00000000000E+00 0.  1.
         22    1    1    2    0    0  0.18954588986E+04 -0.96783282428E+00 -0.10926185662E+04  0.21878255653E+04  0.00000000000E+00 0.  1.
<mgrwt>
<rscale>  0 0.38844941E+04</rscale>
<asrwt>0</asrwt>
<pdfrwt beam="1">  1        2 0.41539487E+00 0.38844941E+04</pdfrwt>
<pdfrwt beam="2">  1       -2 0.21494191E+00 0.38844941E+04</pdfrwt>
<totfact> 0.22501323E-01</totfact>
</mgrwt>
</event>
<event>
 6    1  0.4630212E-004  0.7811387E+03  0.7818608E-02  0.9587727E-01
          2   -1    0    0  501    0  0.00000000000E+00  0.00000000000E+00  0.73096948571E+03  0.73096948571E+03  0.00000000000E+00 0. -1.
         -2   -1    0    0    0  501 -0.00000000000E+00 -0.00000000000E+00 -0.20868779670E+03  0.20868779670E+03  0.00000000000E+00 0.  1.
         23    2    1    2    0    0 -0.15638223614E+03  0.20939068917E+03 -0.75814304673E+02  0.28695621596E+03  0.91083459499E+02 0.  0.
         11    1    3    3    0    0 -0.10449594552E+03  0.18858395069E+03 -0.82097046801E+02  0.23070161288E+03  0.00000000000E+00 0. -1.
        -11    1    3    3    0    0 -0.51886290612E+02  0.20806738480E+02  0.62827421274E+01  0.56254603085E+02  0.00000000000E+00 0.  1.
         22    1    1    2    0    0  0.15638223614E+03 -0.20939068917E+03  0.59809599368E+03  0.65270106646E+03  0.00000000000E+00 0. -1.
<mgrwt>
<rscale>  0 0.78113869E+03</rscale>
<asrwt>0</asrwt>
<pdfrwt beam="1">  1        2 0.11245684E+00 0.78113869E+03</pdfrwt>
<pdfrwt beam="2">  1       -2 0.32105815E-01 0.78113869E+03</pdfrwt>
<totfact> 0.35176927E+02</totfact>
</mgrwt>
</event>
<event>
 6    1  0.4630212E-004  0.2641794E+04  0.7818608E-02  0.8354142E-01
          2   -1    0    0  501    0  0.00000000000E+00  0.00000000000E+00  0.40551757145E+04  0.40551757145E+04  0.00000000000E+00 0.  1.
         -2   -1    0    0    0  501 -0.00000000000E+00 -0.00000000000E+00 -0.43025735223E+03  0.43025735223E+03  0.00000000000E+00 0. -1.
         23    2    1    2    0    0 -0.13107410455E+04  0.25519156902E+02  0.20660664052E+04  0.24485941581E+04  0.91047484879E+02 0.  0.
         11    1    3    3    0    0 -0.10450653189E+04  0.26698111953E+02  0.15772956546E+04  0.18922832483E+04  0.00000000000E+00 0. -1.
        -11    1    3    3    0    0 -0.26567572667E+03 -0.11789550512E+01  0.48877075061E+03  0.55631090977E+03  0.00000000000E+00 0.  1.
         22    1    1    2    0    0  0.13107410455E+04 -0.25519156902E+02  0.15588519571E+04  0.20368389087E+04  0.00000000000E+00 0.  1.
<mgrwt>
<rscale>  0 0.26417942E+04</rscale>
<asrwt>0</asrwt>
<pdfrwt beam="1">  1        2 0.62387316E+00 0.26417942E+04</pdfrwt>
<pdfrwt beam="2">  1       -2 0.66193442E-01 0.26417942E+04</pdfrwt>
<totfact> 0.57184321E-01</totfact>
</mgrwt>
</event>
<event>
 6    1  0.4656518E-004  0.3832455E+04  0.7818608E-02  0.8039226E-01
          2   -1    0    0  501    0  0.00000000000E+00  0.00000000000E+00  0.21968179554E+04  0.21968179554E+04  0.00000000000E+00 0.  1.
         -2   -1    0    0    0  501 -0.00000000000E+00 -0.00000000000E+00 -0.16714761206E+04  0.16714761206E+04  0.00000000000E+00 0. -1.
         23    2    1    2    0    0  0.14796704785E+04  0.68182805482E+03 -0.75336375070E+03  0.17972068746E+04  0.89896539068E+02 0.  0.
         13    1    3    3    0    0  0.31247290329E+03  0.10725381535E+03 -0.16787499315E+03  0.37057348735E+03  0.00000000000E+00 0.  1.
        -13    1    3    3    0    0  0.11671975752E+04  0.57457423947E+03 -0.58548875754E+03  0.14266333872E+04  0.00000000000E+00 0. -1.
         22    1    1    2    0    0 -0.14796704785E+04 -0.68182805482E+03  0.12787055855E+04  0.20710872014E+04  0.00000000000E+00 0. -1.
<mgrwt>
<rscale>  0 0.38324555E+04</rscale>
<asrwt>0</asrwt>
<pdfrwt beam="1">  1        2 0.33797200E+00 0.38324555E+04</pdfrwt>
<pdfrwt beam="2">  1       -2 0.25715017E+00 0.38324555E+04</pdfrwt>
<totfact> 0.24085006E-01</totfact>
</mgrwt>
</event>
<event>
 6    1  0.4630212E-004  0.2224685E+04  0.7818608E-02  0.8508224E-01
         -1   -1    0    0    0  501 -0.00000000000E+00  0.00000000000E+00  0.15200386643E+04  0.15200386643E+04  0.00000000000E+00 0. -1.
          1   -1    0    0  501    0  0.00000000000E+00 -0.00000000000E+00 -0.81399594397E+03  0.81399594397E+03  0.00000000000E+00 0.  1.
         23    2    1    2    0    0 -0.42840775821E+03 -0.10241472850E+04  0.32707130441E+03  0.11609914707E+04  0.92275068330E+02 0.  0.
         11    1    3    3    0    0 -0.28870174521E+03 -0.57244372234E+03  0.18409426019E+03  0.66703164061E+03  0.00000000000E+00 0. -1.
        -11    1    3    3    0    0 -0.13970601300E+03 -0.45170356263E+03  0.14297704422E+03  0.49395983008E+03  0.00000000000E+00 0.  1.
         22    1    1    2    0    0  0.42840775821E+03  0.10241472850E+04  0.37897141596E+03  0.11730431376E+04  0.00000000000E+00 0.  1.
<mgrwt>
<rscale>  0 0.22246845E+04</rscale>
<asrwt>0</asrwt>
<pdfrwt beam="1">  1        1 0.12523015E+00 0.22246845E+04</pdfrwt>
<pdfrwt beam="2">  1       -1 0.23385210E+00 0.22246845E+04</pdfrwt>
<totfact> 0.17406947E+00</totfact>
</mgrwt>
</event>
<event>
 6    1  0.4630212E-004  0.2456901E+04  0.7818608E-02  0.8418503E-01
         -2   -1    0    0    0  501 -0.00000000000E+00  0.00000000000E+00  0.66601581756E+03  0.66601581756E+03  0.00000000000E+00 0.  1.
          2   -1    0    0  501    0  0.00000000000E+00 -0.00000000000E+00 -0.22658482031E+04  0.22658482031E+04  0.00000000000E+00 0. -1.
         23    2    1    2    0    0 -0.12111867289E+04 -0.19190618983E+03 -0.73572449884E+03  0.14317027901E+04  0.68418293166E+02 0.  0.
         13    1    3    3    0    0 -0.10519053708E+04 -0.15675462236E+03 -0.61260895257E+03  0.12273412930E+04  0.00000000000E+00 0. -1.
        -13    1    3    3    0    0 -0.15928135808E+03 -0.35151567467E+02 -0.12311554626E+03  0.20436149701E+03  0.00000000000E+00 0.  1.
         22    1    1    2    0    0  0.12111867289E+04  0.19190618983E+03 -0.86410788674E+03  0.15001612306E+04  0.00000000000E+00 0.  1.
<mgrwt>
<rscale>  0 0.24569011E+04</rscale>
<asrwt>0</asrwt>
<pdfrwt beam="1">  1        2 0.34859204E+00 0.24569011E+04</pdfrwt>
<pdfrwt beam="2">  1       -2 0.10246397E+00 0.24569011E+04</pdfrwt>
<totfact> 0.33065123E+00</totfact>
</mgrwt>
</event>
<event>
 6    1  0.4630212E-004  0.8363559E+03  0.7818608E-02  0.9508835E-01
          2   -1    0    0  501    0  0.00000000000E+00  0.00000000000E+00  0.11613990043E+04  0.11613990043E+04  0.00000000000E+00 0.  1.
         -2   -1    0    0    0  501 -0.00000000000E+00 -0.00000000000E+00 -0.15057082603E+03  0.15057082603E+03  0.00000000000E+00 0. -1.
         23    2    1    2    0    0  0.38369776940E+03  0.57500206028E+02  0.73498565650E+03  0.83592429812E+03  0.89639639649E+02 0.  0.
         13    1    3    3    0    0  0.23051006071E+03  0.15992256044E+02  0.34874411768E+03  0.41834567042E+03  0.00000000000E+00 0.  1.
        -13    1    3    3    0    0  0.15318770869E+03  0.41507949984E+02  0.38624153882E+03  0.41757862770E+03  0.00000000000E+00 0. -1.
         22    1    1    2    0    0 -0.38369776940E+03 -0.57500206028E+02  0.27584252181E+03  0.47604553226E+03  0.00000000000E+00 0. -1.
<mgrwt>
<rscale>  0 0.83635592E+03</rscale>
<asrwt>0</asrwt>
<pdfrwt beam="1">  1        2 0.17867676E+00 0.83635592E+03</pdfrwt>
<pdfrwt beam="2">  1       -2 0.23164743E-01 0.83635592E+03</pdfrwt>
<totfact> 0.33000207E+02</totfact>
</mgrwt>
</event>
<event>
 6    1  0.4630212E-004  0.1133880E+04  0.7818608E-02  0.9172785E-01
         -1   -1    0    0    0  501 -0.00000000000E+00  0.00000000000E+00  0.11396517229E+03  0.11396517229E+03  0.00000000000E+00 0. -1.
          1   -1    0    0  501    0  0.00000000000E+00 -0.00000000000E+00 -0.28203462449E+04  0.28203462449E+04  0.00000000000E+00 0.  1.
         23    2    1    2    0    0  0.39165704265E+03  0.32075630356E+03 -0.20047700103E+04  0.20691305528E+04  0.76932470538E+02 0.  0.
         11    1    3    3    0    0  0.36570291627E+03  0.31647359848E+03 -0.18515928507E+04  0.19137111188E+04  0.00000000000E+00 0.  1.
        -11    1    3    3    0    0  0.25954126380E+02  0.42827050737E+01 -0.15317715965E+03  0.15541943404E+03  0.00000000000E+00 0. -1.
         22    1    1    2    0    0 -0.39165704265E+03 -0.32075630356E+03 -0.70161106229E+03  0.86518086436E+03  0.00000000000E+00 0. -1.
<mgrwt>
<rscale>  0 0.11338805E+04</rscale>
<asrwt>0</asrwt>
<pdfrwt beam="1">  1        1 0.43389942E+00 0.11338805E+04</pdfrwt>
<pdfrwt beam="2">  1       -1 0.17533104E-01 0.11338805E+04</pdfrwt>
<totfact> 0.20668230E+01</totfact>
</mgrwt>
</event>
<event>
 6    1  0.4630212E-004  0.1589602E+04  0.7818608E-02  0.8826961E-01
          2   -1    0    0  501    0  0.00000000000E+00  0.00000000000E+00  0.26642251509E+04  0.26642251509E+04  0.00000000000E+00 0.  1.
         -2   -1    0    0    0  501 -0.00000000000E+00 -0.00000000000E+00 -0.23710784320E+03  0.23710784320E+03  0.00000000000E+00 0. -1.
         23    2    1    2    0    0 -0.68467925802E+03  0.39755241550E+03  0.11501328706E+04  0.13988274660E+04  0.84137091373E+02 0.  0.
         13    1    3    3    0    0 -0.15727966486E+03  0.13269801022E+03  0.28254688220E+03  0.34954026311E+03  0.00000000000E+00 0.  1.
        -13    1    3    3    0    0 -0.52739959316E+03  0.26485440528E+03  0.86758598840E+03  0.10492872029E+04  0.00000000000E+00 0. -1.
         22    1    1    2    0    0  0.68467925802E+03 -0.39755241550E+03  0.12769844371E+04  0.15025055282E+04  0.00000000000E+00 0. -1.
<mgrwt>
<rscale>  0 0.15896021E+04</rscale>
<asrwt>0</asrwt>
<pdfrwt beam="1">  1        2 0.40988077E+00 0.15896021E+04</pdfrwt>
<pdfrwt beam="2">  1       -2 0.36478132E-01 0.15896021E+04</pdfrwt>
<totfact> 0.18998217E+01</totfact>
</mgrwt>
</event>
<event>
 6    1  0.9313817E-004  0.2654940E+04  0.7818608E-02  0.8349775E-01
         -2   -1    0    0    0  501 -0.00000000000E+00  0.00000000000E+00  0.18035543224E+04  0.18035543224E+04  0.00000000000E+00 0. -1.
          2   -1    0    0  501    0  0.00000000000E+00 -0.00000000000E+00 -0.97705784545E+03  0.97705784545E+03  0.00000000000E+00 0.  1.
         23    2    1    2    0    0 -0.87826098960E+03 -0.97989166437E+03  0.58400677526E+03  0.14425795467E+04  0.91879243363E+02 0.  0.
         11    1    3    3    0    0 -0.57480516970E+03 -0.65016815034E+03  0.43188310462E+03  0.96935165079E+03  0.00000000000E+00 0. -1.
        -11    1    3    3    0    0 -0.30345581990E+03 -0.32972351403E+03  0.15212367064E+03  0.47322789595E+03  0.00000000000E+00 0.  1.
         22    1    1    2    0    0  0.87826098960E+03  0.97989166437E+03  0.24248970169E+03  0.13380326211E+04  0.00000000000E+00 0.  1.
<mgrwt>
<rscale>  0 0.26549402E+04</rscale>
<asrwt>0</asrwt>
<pdfrwt beam="1">  1        2 0.15031659E+00 0.26549402E+04</pdfrwt>
<pdfrwt beam="2">  1       -2 0.27746990E+00 0.26549402E+04</pdfrwt>
<totfact> 0.10014731E+00</totfact>
</mgrwt>
</event>
<event>
 6    1  0.4630212E-004  0.7648844E+03  0.7818608E-02  0.9612284E-01
          2   -1    0    0  501    0  0.00000000000E+00  0.00000000000E+00  0.53596287004E+03  0.53596287004E+03  0.00000000000E+00 0.  1.
         -2   -1    0    0    0  501 -0.00000000000E+00 -0.00000000000E+00 -0.27289581949E+03  0.27289581949E+03  0.00000000000E+00 0. -1.
         23    2    1    2    0    0  0.99725911501E+02  0.18252710260E+02 -0.25262244830E+03  0.28329796223E+03  0.78493408420E+02 0.  0.
         13    1    3    3    0    0  0.80318585841E+01  0.13922404677E-01 -0.12414847558E+03  0.12440801797E+03  0.00000000000E+00 0. -1.
        -13    1    3    3    0    0  0.91694052917E+02  0.18238787856E+02 -0.12847397272E+03  0.15888994427E+03  0.00000000000E+00 0.  1.
         22    1    1    2    0    0 -0.99725911501E+02 -0.18252710260E+02  0.51568949885E+03  0.52556072730E+03  0.00000000000E+00 0.  1.
<mgrwt>
<rscale>  0 0.76488437E+03</rscale>
<asrwt>0</asrwt>
<pdfrwt beam="1">  1        2 0.82455826E-01 0.76488437E+03</pdfrwt>
<pdfrwt beam="2">  1       -2 0.41983972E-01 0.76488437E+03</pdfrwt>
<totfact> 0.30736794E+02</totfact>
</mgrwt>
</event>
<event>
 6    1  0.4630212E-004  0.2258378E+04  0.7818608E-02  0.8494515E-01
         -2   -1    0    0    0  501 -0.00000000000E+00  0.00000000000E+00  0.12806692289E+04  0.12806692289E+04  0.00000000000E+00 0. -1.
          2   -1    0    0  501    0  0.00000000000E+00 -0.00000000000E+00 -0.99562582401E+03  0.99562582401E+03  0.00000000000E+00 0.  1.
         23    2    1    2    0    0 -0.29574419272E+03 -0.10037103929E+04 -0.28019097784E+03  0.10870141408E+04  0.90518384197E+02 0.  0.
         13    1    3    3    0    0 -0.65978329457E+02 -0.20282144108E+03 -0.20402471559E+02  0.21425670996E+03  0.00000000000E+00 0. -1.
        -13    1    3    3    0    0 -0.22976586326E+03 -0.80088895187E+03 -0.25978850628E+03  0.87275743088E+03  0.00000000000E+00 0.  1.
         22    1    1    2    0    0  0.29574419272E+03  0.10037103929E+04  0.56523438275E+03  0.11892809121E+04  0.00000000000E+00 0. -1.
<mgrwt>
<rscale>  0 0.22583776E+04</rscale>
<asrwt>0</asrwt>
<pdfrwt beam="1">  1        2 0.15317320E+00 0.22583776E+04</pdfrwt>
<pdfrwt beam="2">  1       -2 0.19702604E+00 0.22583776E+04</pdfrwt>
<totfact> 0.32083315E+00</totfact>
</mgrwt>
</event>
<event>
 6    1  0.4630212E-004  0.3833222E+04  0.7818608E-02  0.8039063E-01
          2   -1    0    0  501    0  0.00000000000E+00  0.00000000000E+00  0.32686019886E+04  0.32686019886E+04  0.00000000000E+00 0.  1.
         -2   -1    0    0    0  501 -0.00000000000E+00 -0.00000000000E+00 -0.11238437820E+04  0.11238437820E+04  0.00000000000E+00 0. -1.
         23    2    1    2    0    0  0.59522771731E+03 -0.28320714421E+03  0.31339226784E+04  0.32037705945E+04  0.90401029662E+02 0.  0.
         11    1    3    3    0    0  0.28422245760E+03 -0.90708306493E+02  0.13115383898E+04  0.13450439957E+04  0.00000000000E+00 0. -1.
        -11    1    3    3    0    0  0.31100525972E+03 -0.19249883771E+03  0.18223842885E+04  0.18587265988E+04  0.00000000000E+00 0.  1.
         22    1    1    2    0    0 -0.59522771731E+03  0.28320714421E+03 -0.98916447179E+03  0.11886751761E+04  0.00000000000E+00 0. -1.
<mgrwt>
<rscale>  0 0.38332222E+04</rscale>
<asrwt>0</asrwt>
<pdfrwt beam="1">  1        2 0.50286184E+00 0.38332222E+04</pdfrwt>
<pdfrwt beam="2">  1       -2 0.17289905E+00 0.38332222E+04</pdfrwt>
<totfact> 0.18976102E-01</totfact>
</mgrwt>
</event>
<event>
 6    1  0.4630212E-004  0.2727085E+04  0.7818608E-02  0.8326270E-01
         -2   -1    0    0    0  501 -0.00000000000E+00  0.00000000000E+00  0.66641765495E+03  0.66641765495E+03  0.00000000000E+00 0. -1.
          2   -1    0    0  501    0  0.00000000000E+00 -0.00000000000E+00 -0.27899144768E+04  0.27899144768E+04  0.00000000000E+00 0.  1.
         23    2    1    2    0    0  0.96747908407E+02 -0.93236633691E+03  0.18959865889E+03  0.96052007011E+03  0.89353285621E+02 0.  0.
         13    1    3    3    0    0  0.75643185041E+01 -0.41298978675E+03  0.55703949100E+02  0.41679816797E+03  0.00000000000E+00 0. -1.
        -13    1    3    3    0    0  0.89183589903E+02 -0.51937655016E+03  0.13389470979E+03  0.54372190214E+03  0.00000000000E+00 0.  1.
         22    1    1    2    0    0 -0.96747908407E+02  0.93236633691E+03 -0.23130954808E+04  0.24958120617E+04  0.00000000000E+00 0.  1.
<mgrwt>
<rscale>  0 0.27270851E+04</rscale>
<asrwt>0</asrwt>
<pdfrwt beam="1">  1        2 0.42921762E+00 0.27270851E+04</pdfrwt>
<pdfrwt beam="2">  1       -2 0.10252579E+00 0.27270851E+04</pdfrwt>
<totfact> 0.15972349E+00</totfact>
</mgrwt>
</event>
<event>
 6    1  0.4630212E-004  0.1244102E+04  0.7818608E-02  0.9075107E-01
          2   -1    0    0  501    0  0.00000000000E+00  0.00000000000E+00  0.43117612564E+04  0.43117612564E+04  0.00000000000E+00 0.  1.
         -2   -1    0    0    0  501 -0.00000000000E+00 -0.00000000000E+00 -0.89742246670E+02  0.89742246670E+02  0.00000000000E+00 0. -1.
         23    2    1    2    0    0 -0.57307739566E+03 -0.23210158511E+03  0.22001406706E+04  0.22871996305E+04  0.91511377456E+02 0.  0.
         11    1    3    3    0    0 -0.28393711247E+03 -0.14628406451E+03  0.12606190694E+04  0.13004536707E+04  0.00000000000E+00 0.  1.
        -11    1    3    3    0    0 -0.28914028319E+03 -0.85817520607E+02  0.93952160120E+03  0.98674595987E+03  0.00000000000E+00 0. -1.
         22    1    1    2    0    0  0.57307739566E+03  0.23210158511E+03  0.20218783391E+04  0.21143038725E+04  0.00000000000E+00 0. -1.
<mgrwt>
<rscale>  0 0.12441015E+04</rscale>
<asrwt>0</asrwt>
<pdfrwt beam="1">  1        2 0.66334773E+00 0.12441015E+04</pdfrwt>
<pdfrwt beam="2">  1       -2 0.13806503E-01 0.12441015E+04</pdfrwt>
<totfact> 0.77082715E+00</totfact>
</mgrwt>
</event>
<event>
 6    1  0.4630212E-004  0.8067410E+03  0.7818608E-02  0.9550311E-01
          2   -1    0    0  501    0  0.00000000000E+00  0.00000000000E+00  0.11828516261E+04  0.11828516261E+04  0.00000000000E+00 0.  1.
         -2   -1    0    0    0  501 -0.00000000000E+00 -0.00000000000E+00 -0.13755550538E+03  0.13755550538E+03  0.00000000000E+00 0. -1.
         23    2    1    2    0    0  0.36277013587E+03 -0.15389688490E+03  0.62193635302E+03  0.74203016481E+03  0.92290387541E+02 0.  0.
         11    1    3    3    0    0  0.11320856703E+03 -0.72867747783E+02  0.14629909650E+03  0.19881980272E+03  0.00000000000E+00 0. -1.
        -11    1    3    3    0    0  0.24956156883E+03 -0.81029137114E+02  0.47563725652E+03  0.54321036209E+03  0.00000000000E+00 0.  1.
         22    1    1    2    0    0 -0.36277013587E+03  0.15389688490E+03  0.42335976772E+03  0.57837696668E+03  0.00000000000E+00 0. -1.
<mgrwt>
<rscale>  0 0.80674098E+03</rscale>
<asrwt>0</asrwt>
<pdfrwt beam="1">  1        2 0.18197717E+00 0.80674098E+03</pdfrwt>
<pdfrwt beam="2">  1       -2 0.21162386E-01 0.80674098E+03</pdfrwt>
<totfact> 0.37674468E+02</totfact>
</mgrwt>
</event>
<event>
 6    1  0.4630212E-004  0.2328124E+04  0.7818608E-02  0.8466914E-01
          2   -1    0    0  501    0  0.00000000000E+00  0.00000000000E+00  0.10370519514E+04  0.10370519514E+04  0.00000000000E+00 0.  1.
         -2   -1    0    0    0  501 -0.00000000000E+00 -0.00000000000E+00 -0.13066271776E+04  0.13066271776E+04  0.00000000000E+00 0. -1.
         23    2    1    2    0    0 -0.39619331125E+03 -0.75565569786E+03  0.65906048171E+03  0.10825887471E+04  0.98249697733E+02 0.  0.
         11    1    3    3    0    0 -0.80025165169E+02 -0.24590885784E+03  0.18314963294E+03  0.31688954144E+03  0.00000000000E+00 0.  1.
        -11    1    3    3    0    0 -0.31616814608E+03 -0.50974684002E+03  0.47591084877E+03  0.76569920562E+03  0.00000000000E+00 0. -1.
         22    1    1    2    0    0  0.39619331125E+03  0.75565569786E+03 -0.92863570785E+03  0.12610903820E+04  0.00000000000E+00 0. -1.
<mgrwt>
<rscale>  0 0.23281239E+04</rscale>
<asrwt>0</asrwt>
<pdfrwt beam="1">  1        2 0.15954645E+00 0.23281239E+04</pdfrwt>
<pdfrwt beam="2">  1       -2 0.20101957E+00 0.23281239E+04</pdfrwt>
<totfact> 0.28252179E+00</totfact>
</mgrwt>
</event>
<event>
 6    1  0.4630212E-004  0.3962090E+04  0.7818608E-02  0.8012238E-01
         -2   -1    0    0    0  501 -0.00000000000E+00  0.00000000000E+00  0.14178207960E+04  0.14178207960E+04  0.00000000000E+00 0. -1.
          2   -1    0    0  501    0  0.00000000000E+00 -0.00000000000E+00 -0.27680077491E+04  0.27680077491E+04  0.00000000000E+00 0.  1.
         23    2    1    2    0    0 -0.12467220827E+04 -0.39218842573E+03 -0.22467747315E+04  0.26009003584E+04  0.92510906652E+02 0.  0.
         13    1    3    3    0    0 -0.57007078763E+03 -0.20182080679E+03 -0.11204287176E+04  0.12732135925E+04  0.00000000000E+00 0.  1.
        -13    1    3    3    0    0 -0.67665129507E+03 -0.19036761894E+03 -0.11263460139E+04  0.13276867659E+04  0.00000000000E+00 0. -1.
         22    1    1    2    0    0  0.12467220827E+04  0.39218842573E+03  0.89658777836E+03  0.15849281867E+04  0.00000000000E+00 0. -1.
<mgrwt>
<rscale>  0 0.39620898E+04</rscale>
<asrwt>0</asrwt>
<pdfrwt beam="1">  1        2 0.42584734E+00 0.39620898E+04</pdfrwt>
<pdfrwt beam="2">  1       -2 0.21812628E+00 0.39620898E+04</pdfrwt>
<totfact> 0.19428102E-01</totfact>
</mgrwt>
</event>
<event>
 6    1  0.4630212E-004  0.2994851E+04  0.7818608E-02  0.8245203E-01
         -2   -1    0    0    0  501 -0.00000000000E+00  0.00000000000E+00  0.61709759385E+03  0.61709759385E+03  0.00000000000E+00 0. -1.
          2   -1    0    0  501    0  0.00000000000E+00 -0.00000000000E+00 -0.36335958332E+04  0.36335958332E+04  0.00000000000E+00 0.  1.
         23    2    1    2    0    0 -0.10012613258E+04 -0.82364016786E+03 -0.25695435615E+04  0.28793160710E+04  0.83663337037E+02 0.  0.
         13    1    3    3    0    0 -0.66014270899E+03 -0.59244197184E+03 -0.17714379408E+04  0.19811027899E+04  0.00000000000E+00 0. -1.
        -13    1    3    3    0    0 -0.34111861677E+03 -0.23119819602E+03 -0.79810562070E+03  0.89821328110E+03  0.00000000000E+00 0.  1.
         22    1    1    2    0    0  0.10012613258E+04  0.82364016786E+03 -0.44695467789E+03  0.13713773560E+04  0.00000000000E+00 0. -1.
<mgrwt>
<rscale>  0 0.29948511E+04</rscale>
<asrwt>0</asrwt>
<pdfrwt beam="1">  1        2 0.55901475E+00 0.29948511E+04</pdfrwt>
<pdfrwt beam="2">  1       -2 0.94938090E-01 0.29948511E+04</pdfrwt>
<totfact> 0.52148570E-01</totfact>
</mgrwt>
</event>
<event>
 6    1  0.4630212E-004  0.1401516E+04  0.7818608E-02  0.8952722E-01
          1   -1    0    0  501    0  0.00000000000E+00  0.00000000000E+00  0.10379935563E+04  0.10379935563E+04  0.00000000000E+00 0.  1.
         -1   -1    0    0    0  501 -0.00000000000E+00 -0.00000000000E+00 -0.47308772121E+03  0.47308772121E+03  0.00000000000E+00 0. -1.
         23    2    1    2    0    0  0.40748979498E+03 -0.33748808271E+03 -0.20679211768E+03  0.57541901511E+03  0.91640187842E+02 0.  0.
         13    1    3    3    0    0  0.39366564070E+03 -0.32167450171E+03 -0.17567103547E+03  0.53787306534E+03  0.00000000000E+00 0.  1.
        -13    1    3    3    0    0  0.13824154279E+02 -0.15813581002E+02 -0.31121082214E+02  0.37545949766E+02  0.00000000000E+00 0. -1.
         22    1    1    2    0    0 -0.40748979498E+03  0.33748808271E+03  0.77169795276E+03  0.93566226240E+03  0.00000000000E+00 0.  1.
<mgrwt>
<rscale>  0 0.14015163E+04</rscale>
<asrwt>0</asrwt>
<pdfrwt beam="1">  1        1 0.15969132E+00 0.14015163E+04</pdfrwt>
<pdfrwt beam="2">  1       -1 0.72782726E-01 0.14015163E+04</pdfrwt>
<totfact> 0.26238631E+01</totfact>
</mgrwt>
</event>
<event>
 6    1  0.4630212E-004  0.1843976E+04  0.7818608E-02  0.8683257E-01
         -2   -1    0    0    0  501 -0.00000000000E+00  0.00000000000E+00  0.30020309142E+03  0.30020309142E+03  0.00000000000E+00 0. -1.
          2   -1    0    0  501    0  0.00000000000E+00 -0.00000000000E+00 -0.28316225122E+04  0.28316225122E+04  0.00000000000E+00 0.  1.
         23    2    1    2    0    0  0.47142593694E+03 -0.79602197263E+02 -0.26032958780E+04  0.26483536304E+04  0.89713984715E+02 0.  0.
         11    1    3    3    0    0  0.43156122690E+03 -0.97514880641E+02 -0.23413937493E+04  0.23828300262E+04  0.00000000000E+00 0. -1.
        -11    1    3    3    0    0  0.39864710035E+02  0.17912683378E+02 -0.26190212877E+03  0.26552360420E+03  0.00000000000E+00 0.  1.
         22    1    1    2    0    0 -0.47142593694E+03  0.79602197263E+02  0.71876457246E+02  0.48347197326E+03  0.00000000000E+00 0. -1.
<mgrwt>
<rscale>  0 0.18439760E+04</rscale>
<asrwt>0</asrwt>
<pdfrwt beam="1">  1        2 0.43563424E+00 0.18439760E+04</pdfrwt>
<pdfrwt beam="2">  1       -2 0.46185090E-01 0.18439760E+04</pdfrwt>
<totfact> 0.92744574E+00</totfact>
</mgrwt>
</event>
<event>
 6    1  0.4630212E-004  0.2988453E+04  0.7818608E-02  0.8247036E-01
         -2   -1    0    0    0  501 -0.00000000000E+00  0.00000000000E+00  0.10099598195E+04  0.10099598195E+04  0.00000000000E+00 0. -1.
          2   -1    0    0  501    0  0.00000000000E+00 -0.00000000000E+00 -0.22106946194E+04  0.22106946194E+04  0.00000000000E+00 0.  1.
         23    2    1    2    0    0  0.10575938741E+04 -0.15358634523E+03 -0.17242889353E+04  0.20306113721E+04  0.90092419579E+02 0.  0.
         11    1    3    3    0    0  0.60908942829E+03 -0.61270769458E+02 -0.91857005194E+03  0.11038636597E+04  0.00000000000E+00 0.  1.
        -11    1    3    3    0    0  0.44850444584E+03 -0.92315575769E+02 -0.80571888341E+03  0.92674771246E+03  0.00000000000E+00 0. -1.
         22    1    1    2    0    0 -0.10575938741E+04  0.15358634523E+03  0.52355413541E+03  0.11900430668E+04  0.00000000000E+00 0. -1.
<mgrwt>
<rscale>  0 0.29884529E+04</rscale>
<asrwt>0</asrwt>
<pdfrwt beam="1">  1        2 0.34010686E+00 0.29884529E+04</pdfrwt>
<pdfrwt beam="2">  1       -2 0.15537843E+00 0.29884529E+04</pdfrwt>
<totfact> 0.11900365E+00</totfact>
</mgrwt>
</event>
<event>
 6    1  0.4630212E-004  0.2086769E+04  0.7818608E-02  0.8567094E-01
          2   -1    0    0  501    0  0.00000000000E+00  0.00000000000E+00  0.20608756297E+04  0.20608756297E+04  0.00000000000E+00 0.  1.
         -2   -1    0    0    0  501 -0.00000000000E+00 -0.00000000000E+00 -0.52824694767E+03  0.52824694767E+03  0.00000000000E+00 0. -1.
         23    2    1    2    0    0  0.17342761527E+03  0.93679950698E+03  0.24609042604E+03  0.98823184465E+03  0.91494409514E+02 0.  0.
         11    1    3    3    0    0  0.76468812037E+02  0.54287191655E+03  0.10148245101E+03  0.55754469315E+03  0.00000000000E+00 0.  1.
        -11    1    3    3    0    0  0.96958803229E+02  0.39392759043E+03  0.14460797503E+03  0.43068715150E+03  0.00000000000E+00 0. -1.
         22    1    1    2    0    0 -0.17342761527E+03 -0.93679950698E+03  0.12865382560E+04  0.16008907327E+04  0.00000000000E+00 0. -1.
<mgrwt>
<rscale>  0 0.20867690E+04</rscale>
<asrwt>0</asrwt>
<pdfrwt beam="1">  1        2 0.31705779E+00 0.20867690E+04</pdfrwt>
<pdfrwt beam="2">  1       -2 0.81268762E-01 0.20867690E+04</pdfrwt>
<totfact> 0.76044308E+00</totfact>
</mgrwt>
</event>
<event>
 6    1  0.4630212E-004  0.8663635E+03  0.7818608E-02  0.9468634E-01
          2   -1    0    0  501    0  0.00000000000E+00  0.00000000000E+00  0.43793303526E+03  0.43793303526E+03  0.00000000000E+00 0.  1.
         -2   -1    0    0    0  501 -0.00000000000E+00 -0.00000000000E+00 -0.42848204451E+03  0.42848204451E+03  0.00000000000E+00 0. -1.
         23    2    1    2    0    0  0.28440633541E+03  0.22387970936E+03 -0.22448359884E+03  0.43544584642E+03  0.90615181577E+02 0.  0.
         11    1    3    3    0    0  0.12991391295E+03  0.15950053852E+03 -0.12691091557E+03  0.24171145413E+03  0.00000000000E+00 0.  1.
        -11    1    3    3    0    0  0.15449242246E+03  0.64379170838E+02 -0.97572683276E+02  0.19373439229E+03  0.00000000000E+00 0. -1.
         22    1    1    2    0    0 -0.28440633541E+03 -0.22387970936E+03  0.23393458959E+03  0.43096923335E+03  0.00000000000E+00 0.  1.
<mgrwt>
<rscale>  0 0.86636353E+03</rscale>
<asrwt>0</asrwt>
<pdfrwt beam="1">  1        2 0.67374313E-01 0.86636353E+03</pdfrwt>
<pdfrwt beam="2">  1       -2 0.65920315E-01 0.86636353E+03</pdfrwt>
<totfact> 0.15277751E+02</totfact>
</mgrwt>
</event>
<event>
 6    1  0.4630212E-004  0.2103829E+04  0.7818608E-02  0.8559558E-01
          2   -1    0    0  501    0  0.00000000000E+00  0.00000000000E+00  0.10364661604E+04  0.10364661604E+04  0.00000000000E+00 0.  1.
         -2   -1    0    0    0  501 -0.00000000000E+00 -0.00000000000E+00 -0.10675935217E+04  0.10675935217E+04  0.00000000000E+00 0. -1.
         23    2    1    2    0    0 -0.30366699907E+02 -0.43213756475E+03  0.94089795687E+03  0.10398706808E+04  0.91526260179E+02 0.  0.
         11    1    3    3    0    0  0.18129697355E+02 -0.18666442082E+03  0.48178495988E+03  0.51700003819E+03  0.00000000000E+00 0. -1.
        -11    1    3    3    0    0 -0.48496397261E+02 -0.24547314394E+03  0.45911299700E+03  0.52287064266E+03  0.00000000000E+00 0.  1.
         22    1    1    2    0    0  0.30366699907E+02  0.43213756475E+03 -0.97202531817E+03  0.10641890013E+04  0.00000000000E+00 0. -1.
<mgrwt>
<rscale>  0 0.21038294E+04</rscale>
<asrwt>0</asrwt>
<pdfrwt beam="1">  1        2 0.15945633E+00 0.21038294E+04</pdfrwt>
<pdfrwt beam="2">  1       -2 0.16424516E+00 0.21038294E+04</pdfrwt>
<totfact> 0.51560785E+00</totfact>
</mgrwt>
</event>
<event>
 6    1  0.4630212E-004  0.6696549E+03  0.7818608E-02  0.9770582E-01
         -2   -1    0    0    0  501 -0.00000000000E+00  0.00000000000E+00  0.17473951920E+03  0.17473951920E+03  0.00000000000E+00 0. -1.
          2   -1    0    0  501    0  0.00000000000E+00 -0.00000000000E+00 -0.64158017177E+03  0.64158017177E+03  0.00000000000E+00 0.  1.
         23    2    1    2    0    0  0.14407463816E+03  0.12927574410E+03  0.87331778196E+02  0.22931304501E+03  0.86532732259E+02 0.  0.
         11    1    3    3    0    0  0.41853682515E+02  0.93242730651E+02  0.55740143275E+02  0.11641692803E+03  0.00000000000E+00 0.  1.
        -11    1    3    3    0    0  0.10222095565E+03  0.36033013454E+02  0.31591634921E+02  0.11289611698E+03  0.00000000000E+00 0. -1.
         22    1    1    2    0    0 -0.14407463816E+03 -0.12927574410E+03 -0.55417243077E+03  0.58700664596E+03  0.00000000000E+00 0.  1.
<mgrwt>
<rscale>  0 0.66965487E+03</rscale>
<asrwt>0</asrwt>
<pdfrwt beam="1">  1        2 0.98704643E-01 0.66965487E+03</pdfrwt>
<pdfrwt beam="2">  1       -2 0.26883003E-01 0.66965487E+03</pdfrwt>
<totfact> 0.57720412E+02</totfact>
</mgrwt>
</event>
<event>
 6    1  0.4630212E-004  0.2260414E+04  0.7818608E-02  0.8493695E-01
         -2   -1    0    0    0  501 -0.00000000000E+00  0.00000000000E+00  0.16226800815E+04  0.16226800815E+04  0.00000000000E+00 0. -1.
          2   -1    0    0  501    0  0.00000000000E+00 -0.00000000000E+00 -0.78719649449E+03  0.78719649449E+03  0.00000000000E+00 0.  1.
         23    2    1    2    0    0  0.62622636013E+03  0.23544257781E+03  0.13871303816E+04  0.15427509521E+04  0.91417412123E+02 0.  0.
         11    1    3    3    0    0  0.42367918086E+03  0.16101124986E+03  0.10329121017E+04  0.11279787590E+04  0.00000000000E+00 0. -1.
        -11    1    3    3    0    0  0.20254717927E+03  0.74431327952E+02  0.35421827988E+03  0.41477219315E+03  0.00000000000E+00 0.  1.
         22    1    1    2    0    0 -0.62622636013E+03 -0.23544257781E+03 -0.55164679457E+03  0.86712562385E+03  0.00000000000E+00 0.  1.
<mgrwt>
<rscale>  0 0.22604142E+04</rscale>
<asrwt>0</asrwt>
<pdfrwt beam="1">  1        2 0.12110715E+00 0.22604142E+04</pdfrwt>
<pdfrwt beam="2">  1       -2 0.24964309E+00 0.22604142E+04</pdfrwt>
<totfact> 0.20670037E+00</totfact>
</mgrwt>
</event>
<event>
 6    1  0.4630212E-004  0.2590435E+04  0.7818608E-02  0.8371457E-01
         -2   -1    0    0    0  501 -0.00000000000E+00  0.00000000000E+00  0.13183791655E+04  0.13183791655E+04  0.00000000000E+00 0. -1.
          2   -1    0    0  501    0  0.00000000000E+00 -0.00000000000E+00 -0.12724632142E+04  0.12724632142E+04  0.00000000000E+00 0.  1.
         23    2    1    2    0    0  0.81380484785E+03 -0.99852215949E+03  0.14267735811E+03  0.12990654627E+04  0.88822376191E+02 0.  0.
         13    1    3    3    0    0  0.34783096426E+03 -0.36315732224E+03  0.39367027671E+02  0.50440002306E+03  0.00000000000E+00 0. -1.
        -13    1    3    3    0    0  0.46597388360E+03 -0.63536483725E+03  0.10331033043E+03  0.79466543965E+03  0.00000000000E+00 0.  1.
         22    1    1    2    0    0 -0.81380484785E+03  0.99852215949E+03 -0.96761406896E+02  0.12917769170E+04  0.00000000000E+00 0. -1.
<mgrwt>
<rscale>  0 0.25904355E+04</rscale>
<asrwt>0</asrwt>
<pdfrwt beam="1">  1        2 0.19576357E+00 0.25904355E+04</pdfrwt>
<pdfrwt beam="2">  1       -2 0.20282756E+00 0.25904355E+04</pdfrwt>
<totfact> 0.19357304E+00</totfact>
</mgrwt>
</event>
<event>
 6    1  0.4630212E-004  0.2090662E+04  0.7818608E-02  0.8565368E-01
         -2   -1    0    0    0  501 -0.00000000000E+00  0.00000000000E+00  0.63987423925E+03  0.63987423925E+03  0.00000000000E+00 0. -1.
          2   -1    0    0  501    0  0.00000000000E+00 -0.00000000000E+00 -0.17077057389E+04  0.17077057389E+04  0.00000000000E+00 0.  1.
         23    2    1    2    0    0 -0.76799178606E+03 -0.47175872582E+03 -0.11250856396E+04  0.14444489160E+04  0.90814621931E+02 0.  0.
         11    1    3    3    0    0 -0.25618077747E+03 -0.20052222003E+03 -0.44236582922E+03  0.54911317443E+03  0.00000000000E+00 0. -1.
        -11    1    3    3    0    0 -0.51181100859E+03 -0.27123650579E+03 -0.68271981042E+03  0.89533574156E+03  0.00000000000E+00 0.  1.
         22    1    1    2    0    0  0.76799178606E+03  0.47175872582E+03  0.57254140012E+02  0.90313106213E+03  0.00000000000E+00 0. -1.
<mgrwt>
<rscale>  0 0.20906620E+04</rscale>
<asrwt>0</asrwt>
<pdfrwt beam="1">  1        2 0.26272396E+00 0.20906620E+04</pdfrwt>
<pdfrwt beam="2">  1       -2 0.98442191E-01 0.20906620E+04</pdfrwt>
<totfact> 0.76773916E+00</totfact>
</mgrwt>
</event>
<event>
 6    1  0.4630212E-004  0.1216036E+04  0.7818608E-02  0.9098935E-01
         -2   -1    0    0    0  501 -0.00000000000E+00  0.00000000000E+00  0.15285689631E+03  0.15285689631E+03  0.00000000000E+00 0. -1.
          2   -1    0    0  501    0  0.00000000000E+00 -0.00000000000E+00 -0.24185111724E+04  0.24185111724E+04  0.00000000000E+00 0.  1.
         23    2    1    2    0    0 -0.81155378261E+02  0.49527496787E+03 -0.42537676170E+03  0.66388154996E+03  0.88937246195E+02 0.  0.
         11    1    3    3    0    0  0.14466666975E+02  0.68671333494E+02 -0.82249016695E+02  0.10812001315E+03  0.00000000000E+00 0. -1.
        -11    1    3    3    0    0 -0.95622045236E+02  0.42660363438E+03 -0.34312774501E+03  0.55576153681E+03  0.00000000000E+00 0.  1.
         22    1    1    2    0    0  0.81155378261E+02 -0.49527496787E+03 -0.18402775144E+04  0.19074865187E+04  0.00000000000E+00 0.  1.
<mgrwt>
<rscale>  0 0.12160364E+04</rscale>
<asrwt>0</asrwt>
<pdfrwt beam="1">  1        2 0.37207865E+00 0.12160364E+04</pdfrwt>
<pdfrwt beam="2">  1       -2 0.23516445E-01 0.12160364E+04</pdfrwt>
<totfact> 0.61587232E+01</totfact>
</mgrwt>
</event>
<event>
 6    1  0.4630212E-004  0.3727146E+04  0.7818608E-02  0.8061972E-01
          2   -1    0    0  501    0  0.00000000000E+00  0.00000000000E+00  0.23699916950E+04  0.23699916950E+04  0.00000000000E+00 0.  1.
         -2   -1    0    0    0  501 -0.00000000000E+00 -0.00000000000E+00 -0.14653656554E+04  0.14653656554E+04  0.00000000000E+00 0. -1.
         23    2    1    2    0    0  0.15493864697E+04 -0.79509211931E+03 -0.22719998653E+03  0.17583883896E+04  0.86833081747E+02 0.  0.
         13    1    3    3    0    0  0.14019600572E+04 -0.72839858812E+03 -0.18171798148E+03  0.15903074954E+04  0.00000000000E+00 0. -1.
        -13    1    3    3    0    0  0.14742641249E+03 -0.66693531186E+02 -0.45482005049E+02  0.16808089417E+03  0.00000000000E+00 0.  1.
         22    1    1    2    0    0 -0.15493864697E+04  0.79509211931E+03  0.11318260262E+04  0.20769689608E+04  0.00000000000E+00 0.  1.
<mgrwt>
<rscale>  0 0.37271461E+04</rscale>
<asrwt>0</asrwt>
<pdfrwt beam="1">  1        2 0.36461410E+00 0.37271461E+04</pdfrwt>
<pdfrwt beam="2">  1       -2 0.22544087E+00 0.37271461E+04</pdfrwt>
<totfact> 0.30465029E-01</totfact>
</mgrwt>
</event>
<event>
 6    1  0.4630212E-004  0.3068885E+04  0.7818608E-02  0.8224329E-01
          2   -1    0    0  501    0  0.00000000000E+00  0.00000000000E+00  0.28886488752E+04  0.28886488752E+04  0.00000000000E+00 0.  1.
         -2   -1    0    0    0  501 -0.00000000000E+00 -0.00000000000E+00 -0.81509171534E+03  0.81509171534E+03  0.00000000000E+00 0. -1.
         23    2    1    2    0    0 -0.31378172774E+03 -0.11546700137E+04 -0.11899139185E+03  0.12059433680E+04  0.91753159228E+02 0.  0.
         13    1    3    3    0    0 -0.59989925870E+02 -0.36613112111E+03 -0.18192890866E+02  0.37145897529E+03  0.00000000000E+00 0. -1.
        -13    1    3    3    0    0 -0.25379180187E+03 -0.78853889263E+03 -0.10079850099E+03  0.83448439271E+03  0.00000000000E+00 0.  1.
         22    1    1    2    0    0  0.31378172774E+03  0.11546700137E+04  0.21925485517E+04  0.24977972226E+04  0.00000000000E+00 0.  1.
<mgrwt>
<rscale>  0 0.30688850E+04</rscale>
<asrwt>0</asrwt>
<pdfrwt beam="1">  1        2 0.44440751E+00 0.30688850E+04</pdfrwt>
<pdfrwt beam="2">  1       -2 0.12539873E+00 0.30688850E+04</pdfrwt>
<totfact> 0.82615927E-01</totfact>
</mgrwt>
</event>
<event>
 6    1  0.4630212E-004  0.3010964E+04  0.7818608E-02  0.8240607E-01
          2   -1    0    0  501    0  0.00000000000E+00  0.00000000000E+00  0.42909792218E+04  0.42909792218E+04  0.00000000000E+00 0.  1.
         -2   -1    0    0    0  501 -0.00000000000E+00 -0.00000000000E+00 -0.52819565478E+03  0.52819565478E+03  0.00000000000E+00 0. -1.
         23    2    1    2    0    0  0.73188329663E+03  0.10394031472E+04  0.59623799352E+03  0.14069874651E+04  0.90010663658E+02 0.  0.
         13    1    3    3    0    0  0.47932834690E+03  0.74566480528E+03  0.43443342464E+03  0.98716972523E+03  0.00000000000E+00 0.  1.
        -13    1    3    3    0    0  0.25255494973E+03  0.29373834194E+03  0.16180456889E+03  0.41981773982E+03  0.00000000000E+00 0. -1.
         22    1    1    2    0    0 -0.73188329663E+03 -0.10394031472E+04  0.31665455735E+04  0.34121874115E+04  0.00000000000E+00 0.  1.
<mgrwt>
<rscale>  0 0.30109644E+04</rscale>
<asrwt>0</asrwt>
<pdfrwt beam="1">  1        2 0.66015063E+00 0.30109644E+04</pdfrwt>
<pdfrwt beam="2">  1       -2 0.81260872E-01 0.30109644E+04</pdfrwt>
<totfact> 0.22039162E-01</totfact>
</mgrwt>
</event>
<event>
 6    1  0.4630212E-004  0.5019274E+04  0.7818608E-02  0.7825541E-01
         -2   -1    0    0    0  501 -0.00000000000E+00  0.00000000000E+00  0.37593943474E+04  0.37593943474E+04  0.00000000000E+00 0. -1.
          2   -1    0    0  501    0  0.00000000000E+00 -0.00000000000E+00 -0.16753434984E+04  0.16753434984E+04  0.00000000000E+00 0.  1.
         23    2    1    2    0    0  0.12975586691E+04  0.42719030475E+03  0.33204391636E+04  0.35922378809E+04  0.11272398931E+03 0.  0.
         13    1    3    3    0    0  0.55795015898E+03  0.22132470634E+03  0.13450091352E+04  0.14728688262E+04  0.00000000000E+00 0.  1.
        -13    1    3    3    0    0  0.73960851008E+03  0.20586559841E+03  0.19754300284E+04  0.21193690547E+04  0.00000000000E+00 0. -1.
         22    1    1    2    0    0 -0.12975586691E+04 -0.42719030475E+03 -0.12363883146E+04  0.18424999649E+04  0.00000000000E+00 0.  1.
<mgrwt>
<rscale>  0 0.50192736E+04</rscale>
<asrwt>0</asrwt>
<pdfrwt beam="1">  1        2 0.25774515E+00 0.50192736E+04</pdfrwt>
<pdfrwt beam="2">  1       -2 0.57836836E+00 0.50192736E+04</pdfrwt>
<totfact> 0.46473164E-03</totfact>
</mgrwt>
</event>
<event>
 6    1  0.4630212E-004  0.1856713E+04  0.7818608E-02  0.8676708E-01
          2   -1    0    0  501    0  0.00000000000E+00  0.00000000000E+00  0.10155851719E+04  0.10155851719E+04  0.00000000000E+00 0. -1.
         -2   -1    0    0    0  501 -0.00000000000E+00 -0.00000000000E+00 -0.84861966569E+03  0.84861966569E+03  0.00000000000E+00 0.  1.
         23    2    1    2    0    0 -0.20488174402E+03  0.61342202690E+03 -0.58187238282E+03  0.87474978750E+03  0.91370721360E+02 0.  0.
         11    1    3    3    0    0 -0.17521674096E+03  0.43471907326E+03 -0.37891930871E+03  0.60271172337E+03  0.00000000000E+00 0. -1.
        -11    1    3    3    0    0 -0.29665003052E+02  0.17870295364E+03 -0.20295307411E+03  0.27203806413E+03  0.00000000000E+00 0.  1.
         22    1    1    2    0    0  0.20488174402E+03 -0.61342202690E+03  0.74883788903E+03  0.98945505010E+03  0.00000000000E+00 0. -1.
<mgrwt>
<rscale>  0 0.18567127E+04</rscale>
<asrwt>0</asrwt>
<pdfrwt beam="1">  1        2 0.15624387E+00 0.18567127E+04</pdfrwt>
<pdfrwt beam="2">  1       -2 0.13055687E+00 0.18567127E+04</pdfrwt>
<totfact> 0.99388173E+00</totfact>
</mgrwt>
</event>
<event>
 6    1  0.4630212E-004  0.2393264E+04  0.7818608E-02  0.8442030E-01
         -4   -1    0    0    0  501 -0.00000000000E+00  0.00000000000E+00  0.14629734077E+04  0.14629734077E+04  0.00000000000E+00 0. -1.
          4   -1    0    0  501    0  0.00000000000E+00 -0.00000000000E+00 -0.97877933997E+03  0.97877933997E+03  0.00000000000E+00 0.  1.
         23    2    1    2    0    0  0.12642805132E+03  0.71005459405E+03 -0.72936435870E+03  0.10300567347E+04  0.94249298431E+02 0.  0.
         11    1    3    3    0    0  0.30150068047E+02  0.28231065256E+03 -0.34660393638E+03  0.44804310046E+03  0.00000000000E+00 0. -1.
        -11    1    3    3    0    0  0.96277983273E+02  0.42774394149E+03 -0.38276042232E+03  0.58201363423E+03  0.00000000000E+00 0.  1.
         22    1    1    2    0    0 -0.12642805132E+03 -0.71005459405E+03  0.12135584264E+04  0.14116960130E+04  0.00000000000E+00 0. -1.
<mgrwt>
<rscale>  0 0.23932640E+04</rscale>
<asrwt>0</asrwt>
<pdfrwt beam="1">  1        4 0.15058144E+00 0.23932640E+04</pdfrwt>
<pdfrwt beam="2">  1       -4 0.22507283E+00 0.23932640E+04</pdfrwt>
<totfact> 0.47948918E-02</totfact>
</mgrwt>
</event>
<event>
 6    1  0.4630212E-004  0.1753298E+04  0.7818608E-02  0.8731537E-01
         -2   -1    0    0    0  501 -0.00000000000E+00  0.00000000000E+00  0.19364178293E+04  0.19364178293E+04  0.00000000000E+00 0. -1.
          2   -1    0    0  501    0  0.00000000000E+00 -0.00000000000E+00 -0.39687375781E+03  0.39687375781E+03  0.00000000000E+00 0.  1.
         23    2    1    2    0    0 -0.40263583492E+03  0.77601650298E+03  0.76513311997E+03  0.11653748306E+04  0.91392428313E+02 0.  0.
         13    1    3    3    0    0 -0.27365025450E+02  0.11893781271E+03  0.11662903950E+03  0.16881167248E+03  0.00000000000E+00 0. -1.
        -13    1    3    3    0    0 -0.37527080947E+03  0.65707869026E+03  0.64850408048E+03  0.99656315807E+03  0.00000000000E+00 0.  1.
         22    1    1    2    0    0  0.40263583492E+03 -0.77601650298E+03  0.77441095156E+03  0.11679167566E+04  0.00000000000E+00 0.  1.
<mgrwt>
<rscale>  0 0.17532979E+04</rscale>
<asrwt>0</asrwt>
<pdfrwt beam="1">  1        2 0.61057502E-01 0.17532979E+04</pdfrwt>
<pdfrwt beam="2">  1       -2 0.29791043E+00 0.17532979E+04</pdfrwt>
<totfact> 0.24930736E+00</totfact>
</mgrwt>
</event>
<event>
 6    1  0.4630212E-004  0.2700262E+04  0.7818608E-02  0.8334920E-01
          2   -1    0    0  501    0  0.00000000000E+00  0.00000000000E+00  0.16731590170E+04  0.16731590170E+04  0.00000000000E+00 0. -1.
         -2   -1    0    0    0  501 -0.00000000000E+00 -0.00000000000E+00 -0.10894683876E+04  0.10894683876E+04  0.00000000000E+00 0.  1.
         23    2    1    2    0    0 -0.97044052495E+03 -0.17361045834E+03  0.12336562846E+04  0.15818011022E+04  0.91057643431E+02 0.  0.
         13    1    3    3    0    0 -0.65637545954E+03 -0.10295619660E+03  0.76506340525E+03  0.10132870947E+04  0.00000000000E+00 0.  1.
        -13    1    3    3    0    0 -0.31406506540E+03 -0.70654261741E+02  0.46859287939E+03  0.56851400741E+03  0.00000000000E+00 0. -1.
         22    1    1    2    0    0  0.97044052495E+03  0.17361045834E+03 -0.64996565518E+03  0.11808263025E+04  0.00000000000E+00 0.  1.
<mgrwt>
<rscale>  0 0.27002621E+04</rscale>
<asrwt>0</asrwt>
<pdfrwt beam="1">  1        2 0.25740908E+00 0.27002621E+04</pdfrwt>
<pdfrwt beam="2">  1       -2 0.16761052E+00 0.27002621E+04</pdfrwt>
<totfact> 0.19743903E+00</totfact>
</mgrwt>
</event>
<event>
 6    1  0.5788515E-004  0.2415874E+04  0.7818608E-02  0.8433584E-01
          2   -1    0    0  501    0  0.00000000000E+00  0.00000000000E+00  0.11497173137E+04  0.11497173137E+04  0.00000000000E+00 0.  1.
         -2   -1    0    0    0  501 -0.00000000000E+00 -0.00000000000E+00 -0.12691045435E+04  0.12691045435E+04  0.00000000000E+00 0. -1.
         23    2    1    2    0    0 -0.39381995321E+02  0.56052513829E+03  0.10086538865E+04  0.11585773840E+04  0.95809810851E+02 0.  0.
         13    1    3    3    0    0  0.13559029353E+02  0.36533547361E+03  0.59971516174E+03  0.70236182327E+03  0.00000000000E+00 0.  1.
        -13    1    3    3    0    0 -0.52941024674E+02  0.19518966467E+03  0.40893872473E+03  0.45621556075E+03  0.00000000000E+00 0. -1.
         22    1    1    2    0    0  0.39381995321E+02 -0.56052513829E+03 -0.11280411163E+04  0.12602444732E+04  0.00000000000E+00 0. -1.
<mgrwt>
<rscale>  0 0.24158737E+04</rscale>
<asrwt>0</asrwt>
<pdfrwt beam="1">  1        2 0.17687959E+00 0.24158737E+04</pdfrwt>
<pdfrwt beam="2">  1       -2 0.19524685E+00 0.24158737E+04</pdfrwt>
<totfact> 0.26077250E+00</totfact>
</mgrwt>
</event>
<event>
 6    1  0.4630212E-004  0.3838551E+04  0.7818608E-02  0.8037932E-01
          2   -1    0    0  501    0  0.00000000000E+00  0.00000000000E+00  0.17213009601E+04  0.17213009601E+04  0.00000000000E+00 0.  1.
         -2   -1    0    0    0  501 -0.00000000000E+00 -0.00000000000E+00 -0.21400195336E+04  0.21400195336E+04  0.00000000000E+00 0. -1.
         23    2    1    2    0    0  0.14277959604E+04  0.10868419233E+04 -0.89152560542E+03  0.20056876743E+04  0.90213474934E+02 0.  0.
         11    1    3    3    0    0  0.17848375739E+03  0.13540658373E+03 -0.78811339350E+02  0.23749236152E+03  0.00000000000E+00 0.  1.
        -11    1    3    3    0    0  0.12493122030E+04  0.95143533960E+03 -0.81271426607E+03  0.17681953128E+04  0.00000000000E+00 0. -1.
         22    1    1    2    0    0 -0.14277959604E+04 -0.10868419233E+04  0.47280703187E+03  0.18556328193E+04  0.00000000000E+00 0.  1.
<mgrwt>
<rscale>  0 0.38385506E+04</rscale>
<asrwt>0</asrwt>
<pdfrwt beam="1">  1        2 0.26481553E+00 0.38385506E+04</pdfrwt>
<pdfrwt beam="2">  1       -2 0.32923377E+00 0.38385506E+04</pdfrwt>
<totfact> 0.16005363E-01</totfact>
</mgrwt>
</event>
<event>
 6    1  0.4630212E-004  0.1966383E+04  0.7818608E-02  0.8622501E-01
          2   -1    0    0  501    0  0.00000000000E+00  0.00000000000E+00  0.27853227578E+04  0.27853227578E+04  0.00000000000E+00 0.  1.
         -2   -1    0    0    0  501 -0.00000000000E+00 -0.00000000000E+00 -0.34705695836E+03  0.34705695836E+03  0.00000000000E+00 0. -1.
         23    2    1    2    0    0  0.64862802805E+03 -0.10193464090E+03  0.60421468949E+02  0.66554922953E+03  0.90531945868E+02 0.  0.
         11    1    3    3    0    0  0.24566956966E+03 -0.79589619025E+02  0.59190945124E+01  0.25830811175E+03  0.00000000000E+00 0. -1.
        -11    1    3    3    0    0  0.40295845839E+03 -0.22345021874E+02  0.54502374436E+02  0.40724111778E+03  0.00000000000E+00 0.  1.
         22    1    1    2    0    0 -0.64862802805E+03  0.10193464090E+03  0.23778443305E+04  0.24668304866E+04  0.00000000000E+00 0.  1.
<mgrwt>
<rscale>  0 0.19663831E+04</rscale>
<asrwt>0</asrwt>
<pdfrwt beam="1">  1        2 0.42851118E+00 0.19663831E+04</pdfrwt>
<pdfrwt beam="2">  1       -2 0.53393380E-01 0.19663831E+04</pdfrwt>
<totfact> 0.72812188E+00</totfact>
</mgrwt>
</event>
<event>
 6    1  0.4630212E-004  0.7339127E+03  0.7818608E-02  0.9660932E-01
         -2   -1    0    0    0  501 -0.00000000000E+00  0.00000000000E+00  0.69261895318E+03  0.69261895318E+03  0.00000000000E+00 0. -1.
          2   -1    0    0  501    0  0.00000000000E+00 -0.00000000000E+00 -0.19441707997E+03  0.19441707997E+03  0.00000000000E+00 0.  1.
         23    2    1    2    0    0  0.30150122189E+03  0.12486364522E+03  0.66042145174E+02  0.34550491933E+03  0.92293919873E+02 0.  0.
         11    1    3    3    0    0  0.78882102905E+02  0.21753300419E+02 -0.22191634065E+02  0.84782432498E+02  0.00000000000E+00 0. -1.
        -11    1    3    3    0    0  0.22261911898E+03  0.10311034480E+03  0.88233779239E+02  0.26072248683E+03  0.00000000000E+00 0.  1.
         22    1    1    2    0    0 -0.30150122189E+03 -0.12486364522E+03  0.43215972803E+03  0.54153111382E+03  0.00000000000E+00 0. -1.
<mgrwt>
<rscale>  0 0.73391268E+03</rscale>
<asrwt>0</asrwt>
<pdfrwt beam="1">  1        2 0.29910320E-01 0.73391268E+03</pdfrwt>
<pdfrwt beam="2">  1       -2 0.10655676E+00 0.73391268E+03</pdfrwt>
<totfact> 0.12790646E+02</totfact>
</mgrwt>
</event>
<event>
 6    1  0.4630212E-004  0.4875522E+04  0.7818608E-02  0.7848001E-01
          2   -1    0    0  501    0  0.00000000000E+00  0.00000000000E+00  0.31866727120E+04  0.31866727120E+04  0.00000000000E+00 0.  1.
         -2   -1    0    0    0  501 -0.00000000000E+00 -0.00000000000E+00 -0.18648539263E+04  0.18648539263E+04  0.00000000000E+00 0. -1.
         23    2    1    2    0    0  0.69038594233E+03 -0.21128980192E+04  0.16959840468E+04  0.27974258350E+04  0.90876983502E+02 0.  0.
         11    1    3    3    0    0  0.55843036151E+03 -0.17216419130E+04  0.13358730677E+04  0.22495448869E+04  0.00000000000E+00 0.  1.
        -11    1    3    3    0    0  0.13195558083E+03 -0.39125610621E+03  0.36011097907E+03  0.54788094802E+03  0.00000000000E+00 0. -1.
         22    1    1    2    0    0 -0.69038594233E+03  0.21128980192E+04 -0.37416526114E+03  0.22541008034E+04  0.00000000000E+00 0. -1.
<mgrwt>
<rscale>  0 0.48755222E+04</rscale>
<asrwt>0</asrwt>
<pdfrwt beam="1">  1        2 0.49025734E+00 0.48755222E+04</pdfrwt>
<pdfrwt beam="2">  1       -2 0.28690060E+00 0.48755222E+04</pdfrwt>
<totfact> 0.37142904E-02</totfact>
</mgrwt>
</event>
<event>
 6    1  0.4630212E-004  0.3232993E+04  0.7818608E-02  0.8180158E-01
          2   -1    0    0  501    0  0.00000000000E+00  0.00000000000E+00  0.41364872549E+04  0.41364872549E+04  0.00000000000E+00 0.  1.
         -2   -1    0    0    0  501 -0.00000000000E+00 -0.00000000000E+00 -0.63171025845E+03  0.63171025845E+03  0.00000000000E+00 0. -1.
         23    2    1    2    0    0  0.11486228452E+03 -0.84578255446E+03  0.37762056619E+04  0.38725329589E+04  0.90779089033E+02 0.  0.
         11    1    3    3    0    0  0.41041039294E+02 -0.60527397482E+03  0.26977323291E+04  0.27651040977E+04  0.00000000000E+00 0.  1.
        -11    1    3    3    0    0  0.73821245223E+02 -0.24050857964E+03  0.10784733327E+04  0.11074288612E+04  0.00000000000E+00 0. -1.
         22    1    1    2    0    0 -0.11486228452E+03  0.84578255446E+03 -0.27142866538E+03  0.89566455452E+03  0.00000000000E+00 0. -1.
<mgrwt>
<rscale>  0 0.32329933E+04</rscale>
<asrwt>0</asrwt>
<pdfrwt beam="1">  1        2 0.63638264E+00 0.32329933E+04</pdfrwt>
<pdfrwt beam="2">  1       -2 0.97186196E-01 0.32329933E+04</pdfrwt>
<totfact> 0.19521892E-01</totfact>
</mgrwt>
</event>
<event>
 6    1  0.4630212E-004  0.3700199E+04  0.7818608E-02  0.8067918E-01
         -2   -1    0    0    0  501 -0.00000000000E+00  0.00000000000E+00  0.84278466812E+03  0.84278466812E+03  0.00000000000E+00 0. -1.
          2   -1    0    0  501    0  0.00000000000E+00 -0.00000000000E+00 -0.40613800426E+04  0.40613800426E+04  0.00000000000E+00 0.  1.
         23    2    1    2    0    0 -0.14458058982E+04 -0.59716974190E+03 -0.30378155217E+03  0.15961281307E+04  0.91517113777E+02 0.  0.
         11    1    3    3    0    0 -0.10702998073E+04 -0.40035390572E+03 -0.20846166937E+03  0.11615856382E+04  0.00000000000E+00 0.  1.
        -11    1    3    3    0    0 -0.37550609099E+03 -0.19681583618E+03 -0.95319882796E+02  0.43454249251E+03  0.00000000000E+00 0. -1.
         22    1    1    2    0    0  0.14458058982E+04  0.59716974190E+03 -0.29148138223E+04  0.33080365800E+04  0.00000000000E+00 0.  1.
<mgrwt>
<rscale>  0 0.37001994E+04</rscale>
<asrwt>0</asrwt>
<pdfrwt beam="1">  1        2 0.62482771E+00 0.37001994E+04</pdfrwt>
<pdfrwt beam="2">  1       -2 0.12965918E+00 0.37001994E+04</pdfrwt>
<totfact> 0.10733836E-01</totfact>
</mgrwt>
</event>
<event>
 6    1  0.4630212E-004  0.2958748E+04  0.7818608E-02  0.8255610E-01
          2   -1    0    0  501    0  0.00000000000E+00  0.00000000000E+00  0.48054354309E+04  0.48054354309E+04  0.00000000000E+00 0.  1.
         -2   -1    0    0    0  501 -0.00000000000E+00 -0.00000000000E+00 -0.45543171817E+03  0.45543171817E+03  0.00000000000E+00 0. -1.
         23    2    1    2    0    0  0.46348603291E+03 -0.92323462710E+03  0.40565224778E+04  0.41869431691E+04  0.89089896700E+02 0.  0.
         13    1    3    3    0    0  0.21619658997E+03 -0.50546324364E+03  0.22715319280E+04  0.23371117552E+04  0.00000000000E+00 0. -1.
        -13    1    3    3    0    0  0.24728944295E+03 -0.41777138346E+03  0.17849905497E+04  0.18498314139E+04  0.00000000000E+00 0.  1.
         22    1    1    2    0    0 -0.46348603291E+03  0.92323462710E+03  0.29348123497E+03  0.10739239799E+04  0.00000000000E+00 0. -1.
<mgrwt>
<rscale>  0 0.29587482E+04</rscale>
<asrwt>0</asrwt>
<pdfrwt beam="1">  1        2 0.73929772E+00 0.29587482E+04</pdfrwt>
<pdfrwt beam="2">  1       -2 0.70066421E-01 0.29587482E+04</pdfrwt>
<totfact> 0.93497600E-02</totfact>
</mgrwt>
</event>
<event>
 6    1  0.4630212E-004  0.4722348E+04  0.7818608E-02  0.7872826E-01
          2   -1    0    0  501    0  0.00000000000E+00  0.00000000000E+00  0.44373988072E+04  0.44373988072E+04  0.00000000000E+00 0.  1.
         -2   -1    0    0    0  501 -0.00000000000E+00 -0.00000000000E+00 -0.12563988748E+04  0.12563988748E+04  0.00000000000E+00 0. -1.
         23    2    1    2    0    0  0.10693649465E+04 -0.11807198435E+04  0.36910045803E+04  0.40211514317E+04  0.92213271445E+02 0.  0.
         11    1    3    3    0    0  0.69499025872E+03 -0.80649489545E+03  0.25511105087E+04  0.27643462706E+04  0.00000000000E+00 0. -1.
        -11    1    3    3    0    0  0.37437468782E+03 -0.37422494805E+03  0.11398940716E+04  0.12568051611E+04  0.00000000000E+00 0.  1.
         22    1    1    2    0    0 -0.10693649465E+04  0.11807198435E+04 -0.51000464789E+03  0.16726462503E+04  0.00000000000E+00 0.  1.
<mgrwt>
<rscale>  0 0.47223481E+04</rscale>
<asrwt>0</asrwt>
<pdfrwt beam="1">  1        2 0.68267673E+00 0.47223481E+04</pdfrwt>
<pdfrwt beam="2">  1       -2 0.19329214E+00 0.47223481E+04</pdfrwt>
<totfact> 0.15381159E-02</totfact>
</mgrwt>
</event>
<event>
 6    1  0.4630212E-004  0.3395270E+04  0.7818608E-02  0.8139068E-01
         -2   -1    0    0    0  501 -0.00000000000E+00  0.00000000000E+00  0.20940653336E+04  0.20940653336E+04  0.00000000000E+00 0. -1.
          2   -1    0    0  501    0  0.00000000000E+00 -0.00000000000E+00 -0.13762535603E+04  0.13762535603E+04  0.00000000000E+00 0.  1.
         23    2    1    2    0    0 -0.21849099496E+02  0.57906190826E+03 -0.12704018097E+04  0.13993811043E+04  0.92502110353E+02 0.  0.
         13    1    3    3    0    0  0.36276437557E+02  0.24793936176E+03 -0.55120433218E+03  0.60548833420E+03  0.00000000000E+00 0. -1.
        -13    1    3    3    0    0 -0.58125537053E+02  0.33112254650E+03 -0.71919747749E+03  0.79389277014E+03  0.00000000000E+00 0.  1.
         22    1    1    2    0    0  0.21849099496E+02 -0.57906190826E+03  0.19882135830E+04  0.20709377896E+04  0.00000000000E+00 0. -1.
<mgrwt>
<rscale>  0 0.33952702E+04</rscale>
<asrwt>0</asrwt>
<pdfrwt beam="1">  1        2 0.21173132E+00 0.33952702E+04</pdfrwt>
<pdfrwt beam="2">  1       -2 0.32216390E+00 0.33952702E+04</pdfrwt>
<totfact> 0.28725318E-01</totfact>
</mgrwt>
</event>
<event>
 6    1  0.4630212E-004  0.2617306E+03  0.7818608E-02  0.1106108E+00
          2   -1    0    0  501    0  0.00000000000E+00  0.00000000000E+00  0.85879275215E+03  0.85879275215E+03  0.00000000000E+00 0.  1.
         -2   -1    0    0    0  501 -0.00000000000E+00 -0.00000000000E+00 -0.19941636916E+02  0.19941636916E+02  0.00000000000E+00 0. -1.
         23    2    1    2    0    0  0.57244418677E+01  0.15208119865E+02  0.85227843167E+03  0.85765480246E+03  0.94494332924E+02 0.  0.
         11    1    3    3    0    0 -0.34518010553E+02 -0.36087022327E+01  0.14958111421E+03  0.15355463364E+03  0.00000000000E+00 0. -1.
        -11    1    3    3    0    0  0.40242452421E+02  0.18816822098E+02  0.70269731746E+03  0.70410016882E+03  0.00000000000E+00 0.  1.
         22    1    1    2    0    0 -0.57244418677E+01 -0.15208119865E+02 -0.13427316438E+02  0.21079586601E+02  0.00000000000E+00 0. -1.
<mgrwt>
<rscale>  0 0.26173065E+03</rscale>
<asrwt>0</asrwt>
<pdfrwt beam="1">  1        2 0.13212193E+00 0.26173065E+03</pdfrwt>
<pdfrwt beam="2">  1       -2 0.30679448E-02 0.26173065E+03</pdfrwt>
<totfact> 0.13172563E+04</totfact>
</mgrwt>
</event>
<event>
 6    1  0.4630212E-004  0.8023083E+03  0.7818608E-02  0.9556682E-01
         -2   -1    0    0    0  501 -0.00000000000E+00  0.00000000000E+00  0.16195544590E+03  0.16195544590E+03  0.00000000000E+00 0. -1.
          2   -1    0    0  501    0  0.00000000000E+00 -0.00000000000E+00 -0.99363544846E+03  0.99363544846E+03  0.00000000000E+00 0.  1.
         23    2    1    2    0    0  0.36402926280E+03 -0.15001735153E+03 -0.47941755444E+03  0.62728100207E+03  0.92831859410E+02 0.  0.
         13    1    3    3    0    0  0.16972924919E+03 -0.11242950602E+03 -0.20471845450E+03  0.28871795488E+03  0.00000000000E+00 0. -1.
        -13    1    3    3    0    0  0.19430001361E+03 -0.37587845504E+02 -0.27469909994E+03  0.33856304720E+03  0.00000000000E+00 0.  1.
         22    1    1    2    0    0 -0.36402926280E+03  0.15001735153E+03 -0.35226244813E+03  0.52830989229E+03  0.00000000000E+00 0. -1.
<mgrwt>
<rscale>  0 0.80230835E+03</rscale>
<asrwt>0</asrwt>
<pdfrwt beam="1">  1        2 0.15286699E+00 0.80230835E+03</pdfrwt>
<pdfrwt beam="2">  1       -2 0.24916223E-01 0.80230835E+03</pdfrwt>
<totfact> 0.36838237E+02</totfact>
</mgrwt>
</event>
<event>
 6    1  0.4630212E-004  0.5206939E+04  0.7818608E-02  0.7797354E-01
         -2   -1    0    0    0  501 -0.00000000000E+00  0.00000000000E+00  0.19457511394E+04  0.19457511394E+04  0.00000000000E+00 0. -1.
          2   -1    0    0  501    0  0.00000000000E+00 -0.00000000000E+00 -0.34835157256E+04  0.34835157256E+04  0.00000000000E+00 0.  1.
         23    2    1    2    0    0  0.24225042045E+04  0.36477109484E+03 -0.16855722152E+04  0.29749988137E+04  0.88767540792E+02 0.  0.
         11    1    3    3    0    0  0.20725170463E+04  0.33450378748E+03 -0.14700258733E+04  0.25628491487E+04  0.00000000000E+00 0.  1.
        -11    1    3    3    0    0  0.34998715826E+03  0.30267307368E+02 -0.21554634188E+03  0.41214966497E+03  0.00000000000E+00 0. -1.
         22    1    1    2    0    0 -0.24225042045E+04 -0.36477109484E+03  0.14780762895E+03  0.24542680513E+04  0.00000000000E+00 0. -1.
<mgrwt>
<rscale>  0 0.52069395E+04</rscale>
<asrwt>0</asrwt>
<pdfrwt beam="1">  1        2 0.53592549E+00 0.52069395E+04</pdfrwt>
<pdfrwt beam="2">  1       -2 0.29934633E+00 0.52069395E+04</pdfrwt>
<totfact> 0.19142232E-02</totfact>
</mgrwt>
</event>
<event>
 6    1  0.4630212E-004  0.6025091E+03  0.7818608E-02  0.9900214E-01
          2   -1    0    0  501    0  0.00000000000E+00  0.00000000000E+00  0.98693186654E+03  0.98693186654E+03  0.00000000000E+00 0.  1.
         -2   -1    0    0    0  501 -0.00000000000E+00 -0.00000000000E+00 -0.91955987977E+02  0.91955987977E+02  0.00000000000E+00 0. -1.
         23    2    1    2    0    0  0.14856555596E+02  0.24383398652E+03  0.75199516053E+03  0.79583447447E+03  0.90443678969E+02 0.  0.
         13    1    3    3    0    0 -0.23917618165E+02  0.57196300548E+02  0.11151915223E+03  0.12759306631E+03  0.00000000000E+00 0. -1.
        -13    1    3    3    0    0  0.38774173761E+02  0.18663768597E+03  0.64047600830E+03  0.66824140817E+03  0.00000000000E+00 0.  1.
         22    1    1    2    0    0 -0.14856555596E+02 -0.24383398652E+03  0.14298071803E+03  0.28305338005E+03  0.00000000000E+00 0.  1.
<mgrwt>
<rscale>  0 0.60250907E+03</rscale>
<asrwt>0</asrwt>
<pdfrwt beam="1">  1        2 0.15183566E+00 0.60250907E+03</pdfrwt>
<pdfrwt beam="2">  1       -2 0.14147076E-01 0.60250907E+03</pdfrwt>
<totfact> 0.10009998E+03</totfact>
</mgrwt>
</event>
<event>
 6    1  0.4630212E-004  0.1092008E+04  0.7818608E-02  0.9213017E-01
          2   -1    0    0  501    0  0.00000000000E+00  0.00000000000E+00  0.35465849711E+03  0.35465849711E+03  0.00000000000E+00 0.  1.
         -2   -1    0    0    0  501 -0.00000000000E+00 -0.00000000000E+00 -0.84058364321E+03  0.84058364321E+03  0.00000000000E+00 0. -1.
         23    2    1    2    0    0  0.18113371656E+03 -0.66876727337E+02 -0.79921532492E+03  0.82723037953E+03  0.91011237247E+02 0.  0.
         13    1    3    3    0    0  0.29705691060E+02  0.70756849215E+01 -0.27267273697E+03  0.27437732211E+03  0.00000000000E+00 0. -1.
        -13    1    3    3    0    0  0.15142802550E+03 -0.73952412259E+02 -0.52654258795E+03  0.55285305743E+03  0.00000000000E+00 0.  1.
         22    1    1    2    0    0 -0.18113371656E+03  0.66876727337E+02  0.31329017882E+03  0.36801176079E+03  0.00000000000E+00 0.  1.
<mgrwt>
<rscale>  0 0.10920076E+04</rscale>
<asrwt>0</asrwt>
<pdfrwt beam="1">  1        2 0.54562846E-01 0.10920076E+04</pdfrwt>
<pdfrwt beam="2">  1       -2 0.12932056E+00 0.10920076E+04</pdfrwt>
<totfact> 0.39777354E+01</totfact>
</mgrwt>
</event>
<event>
 6    1  0.4630212E-004  0.2137673E+04  0.7818608E-02  0.8544827E-01
          2   -1    0    0  501    0  0.00000000000E+00  0.00000000000E+00  0.15596076064E+04  0.15596076064E+04  0.00000000000E+00 0. -1.
         -2   -1    0    0    0  501 -0.00000000000E+00 -0.00000000000E+00 -0.73249936909E+03  0.73249936909E+03  0.00000000000E+00 0.  1.
         23    2    1    2    0    0 -0.48678758685E+02 -0.80778652095E+03  0.11598046173E+04  0.14171352238E+04  0.90756858473E+02 0.  0.
         13    1    3    3    0    0 -0.64152359466E+01 -0.54845855448E+03  0.72496844471E+03  0.90908040736E+03  0.00000000000E+00 0.  1.
        -13    1    3    3    0    0 -0.42263522738E+02 -0.25932796647E+03  0.43483617257E+03  0.50805481646E+03  0.00000000000E+00 0. -1.
         22    1    1    2    0    0  0.48678758685E+02  0.80778652095E+03 -0.33269637997E+03  0.87497175167E+03  0.00000000000E+00 0.  1.
<mgrwt>
<rscale>  0 0.21376731E+04</rscale>
<asrwt>0</asrwt>
<pdfrwt beam="1">  1        2 0.23993963E+00 0.21376731E+04</pdfrwt>
<pdfrwt beam="2">  1       -2 0.11269221E+00 0.21376731E+04</pdfrwt>
<totfact> 0.66882760E+00</totfact>
</mgrwt>
</event>
<event>
 6    1  0.4630212E-004  0.2673348E+04  0.7818608E-02  0.8343705E-01
         -3   -1    0    0    0  501 -0.00000000000E+00  0.00000000000E+00  0.49402214463E+03  0.49402214463E+03  0.00000000000E+00 0. -1.
          3   -1    0    0  501    0  0.00000000000E+00 -0.00000000000E+00 -0.36166335422E+04  0.36166335422E+04  0.00000000000E+00 0.  1.
         23    2    1    2    0    0  0.60416168413E+02 -0.10795493003E+04 -0.35888822631E+03  0.11429558077E+04  0.92034853471E+02 0.  0.
         13    1    3    3    0    0 -0.66701129931E+01 -0.50173150436E+03 -0.19788719653E+03  0.53938699968E+03  0.00000000000E+00 0.  1.
        -13    1    3    3    0    0  0.67086281406E+02 -0.57781779593E+03 -0.16100102978E+03  0.60356880803E+03  0.00000000000E+00 0. -1.
         22    1    1    2    0    0 -0.60416168413E+02  0.10795493003E+04 -0.27637231712E+04  0.29676998791E+04  0.00000000000E+00 0.  1.
<mgrwt>
<rscale>  0 0.26733478E+04</rscale>
<asrwt>0</asrwt>
<pdfrwt beam="1">  1        3 0.55640517E+00 0.26733478E+04</pdfrwt>
<pdfrwt beam="2">  1       -3 0.76003405E-01 0.26733478E+04</pdfrwt>
<totfact> 0.68268008E-03</totfact>
</mgrwt>
</event>
<event>
 6    1  0.4630212E-004  0.1058271E+04  0.7818608E-02  0.9246846E-01
          2   -1    0    0  501    0  0.00000000000E+00  0.00000000000E+00  0.13335029278E+04  0.13335029278E+04  0.00000000000E+00 0.  1.
         -2   -1    0    0    0  501 -0.00000000000E+00 -0.00000000000E+00 -0.20996167196E+03  0.20996167196E+03  0.00000000000E+00 0. -1.
         23    2    1    2    0    0  0.35834925040E+03 -0.22333135114E+03  0.10206954922E+04  0.11088747601E+04  0.97431350619E+02 0.  0.
         13    1    3    3    0    0  0.27599696433E+03 -0.16367321950E+03  0.65609778346E+03  0.73036124525E+03  0.00000000000E+00 0.  1.
        -13    1    3    3    0    0  0.82352286061E+02 -0.59658131640E+02  0.36459770872E+03  0.37851351482E+03  0.00000000000E+00 0. -1.
         22    1    1    2    0    0 -0.35834925040E+03  0.22333135114E+03  0.10284576364E+03  0.43458983969E+03  0.00000000000E+00 0. -1.
<mgrwt>
<rscale>  0 0.10582712E+04</rscale>
<asrwt>0</asrwt>
<pdfrwt beam="1">  1        2 0.20515429E+00 0.10582712E+04</pdfrwt>
<pdfrwt beam="2">  1       -2 0.32301796E-01 0.10582712E+04</pdfrwt>
<totfact> 0.14022833E+02</totfact>
</mgrwt>
</event>
<event>
 6    1  0.4630212E-004  0.1825345E+04  0.7818608E-02  0.8692936E-01
         -2   -1    0    0    0  501 -0.00000000000E+00  0.00000000000E+00  0.73441072907E+03  0.73441072907E+03  0.00000000000E+00 0. -1.
          2   -1    0    0  501    0  0.00000000000E+00 -0.00000000000E+00 -0.11342033034E+04  0.11342033034E+04  0.00000000000E+00 0.  1.
         23    2    1    2    0    0 -0.22137649178E+03 -0.47445764817E+03 -0.96296993613E+03  0.10996625699E+04  0.88481967831E+02 0.  0.
         13    1    3    3    0    0 -0.11086930854E+03 -0.32801704320E+03 -0.66508240517E+03  0.74981450364E+03  0.00000000000E+00 0. -1.
        -13    1    3    3    0    0 -0.11050718324E+03 -0.14644060497E+03 -0.29788753096E+03  0.34984806621E+03  0.00000000000E+00 0.  1.
         22    1    1    2    0    0  0.22137649178E+03  0.47445764817E+03  0.56317736180E+03  0.76895146262E+03  0.00000000000E+00 0. -1.
<mgrwt>
<rscale>  0 0.18253450E+04</rscale>
<asrwt>0</asrwt>
<pdfrwt beam="1">  1        2 0.17449282E+00 0.18253450E+04</pdfrwt>
<pdfrwt beam="2">  1       -2 0.11298627E+00 0.18253450E+04</pdfrwt>
<totfact> 0.12041365E+01</totfact>
</mgrwt>
</event>
<event>
 6    1  0.4630212E-004  0.3274922E+04  0.7818608E-02  0.8169306E-01
         -2   -1    0    0    0  501 -0.00000000000E+00  0.00000000000E+00  0.64975240261E+03  0.64975240261E+03  0.00000000000E+00 0. -1.
          2   -1    0    0  501    0  0.00000000000E+00 -0.00000000000E+00 -0.41266147056E+04  0.41266147056E+04  0.00000000000E+00 0.  1.
         23    2    1    2    0    0 -0.46667125775E+03 -0.42142294746E+02 -0.40263920771E+04  0.40541891464E+04  0.71122709893E+02 0.  0.
         11    1    3    3    0    0 -0.31419390823E+03 -0.54105964982E+01 -0.28874198961E+04  0.29044690983E+04  0.00000000000E+00 0.  1.
        -11    1    3    3    0    0 -0.15247734952E+03 -0.36731698248E+02 -0.11389721810E+04  0.11497200481E+04  0.00000000000E+00 0. -1.
         22    1    1    2    0    0  0.46667125775E+03  0.42142294746E+02  0.54952977418E+03  0.72217796181E+03  0.00000000000E+00 0. -1.
<mgrwt>
<rscale>  0 0.32749216E+04</rscale>
<asrwt>0</asrwt>
<pdfrwt beam="1">  1        2 0.63486380E+00 0.32749216E+04</pdfrwt>
<pdfrwt beam="2">  1       -2 0.99961908E-01 0.32749216E+04</pdfrwt>
<totfact> 0.18555392E-01</totfact>
</mgrwt>
</event>
<event>
 6    1  0.4630212E-004  0.1410402E+04  0.7818608E-02  0.8946323E-01
         -2   -1    0    0    0  501 -0.00000000000E+00  0.00000000000E+00  0.45912460646E+03  0.45912460646E+03  0.00000000000E+00 0. -1.
          2   -1    0    0  501    0  0.00000000000E+00 -0.00000000000E+00 -0.10831671957E+04  0.10831671957E+04  0.00000000000E+00 0.  1.
         23    2    1    2    0    0  0.59554784449E+03 -0.16644520474E+03 -0.67717855622E+03  0.92164321222E+03  0.92055268055E+02 0.  0.
         11    1    3    3    0    0  0.32554651630E+03 -0.12889948900E+03 -0.42084674699E+03  0.54745556622E+03  0.00000000000E+00 0.  1.
        -11    1    3    3    0    0  0.27000132819E+03 -0.37545715743E+02 -0.25633180923E+03  0.37418764600E+03  0.00000000000E+00 0. -1.
         22    1    1    2    0    0 -0.59554784449E+03  0.16644520474E+03  0.53135966937E+02  0.62064858998E+03  0.00000000000E+00 0. -1.
<mgrwt>
<rscale>  0 0.14104024E+04</rscale>
<asrwt>0</asrwt>
<pdfrwt beam="1">  1        2 0.16664111E+00 0.14104024E+04</pdfrwt>
<pdfrwt beam="2">  1       -2 0.70634556E-01 0.14104024E+04</pdfrwt>
<totfact> 0.39563772E+01</totfact>
</mgrwt>
</event>
<event>
 6    1  0.4630212E-004  0.1507926E+04  0.7818608E-02  0.8879199E-01
         -2   -1    0    0    0  501 -0.00000000000E+00  0.00000000000E+00  0.25264368876E+03  0.25264368876E+03  0.00000000000E+00 0.  1.
          2   -1    0    0  501    0  0.00000000000E+00 -0.00000000000E+00 -0.22500470165E+04  0.22500470165E+04  0.00000000000E+00 0. -1.
         23    2    1    2    0    0  0.61549991607E+03  0.31617428812E+03 -0.14885421737E+04  0.16437692878E+04  0.86100764694E+02 0.  0.
         11    1    3    3    0    0  0.25962913559E+03  0.10502310834E+03 -0.68214230089E+03  0.73739762679E+03  0.00000000000E+00 0.  1.
        -11    1    3    3    0    0  0.35587078048E+03  0.21115117979E+03 -0.80639987278E+03  0.90637166105E+03  0.00000000000E+00 0. -1.
         22    1    1    2    0    0 -0.61549991607E+03 -0.31617428812E+03 -0.50886115402E+03  0.85892141737E+03  0.00000000000E+00 0. -1.
<mgrwt>
<rscale>  0 0.15079260E+04</rscale>
<asrwt>0</asrwt>
<pdfrwt beam="1">  1        2 0.34616108E+00 0.15079260E+04</pdfrwt>
<pdfrwt beam="2">  1       -2 0.38868260E-01 0.15079260E+04</pdfrwt>
<totfact> 0.29267077E+01</totfact>
</mgrwt>
</event>
<event>
 6    1  0.4630212E-004  0.1205713E+04  0.7818608E-02  0.9107870E-01
         -2   -1    0    0    0  501 -0.00000000000E+00  0.00000000000E+00  0.35438619144E+03  0.35438619144E+03  0.00000000000E+00 0. -1.
          2   -1    0    0  501    0  0.00000000000E+00 -0.00000000000E+00 -0.10255371779E+04  0.10255371779E+04  0.00000000000E+00 0.  1.
         23    2    1    2    0    0  0.17650917145E+03 -0.18347826637E+02  0.31751906812E+03  0.37545305760E+03  0.93029616226E+02 0.  0.
         11    1    3    3    0    0  0.10454621353E+03  0.17593468547E+02  0.24578443235E+03  0.26767410799E+03  0.00000000000E+00 0.  1.
        -11    1    3    3    0    0  0.71962957914E+02 -0.35941295184E+02  0.71734635766E+02  0.10777894961E+03  0.00000000000E+00 0. -1.
         22    1    1    2    0    0 -0.17650917145E+03  0.18347826637E+02 -0.98867005460E+03  0.10044703118E+04  0.00000000000E+00 0.  1.
<mgrwt>
<rscale>  0 0.12057134E+04</rscale>
<asrwt>0</asrwt>
<pdfrwt beam="1">  1        2 0.15777495E+00 0.12057134E+04</pdfrwt>
<pdfrwt beam="2">  1       -2 0.54520953E-01 0.12057134E+04</pdfrwt>
<totfact> 0.75753902E+01</totfact>
</mgrwt>
</event>
<event>
 6    1  0.4630212E-004  0.4368734E+04  0.7818608E-02  0.7934029E-01
         -2   -1    0    0    0  501 -0.00000000000E+00  0.00000000000E+00  0.16572170129E+04  0.16572170129E+04  0.00000000000E+00 0. -1.
          2   -1    0    0  501    0  0.00000000000E+00 -0.00000000000E+00 -0.28792004282E+04  0.28792004282E+04  0.00000000000E+00 0.  1.
         23    2    1    2    0    0 -0.15840117772E+04  0.14189342791E+04 -0.11249695155E+04  0.24075962895E+04  0.92172032439E+02 0.  0.
         11    1    3    3    0    0 -0.36010779659E+03  0.37049561968E+03 -0.25403475170E+03  0.57574150836E+03  0.00000000000E+00 0. -1.
        -11    1    3    3    0    0 -0.12239039807E+04  0.10484386594E+04 -0.87093476380E+03  0.18318547811E+04  0.00000000000E+00 0.  1.
         22    1    1    2    0    0  0.15840117772E+04 -0.14189342791E+04 -0.97013899875E+02  0.21288211516E+04  0.00000000000E+00 0. -1.
<mgrwt>
<rscale>  0 0.43687343E+04</rscale>
<asrwt>0</asrwt>
<pdfrwt beam="1">  1        2 0.44295391E+00 0.43687343E+04</pdfrwt>
<pdfrwt beam="2">  1       -2 0.25495647E+00 0.43687343E+04</pdfrwt>
<totfact> 0.94890797E-02</totfact>
</mgrwt>
</event>
<event>
 6    1  0.4630212E-004  0.2457859E+04  0.7818608E-02  0.8418154E-01
          2   -1    0    0  501    0  0.00000000000E+00  0.00000000000E+00  0.50313714867E+03  0.50313714867E+03  0.00000000000E+00 0.  1.
         -2   -1    0    0    0  501 -0.00000000000E+00 -0.00000000000E+00 -0.30017026836E+04  0.30017026836E+04  0.00000000000E+00 0. -1.
         23    2    1    2    0    0  0.50115435036E+03 -0.80411713983E+03 -0.23632651478E+04  0.25477263321E+04  0.90151245666E+02 0.  0.
         11    1    3    3    0    0  0.21057675468E+03 -0.36973246279E+03 -0.11727548029E+04  0.12475570092E+04  0.00000000000E+00 0. -1.
        -11    1    3    3    0    0  0.29057759568E+03 -0.43438467704E+03 -0.11905103449E+04  0.13001693229E+04  0.00000000000E+00 0.  1.
         22    1    1    2    0    0 -0.50115435036E+03  0.80411713983E+03 -0.13530038716E+03  0.95711350018E+03  0.00000000000E+00 0.  1.
<mgrwt>
<rscale>  0 0.24578593E+04</rscale>
<asrwt>0</asrwt>
<pdfrwt beam="1">  1        2 0.77405715E-01 0.24578593E+04</pdfrwt>
<pdfrwt beam="2">  1       -2 0.46180041E+00 0.24578593E+04</pdfrwt>
<totfact> 0.15854089E-01</totfact>
</mgrwt>
</event>
<event>
 6    1  0.4630212E-004  0.2302999E+04  0.7818608E-02  0.8476739E-01
          1   -1    0    0  501    0  0.00000000000E+00  0.00000000000E+00  0.59456960658E+03  0.59456960658E+03  0.00000000000E+00 0.  1.
         -1   -1    0    0    0  501 -0.00000000000E+00 -0.00000000000E+00 -0.22301031015E+04  0.22301031015E+04  0.00000000000E+00 0. -1.
         23    2    1    2    0    0  0.10485275716E+04  0.33998066242E+03 -0.41821429405E+03  0.11824598851E+04  0.91166137970E+02 0.  0.
         13    1    3    3    0    0  0.80038561457E+03  0.29772136402E+03 -0.33547056971E+03  0.91749422110E+03  0.00000000000E+00 0. -1.
        -13    1    3    3    0    0  0.24814195707E+03  0.42259298398E+02 -0.82743724333E+02  0.26496566396E+03  0.00000000000E+00 0.  1.
         22    1    1    2    0    0 -0.10485275716E+04 -0.33998066242E+03 -0.12173192009E+04  0.16422128230E+04  0.00000000000E+00 0. -1.
<mgrwt>
<rscale>  0 0.23029994E+04</rscale>
<asrwt>0</asrwt>
<pdfrwt beam="1">  1        1 0.91472247E-01 0.23029994E+04</pdfrwt>
<pdfrwt beam="2">  1       -1 0.34309278E+00 0.23029994E+04</pdfrwt>
<totfact> 0.54167092E-01</totfact>
</mgrwt>
</event>
<event>
 6    1  0.4630212E-004  0.4660782E+04  0.7818608E-02  0.7883078E-01
         -2   -1    0    0    0  501 -0.00000000000E+00  0.00000000000E+00  0.12981034905E+04  0.12981034905E+04  0.00000000000E+00 0. -1.
          2   -1    0    0  501    0  0.00000000000E+00 -0.00000000000E+00 -0.41835825927E+04  0.41835825927E+04  0.00000000000E+00 0.  1.
         23    2    1    2    0    0 -0.11794811252E+04  0.16513151383E+04 -0.27886588306E+04  0.34500878022E+04  0.92034552436E+02 0.  0.
         13    1    3    3    0    0 -0.74100317211E+03  0.96182709931E+03 -0.16494084245E+04  0.20481077171E+04  0.00000000000E+00 0. -1.
        -13    1    3    3    0    0 -0.43847795305E+03  0.68948803897E+03 -0.11392504061E+04  0.14019800851E+04  0.00000000000E+00 0.  1.
         22    1    1    2    0    0  0.11794811252E+04 -0.16513151383E+04 -0.96820271649E+02  0.20315982810E+04  0.00000000000E+00 0. -1.
<mgrwt>
<rscale>  0 0.46607824E+04</rscale>
<asrwt>0</asrwt>
<pdfrwt beam="1">  1        2 0.64362811E+00 0.46607824E+04</pdfrwt>
<pdfrwt beam="2">  1       -2 0.19970822E+00 0.46607824E+04</pdfrwt>
<totfact> 0.23868244E-02</totfact>
</mgrwt>
</event>
<event>
 6    1  0.4630212E-004  0.1913393E+04  0.7818608E-02  0.8648218E-01
          2   -1    0    0  501    0  0.00000000000E+00  0.00000000000E+00  0.20911482800E+04  0.20911482800E+04  0.00000000000E+00 0.  1.
         -2   -1    0    0    0  501 -0.00000000000E+00 -0.00000000000E+00 -0.43768682384E+03  0.43768682384E+03  0.00000000000E+00 0. -1.
         23    2    1    2    0    0 -0.82588735114E+03 -0.42857182858E+03  0.11093709069E+04  0.14509676469E+04  0.94019009359E+02 0.  0.
         13    1    3    3    0    0 -0.40855051269E+03 -0.24639170580E+03  0.62298325434E+03  0.78468498730E+03  0.00000000000E+00 0. -1.
        -13    1    3    3    0    0 -0.41733683845E+03 -0.18218012278E+03  0.48638765260E+03  0.66628265959E+03  0.00000000000E+00 0.  1.
         22    1    1    2    0    0  0.82588735114E+03  0.42857182858E+03  0.54409054923E+03  0.10778674570E+04  0.00000000000E+00 0. -1.
<mgrwt>
<rscale>  0 0.19133928E+04</rscale>
<asrwt>0</asrwt>
<pdfrwt beam="1">  1        2 0.32171511E+00 0.19133928E+04</pdfrwt>
<pdfrwt beam="2">  1       -2 0.67336436E-01 0.19133928E+04</pdfrwt>
<totfact> 0.11247053E+01</totfact>
</mgrwt>
</event>
<event>
 6    1  0.4630212E-004  0.2533666E+04  0.7818608E-02  0.8391089E-01
          2   -1    0    0  501    0  0.00000000000E+00  0.00000000000E+00  0.15984974421E+04  0.15984974421E+04  0.00000000000E+00 0.  1.
         -2   -1    0    0    0  501 -0.00000000000E+00 -0.00000000000E+00 -0.10039839913E+04  0.10039839913E+04  0.00000000000E+00 0. -1.
         23    2    1    2    0    0  0.66600664991E+03  0.34629089060E+03 -0.74851114465E+03  0.10639115447E+04  0.90313911969E+02 0.  0.
         11    1    3    3    0    0  0.33741866666E+03  0.13939397152E+03 -0.31798550815E+03  0.48414545263E+03  0.00000000000E+00 0. -1.
        -11    1    3    3    0    0  0.32858798325E+03  0.20689691909E+03 -0.43052563650E+03  0.57976609210E+03  0.00000000000E+00 0.  1.
         22    1    1    2    0    0 -0.66600664991E+03 -0.34629089060E+03  0.13430245955E+04  0.15385698888E+04  0.00000000000E+00 0.  1.
<mgrwt>
<rscale>  0 0.25336660E+04</rscale>
<asrwt>0</asrwt>
<pdfrwt beam="1">  1        2 0.24592268E+00 0.25336660E+04</pdfrwt>
<pdfrwt beam="2">  1       -2 0.15445908E+00 0.25336660E+04</pdfrwt>
<totfact> 0.27543347E+00</totfact>
</mgrwt>
</event>
<event>
 6    1  0.4630212E-004  0.1677442E+04  0.7818608E-02  0.8774336E-01
          2   -1    0    0  501    0  0.00000000000E+00  0.00000000000E+00  0.97126972302E+03  0.97126972302E+03  0.00000000000E+00 0.  1.
         -2   -1    0    0    0  501 -0.00000000000E+00 -0.00000000000E+00 -0.72426078216E+03  0.72426078216E+03  0.00000000000E+00 0. -1.
         23    2    1    2    0    0  0.29692380113E+03  0.49241618460E+03  0.73747553697E+03  0.93975611792E+03  0.92919056146E+02 0.  0.
         11    1    3    3    0    0  0.79497031119E+02  0.21996990491E+03  0.29811044850E+03  0.37891473517E+03  0.00000000000E+00 0. -1.
        -11    1    3    3    0    0  0.21742677002E+03  0.27244627970E+03  0.43936508847E+03  0.56084138275E+03  0.00000000000E+00 0.  1.
         22    1    1    2    0    0 -0.29692380113E+03 -0.49241618460E+03 -0.49046659611E+03  0.75577438726E+03  0.00000000000E+00 0. -1.
<mgrwt>
<rscale>  0 0.16774416E+04</rscale>
<asrwt>0</asrwt>
<pdfrwt beam="1">  1        2 0.14942611E+00 0.16774416E+04</pdfrwt>
<pdfrwt beam="2">  1       -2 0.11142474E+00 0.16774416E+04</pdfrwt>
<totfact> 0.15961680E+01</totfact>
</mgrwt>
</event>
<event>
 6    1  0.4630212E-004  0.7724487E+04  0.7818608E-02  0.7507009E-01
          2   -1    0    0  501    0  0.00000000000E+00  0.00000000000E+00  0.35524958914E+04  0.35524958914E+04  0.00000000000E+00 0.  1.
         -2   -1    0    0    0  501 -0.00000000000E+00 -0.00000000000E+00 -0.41989986771E+04  0.41989986771E+04  0.00000000000E+00 0. -1.
         23    2    1    2    0    0 -0.38170502447E+04 -0.50711374507E+03 -0.30539993423E+02  0.38519500974E+04  0.97723799874E+02 0.  0.
         13    1    3    3    0    0 -0.30756209629E+04 -0.44400867725E+03 -0.40668232034E+02  0.31077712139E+04  0.00000000000E+00 0. -1.
        -13    1    3    3    0    0 -0.74142928177E+03 -0.63105067819E+02  0.10128238611E+02  0.74417888351E+03  0.00000000000E+00 0.  1.
         22    1    1    2    0    0  0.38170502447E+04  0.50711374507E+03 -0.61596279232E+03  0.38995444711E+04  0.00000000000E+00 0.  1.
<mgrwt>
<rscale>  0 0.77244872E+04</rscale>
<asrwt>0</asrwt>
<pdfrwt beam="1">  1        2 0.54653783E+00 0.77244872E+04</pdfrwt>
<pdfrwt beam="2">  1       -2 0.64599979E+00 0.77244872E+04</pdfrwt>
<totfact> 0.15791295E-04</totfact>
</mgrwt>
</event>
<event>
 6    1  0.4630212E-004  0.1188239E+04  0.7818608E-02  0.9123213E-01
          2   -1    0    0  501    0  0.00000000000E+00  0.00000000000E+00  0.53598885775E+03  0.53598885775E+03  0.00000000000E+00 0.  1.
         -2   -1    0    0    0  501 -0.00000000000E+00 -0.00000000000E+00 -0.65855516168E+03  0.65855516168E+03  0.00000000000E+00 0. -1.
         23    2    1    2    0    0  0.18501453036E+03 -0.14449301561E+03  0.48298416920E+03  0.54508271688E+03  0.93449732639E+02 0.  0.
         13    1    3    3    0    0  0.12994005573E+03 -0.14766230149E+03  0.39437943572E+03  0.44070819448E+03  0.00000000000E+00 0. -1.
        -13    1    3    3    0    0  0.55074474636E+02  0.31692858818E+01  0.88604733486E+02  0.10437452240E+03  0.00000000000E+00 0.  1.
         22    1    1    2    0    0 -0.18501453036E+03  0.14449301561E+03 -0.60555047313E+03  0.64946130255E+03  0.00000000000E+00 0. -1.
<mgrwt>
<rscale>  0 0.11882394E+04</rscale>
<asrwt>0</asrwt>
<pdfrwt beam="1">  1        2 0.82459824E-01 0.11882394E+04</pdfrwt>
<pdfrwt beam="2">  1       -2 0.10131618E+00 0.11882394E+04</pdfrwt>
<totfact> 0.44887753E+01</totfact>
</mgrwt>
</event>
<event>
 6    1  0.4630212E-004  0.1137330E+04  0.7818608E-02  0.9169552E-01
          2   -1    0    0  501    0  0.00000000000E+00  0.00000000000E+00  0.92327371097E+03  0.92327371097E+03  0.00000000000E+00 0.  1.
         -2   -1    0    0    0  501 -0.00000000000E+00 -0.00000000000E+00 -0.35025369704E+03  0.35025369704E+03  0.00000000000E+00 0. -1.
         23    2    1    2    0    0  0.37505858750E+03  0.22840438821E+03 -0.10925386000E+03  0.46214886032E+03  0.93849105247E+02 0.  0.
         11    1    3    3    0    0  0.18591365180E+03  0.12311544299E+03 -0.79034184951E+01  0.22312275154E+03  0.00000000000E+00 0.  1.
        -11    1    3    3    0    0  0.18914493570E+03  0.10528894521E+03 -0.10135044150E+03  0.23902610878E+03  0.00000000000E+00 0. -1.
         22    1    1    2    0    0 -0.37505858750E+03 -0.22840438821E+03  0.68227387393E+03  0.81137854769E+03  0.00000000000E+00 0.  1.
<mgrwt>
<rscale>  0 0.11373303E+04</rscale>
<asrwt>0</asrwt>
<pdfrwt beam="1">  1        2 0.14204211E+00 0.11373303E+04</pdfrwt>
<pdfrwt beam="2">  1       -2 0.53885185E-01 0.11373303E+04</pdfrwt>
<totfact> 0.90894542E+01</totfact>
</mgrwt>
</event>
<event>
 6    1  0.4630212E-004  0.4026925E+04  0.7818608E-02  0.7999137E-01
          2   -1    0    0  501    0  0.00000000000E+00  0.00000000000E+00  0.35805893623E+04  0.35805893623E+04  0.00000000000E+00 0.  1.
         -2   -1    0    0    0  501 -0.00000000000E+00 -0.00000000000E+00 -0.11322243617E+04  0.11322243617E+04  0.00000000000E+00 0. -1.
         23    2    1    2    0    0  0.19922111565E+04  0.28272522600E+03  0.11843150165E+04  0.23365432832E+04  0.89406994748E+02 0.  0.
         13    1    3    3    0    0  0.33928199280E+03  0.54973258218E+02  0.16476079222E+03  0.38115672420E+03  0.00000000000E+00 0. -1.
        -13    1    3    3    0    0  0.16529291637E+04  0.22775196778E+03  0.10195542243E+04  0.19553865590E+04  0.00000000000E+00 0.  1.
         22    1    1    2    0    0 -0.19922111565E+04 -0.28272522600E+03  0.12640499841E+04  0.23762704408E+04  0.00000000000E+00 0. -1.
<mgrwt>
<rscale>  0 0.40269246E+04</rscale>
<asrwt>0</asrwt>
<pdfrwt beam="1">  1        2 0.55085990E+00 0.40269246E+04</pdfrwt>
<pdfrwt beam="2">  1       -2 0.17418836E+00 0.40269246E+04</pdfrwt>
<totfact> 0.11148425E-01</totfact>
</mgrwt>
</event>
<event>
 6    1  0.4630212E-004  0.5999369E+04  0.7818608E-02  0.7690480E-01
         -2   -1    0    0    0  501 -0.00000000000E+00  0.00000000000E+00  0.20262336462E+04  0.20262336462E+04  0.00000000000E+00 0. -1.
          2   -1    0    0  501    0  0.00000000000E+00 -0.00000000000E+00 -0.44408045728E+04  0.44408045728E+04  0.00000000000E+00 0.  1.
         23    2    1    2    0    0 -0.26600629698E+04 -0.34405380692E+02 -0.26998298274E+04  0.37915025018E+04  0.96391859227E+02 0.  0.
         11    1    3    3    0    0 -0.21083243677E+04  0.63565346959E+01 -0.21099204558E+04  0.29827565061E+04  0.00000000000E+00 0. -1.
        -11    1    3    3    0    0 -0.55173860215E+03 -0.40761915388E+02 -0.58990937167E+03  0.80874599574E+03  0.00000000000E+00 0.  1.
         22    1    1    2    0    0  0.26600629698E+04  0.34405380692E+02  0.28525890084E+03  0.26755357172E+04  0.00000000000E+00 0. -1.
<mgrwt>
<rscale>  0 0.59993692E+04</rscale>
<asrwt>0</asrwt>
<pdfrwt beam="1">  1        2 0.68320070E+00 0.59993692E+04</pdfrwt>
<pdfrwt beam="2">  1       -2 0.31172826E+00 0.59993692E+04</pdfrwt>
<totfact> 0.25176892E-03</totfact>
</mgrwt>
</event>
<event>
 6    1  0.4630212E-004  0.1379225E+04  0.7818608E-02  0.8968995E-01
         -2   -1    0    0    0  501 -0.00000000000E+00  0.00000000000E+00  0.28594382072E+03  0.28594382072E+03  0.00000000000E+00 0. -1.
          2   -1    0    0  501    0  0.00000000000E+00 -0.00000000000E+00 -0.16631426860E+04  0.16631426860E+04  0.00000000000E+00 0.  1.
         23    2    1    2    0    0  0.89337593267E+02 -0.47537050848E+03 -0.30887926760E+01  0.49233092752E+03  0.91770777748E+02 0.  0.
         11    1    3    3    0    0 -0.11301608663E+02 -0.12685937628E+03 -0.21265122190E+02  0.12912487417E+03  0.00000000000E+00 0.  1.
        -11    1    3    3    0    0  0.10063920193E+03 -0.34851113220E+03  0.18176329514E+02  0.36320605335E+03  0.00000000000E+00 0. -1.
         22    1    1    2    0    0 -0.89337593267E+02  0.47537050848E+03 -0.13741100726E+04  0.14567555792E+04  0.00000000000E+00 0.  1.
<mgrwt>
<rscale>  0 0.13792250E+04</rscale>
<asrwt>0</asrwt>
<pdfrwt beam="1">  1        2 0.25586811E+00 0.13792250E+04</pdfrwt>
<pdfrwt beam="2">  1       -2 0.43991357E-01 0.13792250E+04</pdfrwt>
<totfact> 0.49102892E+01</totfact>
</mgrwt>
</event>
<event>
 6    1  0.4630212E-004  0.1709071E+04  0.7818608E-02  0.8756207E-01
         -2   -1    0    0    0  501 -0.00000000000E+00  0.00000000000E+00  0.49885271217E+03  0.49885271217E+03  0.00000000000E+00 0. -1.
          2   -1    0    0  501    0  0.00000000000E+00 -0.00000000000E+00 -0.14638214329E+04  0.14638214329E+04  0.00000000000E+00 0.  1.
         23    2    1    2    0    0 -0.49570189552E+03 -0.45308405432E+03 -0.10863759952E+04  0.12802188310E+04  0.87988196590E+02 0.  0.
         13    1    3    3    0    0 -0.31849411053E+03 -0.27199305572E+03 -0.59879092235E+03  0.73073202304E+03  0.00000000000E+00 0.  1.
        -13    1    3    3    0    0 -0.17720778499E+03 -0.18109099861E+03 -0.48758507284E+03  0.54948680794E+03  0.00000000000E+00 0. -1.
         22    1    1    2    0    0  0.49570189552E+03  0.45308405432E+03  0.12140727442E+03  0.68245531413E+03  0.00000000000E+00 0. -1.
<mgrwt>
<rscale>  0 0.17090714E+04</rscale>
<asrwt>0</asrwt>
<pdfrwt beam="1">  1        2 0.22520330E+00 0.17090714E+04</pdfrwt>
<pdfrwt beam="2">  1       -2 0.76746571E-01 0.17090714E+04</pdfrwt>
<totfact> 0.19196039E+01</totfact>
</mgrwt>
</event>
<event>
 6    1  0.4630212E-004  0.2447294E+04  0.7818608E-02  0.8422007E-01
          2   -1    0    0  501    0  0.00000000000E+00  0.00000000000E+00  0.17503475892E+04  0.17503475892E+04  0.00000000000E+00 0.  1.
         -2   -1    0    0    0  501 -0.00000000000E+00 -0.00000000000E+00 -0.85543669921E+03  0.85543669921E+03  0.00000000000E+00 0. -1.
         23    2    1    2    0    0  0.35445571795E+03  0.52389773782E+03  0.15619852674E+04  0.16864933004E+04  0.65984703459E+02 0.  0.
         11    1    3    3    0    0  0.23817885149E+03  0.31447019810E+03  0.10345779413E+04  0.11072362835E+04  0.00000000000E+00 0.  1.
        -11    1    3    3    0    0  0.11627686646E+03  0.20942753971E+03  0.52740732613E+03  0.57925701698E+03  0.00000000000E+00 0. -1.
         22    1    1    2    0    0 -0.35445571795E+03 -0.52389773782E+03 -0.66707437740E+03  0.91929098802E+03  0.00000000000E+00 0. -1.
<mgrwt>
<rscale>  0 0.24472937E+04</rscale>
<asrwt>0</asrwt>
<pdfrwt beam="1">  1        2 0.26928424E+00 0.24472937E+04</pdfrwt>
<pdfrwt beam="2">  1       -2 0.13160565E+00 0.24472937E+04</pdfrwt>
<totfact> 0.34676087E+00</totfact>
</mgrwt>
</event>
<event>
 6    1  0.4630212E-004  0.3497707E+04  0.7818608E-02  0.8114334E-01
         -2   -1    0    0    0  501 -0.00000000000E+00  0.00000000000E+00  0.14158217201E+04  0.14158217201E+04  0.00000000000E+00 0. -1.
          2   -1    0    0  501    0  0.00000000000E+00 -0.00000000000E+00 -0.21602213903E+04  0.21602213903E+04  0.00000000000E+00 0.  1.
         23    2    1    2    0    0  0.31165203063E+03 -0.15436273473E+04 -0.11460585851E+04  0.19508531955E+04  0.11164915890E+03 0.  0.
         13    1    3    3    0    0  0.18998331149E+03 -0.10098477656E+04 -0.81040186707E+03  0.13086777122E+04  0.00000000000E+00 0. -1.
        -13    1    3    3    0    0  0.12166871915E+03 -0.53377958165E+03 -0.33565671801E+03  0.64217548330E+03  0.00000000000E+00 0.  1.
         22    1    1    2    0    0 -0.31165203063E+03  0.15436273473E+04  0.40165891485E+03  0.16251899148E+04  0.00000000000E+00 0. -1.
<mgrwt>
<rscale>  0 0.34977069E+04</rscale>
<asrwt>0</asrwt>
<pdfrwt beam="1">  1        2 0.33234175E+00 0.34977069E+04</pdfrwt>
<pdfrwt beam="2">  1       -2 0.21781873E+00 0.34977069E+04</pdfrwt>
<totfact> 0.45594976E-01</totfact>
</mgrwt>
</event>
<event>
 6    1  0.4630212E-004  0.2317610E+04  0.7818608E-02  0.8471010E-01
         -2   -1    0    0    0  501 -0.00000000000E+00  0.00000000000E+00  0.63659357114E+03  0.63659357114E+03  0.00000000000E+00 0. -1.
          2   -1    0    0  501    0  0.00000000000E+00 -0.00000000000E+00 -0.21093972070E+04  0.21093972070E+04  0.00000000000E+00 0.  1.
         23    2    1    2    0    0  0.11425603122E+04  0.15986136771E+03 -0.63750901590E+03  0.13216604702E+04  0.96793230393E+02 0.  0.
         11    1    3    3    0    0  0.18030788963E+03  0.24212428962E+02 -0.61674818739E+02  0.19209622601E+03  0.00000000000E+00 0.  1.
        -11    1    3    3    0    0  0.96225242253E+03  0.13564893875E+03 -0.57583419716E+03  0.11295642442E+04  0.00000000000E+00 0. -1.
         22    1    1    2    0    0 -0.11425603122E+04 -0.15986136771E+03 -0.83529461993E+03  0.14243303079E+04  0.00000000000E+00 0.  1.
<mgrwt>
<rscale>  0 0.23176097E+04</rscale>
<asrwt>0</asrwt>
<pdfrwt beam="1">  1        2 0.32452265E+00 0.23176097E+04</pdfrwt>
<pdfrwt beam="2">  1       -2 0.97937473E-01 0.23176097E+04</pdfrwt>
<totfact> 0.45597244E+00</totfact>
</mgrwt>
</event>
<event>
 6    1  0.4630212E-004  0.4988181E+04  0.7818608E-02  0.7830333E-01
         -2   -1    0    0    0  501 -0.00000000000E+00  0.00000000000E+00  0.28488931695E+04  0.28488931695E+04  0.00000000000E+00 0. -1.
          2   -1    0    0  501    0  0.00000000000E+00 -0.00000000000E+00 -0.21834754533E+04  0.21834754533E+04  0.00000000000E+00 0.  1.
         23    2    1    2    0    0  0.15418087766E+04  0.14268577367E+04  0.16875682812E+04  0.26961560721E+04  0.90959095598E+02 0.  0.
         11    1    3    3    0    0  0.44547719869E+03  0.40457678893E+03  0.53631282134E+03  0.80607924860E+03  0.00000000000E+00 0. -1.
        -11    1    3    3    0    0  0.10963315779E+04  0.10222809478E+04  0.11512554599E+04  0.18900768235E+04  0.00000000000E+00 0.  1.
         22    1    1    2    0    0 -0.15418087766E+04 -0.14268577367E+04 -0.10221505650E+04  0.23362125507E+04  0.00000000000E+00 0.  1.
<mgrwt>
<rscale>  0 0.49881814E+04</rscale>
<asrwt>0</asrwt>
<pdfrwt beam="1">  1        2 0.33591930E+00 0.49881814E+04</pdfrwt>
<pdfrwt beam="2">  1       -2 0.43829126E+00 0.49881814E+04</pdfrwt>
<totfact> 0.15983226E-02</totfact>
</mgrwt>
</event>
<event>
 6    1  0.4630212E-004  0.2658512E+04  0.7818608E-02  0.8348593E-01
          2   -1    0    0  501    0  0.00000000000E+00  0.00000000000E+00  0.26705181657E+04  0.26705181657E+04  0.00000000000E+00 0.  1.
         -2   -1    0    0    0  501 -0.00000000000E+00 -0.00000000000E+00 -0.66163997741E+03  0.66163997741E+03  0.00000000000E+00 0. -1.
         23    2    1    2    0    0  0.19601675217E+03 -0.12670634846E+04  0.57394202553E+03  0.14078623674E+04  0.93779293575E+02 0.  0.
         11    1    3    3    0    0  0.14236065317E+03 -0.62824517293E+03  0.27194675297E+03  0.69922356177E+03  0.00000000000E+00 0. -1.
        -11    1    3    3    0    0  0.53656099003E+02 -0.63881831164E+03  0.30199527255E+03  0.70863880567E+03  0.00000000000E+00 0.  1.
         22    1    1    2    0    0 -0.19601675217E+03  0.12670634846E+04  0.14349361628E+04  0.19242957757E+04  0.00000000000E+00 0.  1.
<mgrwt>
<rscale>  0 0.26585120E+04</rscale>
<asrwt>0</asrwt>
<pdfrwt beam="1">  1        2 0.41084894E+00 0.26585120E+04</pdfrwt>
<pdfrwt beam="2">  1       -2 0.10179077E+00 0.26585120E+04</pdfrwt>
<totfact> 0.19267287E+00</totfact>
</mgrwt>
</event>
<event>
 6    1  0.4630212E-004  0.1660612E+04  0.7818608E-02  0.8784153E-01
          1   -1    0    0  501    0  0.00000000000E+00  0.00000000000E+00  0.52240055275E+03  0.52240055275E+03  0.00000000000E+00 0.  1.
         -1   -1    0    0    0  501 -0.00000000000E+00 -0.00000000000E+00 -0.13196929476E+04  0.13196929476E+04  0.00000000000E+00 0. -1.
         23    2    1    2    0    0 -0.30641616973E+03 -0.75077752640E+03 -0.59066307546E+03  0.10052820288E+04  0.64430781246E+02 0.  0.
         11    1    3    3    0    0 -0.83157795984E+02 -0.15854723352E+03 -0.15624128824E+03  0.23762109427E+03  0.00000000000E+00 0.  1.
        -11    1    3    3    0    0 -0.22325837375E+03 -0.59223029289E+03 -0.43442178722E+03  0.76766093458E+03  0.00000000000E+00 0. -1.
         22    1    1    2    0    0  0.30641616973E+03  0.75077752640E+03 -0.20662931939E+03  0.83681147151E+03  0.00000000000E+00 0.  1.
<mgrwt>
<rscale>  0 0.16606123E+04</rscale>
<asrwt>0</asrwt>
<pdfrwt beam="1">  1        1 0.80369317E-01 0.16606123E+04</pdfrwt>
<pdfrwt beam="2">  1       -1 0.20302968E+00 0.16606123E+04</pdfrwt>
<totfact> 0.57102646E+00</totfact>
</mgrwt>
</event>
<event>
 6    1  0.4630212E-004  0.1562431E+04  0.7818608E-02  0.8843966E-01
         -2   -1    0    0    0  501 -0.00000000000E+00  0.00000000000E+00  0.96699452555E+03  0.96699452555E+03  0.00000000000E+00 0. -1.
          2   -1    0    0  501    0  0.00000000000E+00 -0.00000000000E+00 -0.63112867379E+03  0.63112867379E+03  0.00000000000E+00 0.  1.
         23    2    1    2    0    0  0.51069671912E+03 -0.13959236962E+03 -0.41531857910E+03  0.67911546393E+03  0.91712172745E+02 0.  0.
         11    1    3    3    0    0  0.20153399638E+03 -0.26671341840E+02 -0.11505077482E+03  0.23358936825E+03  0.00000000000E+00 0. -1.
        -11    1    3    3    0    0  0.30916272274E+03 -0.11292102778E+03 -0.30026780428E+03  0.44552609569E+03  0.00000000000E+00 0.  1.
         22    1    1    2    0    0 -0.51069671912E+03  0.13959236962E+03  0.75118443086E+03  0.91900773541E+03  0.00000000000E+00 0. -1.
<mgrwt>
<rscale>  0 0.15624314E+04</rscale>
<asrwt>0</asrwt>
<pdfrwt beam="1">  1        2 0.97096719E-01 0.15624314E+04</pdfrwt>
<pdfrwt beam="2">  1       -2 0.14876839E+00 0.15624314E+04</pdfrwt>
<totfact> 0.13722737E+01</totfact>
</mgrwt>
</event>
<event>
 6    1  0.4630212E-004  0.4997153E+03  0.7818608E-02  0.1013853E+00
         -2   -1    0    0    0  501 -0.00000000000E+00  0.00000000000E+00  0.11766989116E+03  0.11766989116E+03  0.00000000000E+00 0. -1.
          2   -1    0    0  501    0  0.00000000000E+00 -0.00000000000E+00 -0.53054214100E+03  0.53054214100E+03  0.00000000000E+00 0.  1.
         23    2    1    2    0    0 -0.15475249418E+02  0.86703336821E+02  0.78210838136E+02  0.14929365080E+03  0.91731712114E+02 0.  0.
         11    1    3    3    0    0 -0.46518932226E+01 -0.19146401956E+02  0.19713005841E+02  0.27871623880E+02  0.00000000000E+00 0. -1.
        -11    1    3    3    0    0 -0.10823356195E+02  0.10584973878E+03  0.58497832295E+02  0.12142202692E+03  0.00000000000E+00 0.  1.
         22    1    1    2    0    0  0.15475249418E+02 -0.86703336821E+02 -0.49108308798E+03  0.49891838136E+03  0.00000000000E+00 0.  1.
<mgrwt>
<rscale>  0 0.49971526E+03</rscale>
<asrwt>0</asrwt>
<pdfrwt beam="1">  1        2 0.81621868E-01 0.49971526E+03</pdfrwt>
<pdfrwt beam="2">  1       -2 0.18103060E-01 0.49971526E+03</pdfrwt>
<totfact> 0.14577752E+03</totfact>
</mgrwt>
</event>
<event>
 6    1  0.4630212E-004  0.2971711E+04  0.7818608E-02  0.8251856E-01
          2   -1    0    0  501    0  0.00000000000E+00  0.00000000000E+00  0.16716473905E+04  0.16716473905E+04  0.00000000000E+00 0.  1.
         -2   -1    0    0    0  501 -0.00000000000E+00 -0.00000000000E+00 -0.13207126664E+04  0.13207126664E+04  0.00000000000E+00 0. -1.
         23    2    1    2    0    0  0.20943728690E+03  0.96938128419E+03 -0.93658097708E+03  0.13671644589E+04  0.91600653009E+02 0.  0.
         11    1    3    3    0    0 -0.22344287378E+01  0.13346503473E+03 -0.11667822715E+03  0.17728992317E+03  0.00000000000E+00 0.  1.
        -11    1    3    3    0    0  0.21167171564E+03  0.83591624946E+03 -0.81990274993E+03  0.11898745357E+04  0.00000000000E+00 0. -1.
         22    1    1    2    0    0 -0.20943728690E+03 -0.96938128419E+03  0.12875157012E+04  0.16251955981E+04  0.00000000000E+00 0.  1.
<mgrwt>
<rscale>  0 0.29717105E+04</rscale>
<asrwt>0</asrwt>
<pdfrwt beam="1">  1        2 0.25717652E+00 0.29717105E+04</pdfrwt>
<pdfrwt beam="2">  1       -2 0.20318656E+00 0.29717105E+04</pdfrwt>
<totfact> 0.11062386E+00</totfact>
</mgrwt>
</event>
<event>
 6    1  0.4630212E-004  0.3008844E+04  0.7818608E-02  0.8241210E-01
         -2   -1    0    0    0  501 -0.00000000000E+00  0.00000000000E+00  0.99915351302E+03  0.99915351302E+03  0.00000000000E+00 0. -1.
          2   -1    0    0  501    0  0.00000000000E+00 -0.00000000000E+00 -0.22652027249E+04  0.22652027249E+04  0.00000000000E+00 0.  1.
         23    2    1    2    0    0 -0.65680928662E+03  0.13347326746E+04 -0.40060598363E+03  0.15433385933E+04  0.92190605832E+02 0.  0.
         13    1    3    3    0    0 -0.28156356348E+03  0.47669115729E+03 -0.16374213658E+03  0.57734217498E+03  0.00000000000E+00 0.  1.
        -13    1    3    3    0    0 -0.37524572315E+03  0.85804151733E+03 -0.23686384704E+03  0.96599641833E+03  0.00000000000E+00 0. -1.
         22    1    1    2    0    0  0.65680928662E+03 -0.13347326746E+04 -0.86544322822E+03  0.17210176446E+04  0.00000000000E+00 0.  1.
<mgrwt>
<rscale>  0 0.30088438E+04</rscale>
<asrwt>0</asrwt>
<pdfrwt beam="1">  1        2 0.34849273E+00 0.30088438E+04</pdfrwt>
<pdfrwt beam="2">  1       -2 0.15371593E+00 0.30088438E+04</pdfrwt>
<totfact> 0.11391175E+00</totfact>
</mgrwt>
</event>
<event>
 6    1  0.4630212E-004  0.9595153E+03  0.7818608E-02  0.9354097E-01
          2   -1    0    0  501    0  0.00000000000E+00  0.00000000000E+00  0.89605169804E+02  0.89605169804E+02  0.00000000000E+00 0.  1.
         -2   -1    0    0    0  501 -0.00000000000E+00 -0.00000000000E+00 -0.25686842645E+04  0.25686842645E+04  0.00000000000E+00 0. -1.
         23    2    1    2    0    0  0.13223637537E+03 -0.12841934418E+03 -0.24647782842E+04  0.24734043345E+04  0.92838703699E+02 0.  0.
         11    1    3    3    0    0  0.76249583908E+02 -0.92744465871E+02 -0.10098771355E+04  0.10169893627E+04  0.00000000000E+00 0. -1.
        -11    1    3    3    0    0  0.55986791462E+02 -0.35674878312E+02 -0.14549011487E+04  0.14564149718E+04  0.00000000000E+00 0.  1.
         22    1    1    2    0    0 -0.13223637537E+03  0.12841934418E+03 -0.14300810483E+02  0.18488509976E+03  0.00000000000E+00 0.  1.
<mgrwt>
<rscale>  0 0.95951527E+03</rscale>
<asrwt>0</asrwt>
<pdfrwt beam="1">  1        2 0.13785410E-01 0.95951527E+03</pdfrwt>
<pdfrwt beam="2">  1       -2 0.39518221E+00 0.95951527E+03</pdfrwt>
<totfact> 0.36752018E+00</totfact>
</mgrwt>
</event>
<event>
 6    1  0.4630212E-004  0.3518064E+04  0.7818608E-02  0.8109522E-01
          2   -1    0    0  501    0  0.00000000000E+00  0.00000000000E+00  0.37309052441E+04  0.37309052441E+04  0.00000000000E+00 0.  1.
         -2   -1    0    0    0  501 -0.00000000000E+00 -0.00000000000E+00 -0.82934135554E+03  0.82934135554E+03  0.00000000000E+00 0. -1.
         23    2    1    2    0    0 -0.10720468207E+04 -0.48875593363E+03 -0.23918552087E+03  0.12057759110E+04  0.92298892682E+02 0.  0.
         11    1    3    3    0    0 -0.47654054856E+03 -0.17163261470E+03 -0.12201920354E+03  0.52099648260E+03  0.00000000000E+00 0.  1.
        -11    1    3    3    0    0 -0.59550627216E+03 -0.31712331893E+03 -0.11716631733E+03  0.68477942836E+03  0.00000000000E+00 0. -1.
         22    1    1    2    0    0  0.10720468207E+04  0.48875593363E+03  0.31407494094E+04  0.33544706887E+04  0.00000000000E+00 0.  1.
<mgrwt>
<rscale>  0 0.35180642E+04</rscale>
<asrwt>0</asrwt>
<pdfrwt beam="1">  1        2 0.57398541E+00 0.35180642E+04</pdfrwt>
<pdfrwt beam="2">  1       -2 0.12759098E+00 0.35180642E+04</pdfrwt>
<totfact> 0.20641631E-01</totfact>
</mgrwt>
</event>
<event>
 6    1  0.4630212E-004  0.9744374E+03  0.7818608E-02  0.9337034E-01
          2   -1    0    0  501    0  0.00000000000E+00  0.00000000000E+00  0.55529728255E+03  0.55529728255E+03  0.00000000000E+00 0.  1.
         -2   -1    0    0    0  501 -0.00000000000E+00 -0.00000000000E+00 -0.42748645325E+03  0.42748645325E+03  0.00000000000E+00 0. -1.
         23    2    1    2    0    0  0.12703365981E+03  0.34225686036E+03 -0.25462055342E+03  0.45407675488E+03  0.89870817888E+02 0.  0.
         11    1    3    3    0    0  0.89943574819E+02  0.23192659409E+03 -0.22144601396E+03  0.33304373407E+03  0.00000000000E+00 0. -1.
        -11    1    3    3    0    0  0.37090084987E+02  0.11033026627E+03 -0.33174539456E+02  0.12103302081E+03  0.00000000000E+00 0.  1.
         22    1    1    2    0    0 -0.12703365981E+03 -0.34225686036E+03  0.38243138272E+03  0.52870698092E+03  0.00000000000E+00 0.  1.
<mgrwt>
<rscale>  0 0.97443741E+03</rscale>
<asrwt>0</asrwt>
<pdfrwt beam="1">  1        2 0.85430351E-01 0.97443741E+03</pdfrwt>
<pdfrwt beam="2">  1       -2 0.65767146E-01 0.97443741E+03</pdfrwt>
<totfact> 0.11591037E+02</totfact>
</mgrwt>
</event>
<event>
 6    1  0.4630212E-004  0.1194541E+04  0.7818608E-02  0.9117648E-01
         -2   -1    0    0    0  501 -0.00000000000E+00  0.00000000000E+00  0.13360958669E+03  0.13360958669E+03  0.00000000000E+00 0. -1.
          2   -1    0    0  501    0  0.00000000000E+00 -0.00000000000E+00 -0.26699577153E+04  0.26699577153E+04  0.00000000000E+00 0.  1.
         23    2    1    2    0    0  0.19930996350E+03 -0.55946339554E+03 -0.12165771215E+04  0.13563218965E+04  0.82616232614E+02 0.  0.
         11    1    3    3    0    0  0.18187455209E+03 -0.45327840327E+03 -0.93484943749E+03  0.10547431604E+04  0.00000000000E+00 0. -1.
        -11    1    3    3    0    0  0.17435411415E+02 -0.10618499227E+03 -0.28172768401E+03  0.30157873615E+03  0.00000000000E+00 0.  1.
         22    1    1    2    0    0 -0.19930996350E+03  0.55946339554E+03 -0.13197710071E+04  0.14472454055E+04  0.00000000000E+00 0. -1.
<mgrwt>
<rscale>  0 0.11945408E+04</rscale>
<asrwt>0</asrwt>
<pdfrwt beam="1">  1        2 0.41076273E+00 0.11945408E+04</pdfrwt>
<pdfrwt beam="2">  1       -2 0.20555321E-01 0.11945408E+04</pdfrwt>
<totfact> 0.56132859E+01</totfact>
</mgrwt>
</event>
<event>
 6    1  0.5682629E-004  0.3779025E+04  0.7818608E-02  0.8050671E-01
          2   -1    0    0  501    0  0.00000000000E+00  0.00000000000E+00  0.24456664396E+04  0.24456664396E+04  0.00000000000E+00 0.  1.
         -2   -1    0    0    0  501 -0.00000000000E+00 -0.00000000000E+00 -0.14598299330E+04  0.14598299330E+04  0.00000000000E+00 0. -1.
         23    2    1    2    0    0  0.17252786088E+04 -0.73862765075E+03  0.27701025313E+03  0.18993578575E+04  0.93104813237E+02 0.  0.
         13    1    3    3    0    0  0.73238760255E+03 -0.31872271223E+03  0.71659086226E+02  0.80194188836E+03  0.00000000000E+00 0. -1.
        -13    1    3    3    0    0  0.99289100621E+03 -0.41990493852E+03  0.20535116691E+03  0.10974159692E+04  0.00000000000E+00 0.  1.
         22    1    1    2    0    0 -0.17252786088E+04  0.73862765075E+03  0.70882625342E+03  0.20061385151E+04  0.00000000000E+00 0.  1.
<mgrwt>
<rscale>  0 0.37790248E+04</rscale>
<asrwt>0</asrwt>
<pdfrwt beam="1">  1        2 0.37625638E+00 0.37790248E+04</pdfrwt>
<pdfrwt beam="2">  1       -2 0.22458922E+00 0.37790248E+04</pdfrwt>
<totfact> 0.27788842E-01</totfact>
</mgrwt>
</event>
<event>
 6    1  0.4630212E-004  0.2949876E+04  0.7818608E-02  0.8258191E-01
          2   -1    0    0  501    0  0.00000000000E+00  0.00000000000E+00  0.20573088837E+04  0.20573088837E+04  0.00000000000E+00 0.  1.
         -2   -1    0    0    0  501 -0.00000000000E+00 -0.00000000000E+00 -0.10574209918E+04  0.10574209918E+04  0.00000000000E+00 0. -1.
         23    2    1    2    0    0  0.79532982701E+03  0.77939058403E+03 -0.51844272971E+03  0.12318259766E+04  0.92807092790E+02 0.  0.
         11    1    3    3    0    0  0.27665054499E+03  0.23784716056E+03 -0.12987215500E+03  0.38726421533E+03  0.00000000000E+00 0. -1.
        -11    1    3    3    0    0  0.51867928202E+03  0.54154342346E+03 -0.38857057470E+03  0.84456176128E+03  0.00000000000E+00 0.  1.
         22    1    1    2    0    0 -0.79532982701E+03 -0.77939058403E+03  0.15183306215E+04  0.18829038989E+04  0.00000000000E+00 0.  1.
<mgrwt>
<rscale>  0 0.29498757E+04</rscale>
<asrwt>0</asrwt>
<pdfrwt beam="1">  1        2 0.31650906E+00 0.29498757E+04</pdfrwt>
<pdfrwt beam="2">  1       -2 0.16268015E+00 0.29498757E+04</pdfrwt>
<totfact> 0.12844017E+00</totfact>
</mgrwt>
</event>
<event>
 6    1  0.5163508E-004  0.4195515E+04  0.7818608E-02  0.7966226E-01
         -2   -1    0    0    0  501 -0.00000000000E+00  0.00000000000E+00  0.14602866843E+04  0.14602866843E+04  0.00000000000E+00 0. -1.
          2   -1    0    0  501    0  0.00000000000E+00 -0.00000000000E+00 -0.30135080961E+04  0.30135080961E+04  0.00000000000E+00 0.  1.
         23    2    1    2    0    0 -0.15946095507E+04  0.90239433387E+02 -0.22255817061E+04  0.27408807203E+04  0.91051732395E+02 0.  0.
         11    1    3    3    0    0 -0.61591380561E+03  0.50147122269E+02 -0.93298139689E+03  0.11190705236E+04  0.00000000000E+00 0. -1.
        -11    1    3    3    0    0 -0.97869574505E+03  0.40092311118E+02 -0.12926003092E+04  0.16218101967E+04  0.00000000000E+00 0.  1.
         22    1    1    2    0    0  0.15946095507E+04 -0.90239433387E+02  0.67236029431E+03  0.17329140601E+04  0.00000000000E+00 0. -1.
<mgrwt>
<rscale>  0 0.41955146E+04</rscale>
<asrwt>0</asrwt>
<pdfrwt beam="1">  1        2 0.46361663E+00 0.41955146E+04</pdfrwt>
<pdfrwt beam="2">  1       -2 0.22465949E+00 0.41955146E+04</pdfrwt>
<totfact> 0.12238788E-01</totfact>
</mgrwt>
</event>
<event>
 6    1  0.4630212E-004  0.1726111E+04  0.7818608E-02  0.8746611E-01
         -2   -1    0    0    0  501 -0.00000000000E+00  0.00000000000E+00  0.65290796117E+03  0.65290796117E+03  0.00000000000E+00 0. -1.
          2   -1    0    0  501    0  0.00000000000E+00 -0.00000000000E+00 -0.11408420328E+04  0.11408420328E+04  0.00000000000E+00 0.  1.
         23    2    1    2    0    0 -0.17048387284E+03  0.54165057938E+03  0.42705681659E+03  0.71687561570E+03  0.95304893548E+02 0.  0.
         13    1    3    3    0    0 -0.99644286583E+02  0.32499043446E+03  0.19637198631E+03  0.39256811301E+03  0.00000000000E+00 0.  1.
        -13    1    3    3    0    0 -0.70839586253E+02  0.21666014492E+03  0.23068483028E+03  0.32430750269E+03  0.00000000000E+00 0. -1.
         22    1    1    2    0    0  0.17048387284E+03 -0.54165057938E+03 -0.91499088817E+03  0.10768743782E+04  0.00000000000E+00 0.  1.
<mgrwt>
<rscale>  0 0.17261111E+04</rscale>
<asrwt>0</asrwt>
<pdfrwt beam="1">  1        2 0.17551416E+00 0.17261111E+04</pdfrwt>
<pdfrwt beam="2">  1       -2 0.10044738E+00 0.17261111E+04</pdfrwt>
<totfact> 0.15963143E+01</totfact>
</mgrwt>
</event>
<event>
 6    1  0.4630212E-004  0.2314802E+04  0.7818608E-02  0.8472108E-01
          2   -1    0    0  501    0  0.00000000000E+00  0.00000000000E+00  0.95306713250E+03  0.95306713250E+03  0.00000000000E+00 0.  1.
         -2   -1    0    0    0  501 -0.00000000000E+00 -0.00000000000E+00 -0.14055434065E+04  0.14055434065E+04  0.00000000000E+00 0. -1.
         23    2    1    2    0    0 -0.94206024027E+02 -0.79442913608E+03 -0.10763821361E+04  0.13440904790E+04  0.89377209615E+02 0.  0.
         11    1    3    3    0    0  0.78051777623E+01 -0.30137362787E+03 -0.40328128796E+03  0.50351045827E+03  0.00000000000E+00 0. -1.
        -11    1    3    3    0    0 -0.10201120179E+03 -0.49305550822E+03 -0.67310084815E+03  0.84058002073E+03  0.00000000000E+00 0.  1.
         22    1    1    2    0    0  0.94206024027E+02  0.79442913608E+03  0.62390586215E+03  0.10145200600E+04  0.00000000000E+00 0.  1.
<mgrwt>
<rscale>  0 0.23148021E+04</rscale>
<asrwt>0</asrwt>
<pdfrwt beam="1">  1        2 0.14662571E+00 0.23148021E+04</pdfrwt>
<pdfrwt beam="2">  1       -2 0.21623745E+00 0.23148021E+04</pdfrwt>
<totfact> 0.25548879E+00</totfact>
</mgrwt>
</event>
<event>
 6    1  0.4630212E-004  0.3467435E+04  0.7818608E-02  0.8121551E-01
          2   -1    0    0  501    0  0.00000000000E+00  0.00000000000E+00  0.37832708964E+04  0.37832708964E+04  0.00000000000E+00 0.  1.
         -2   -1    0    0    0  501 -0.00000000000E+00 -0.00000000000E+00 -0.79449138900E+03  0.79449138900E+03  0.00000000000E+00 0. -1.
         23    2    1    2    0    0 -0.22204207932E+03  0.14434044877E+04  0.27259685461E+04  0.30939197057E+04  0.93356473762E+02 0.  0.
         11    1    3    3    0    0 -0.14557743362E+03  0.10660417974E+04  0.19274279057E+04  0.22074003340E+04  0.00000000000E+00 0. -1.
        -11    1    3    3    0    0 -0.76464645698E+02  0.37736269029E+03  0.79854064036E+03  0.88651937168E+03  0.00000000000E+00 0.  1.
         22    1    1    2    0    0  0.22204207932E+03 -0.14434044877E+04  0.26281096135E+03  0.14838425797E+04  0.00000000000E+00 0. -1.
<mgrwt>
<rscale>  0 0.34674349E+04</rscale>
<asrwt>0</asrwt>
<pdfrwt beam="1">  1        2 0.58204167E+00 0.34674349E+04</pdfrwt>
<pdfrwt beam="2">  1       -2 0.12222945E+00 0.34674349E+04</pdfrwt>
<totfact> 0.21086269E-01</totfact>
</mgrwt>
</event>
<event>
 6    1  0.4630212E-004  0.2318443E+04  0.7818608E-02  0.8470685E-01
          2   -1    0    0  501    0  0.00000000000E+00  0.00000000000E+00  0.25699050585E+04  0.25699050585E+04  0.00000000000E+00 0.  1.
         -2   -1    0    0    0  501 -0.00000000000E+00 -0.00000000000E+00 -0.52289634413E+03  0.52289634413E+03  0.00000000000E+00 0. -1.
         23    2    1    2    0    0  0.69615964544E+03  0.48976829638E+03  0.20714924989E+04  0.22412670864E+04  0.87668372372E+02 0.  0.
         13    1    3    3    0    0  0.54550102190E+03  0.34276345684E+03  0.16054484950E+04  0.17298910435E+04  0.00000000000E+00 0. -1.
        -13    1    3    3    0    0  0.15065862354E+03  0.14700483954E+03  0.46604400381E+03  0.51137604283E+03  0.00000000000E+00 0.  1.
         22    1    1    2    0    0 -0.69615964544E+03 -0.48976829638E+03 -0.24483784485E+02  0.85153431627E+03  0.00000000000E+00 0. -1.
<mgrwt>
<rscale>  0 0.23184425E+04</rscale>
<asrwt>0</asrwt>
<pdfrwt beam="1">  1        2 0.39537000E+00 0.23184425E+04</pdfrwt>
<pdfrwt beam="2">  1       -2 0.80445593E-01 0.23184425E+04</pdfrwt>
<totfact> 0.39167750E+00</totfact>
</mgrwt>
</event>
<event>
 6    1  0.4630212E-004  0.4655458E+04  0.7818608E-02  0.7883972E-01
          2   -1    0    0  501    0  0.00000000000E+00  0.00000000000E+00  0.23190556993E+04  0.23190556993E+04  0.00000000000E+00 0.  1.
         -2   -1    0    0    0  501 -0.00000000000E+00 -0.00000000000E+00 -0.23364347826E+04  0.23364347826E+04  0.00000000000E+00 0. -1.
         23    2    1    2    0    0 -0.12106195701E+04 -0.17113471765E+04 -0.10185952211E+04  0.23324014485E+04  0.90837163993E+02 0.  0.
         13    1    3    3    0    0 -0.76220490578E+03 -0.10086297277E+04 -0.63591499602E+03  0.14151601069E+04  0.00000000000E+00 0.  1.
        -13    1    3    3    0    0 -0.44841466436E+03 -0.70271744881E+03 -0.38268022510E+03  0.91724134161E+03  0.00000000000E+00 0. -1.
         22    1    1    2    0    0  0.12106195701E+04  0.17113471765E+04  0.10012161379E+04  0.23230890333E+04  0.00000000000E+00 0.  1.
<mgrwt>
<rscale>  0 0.46554580E+04</rscale>
<asrwt>0</asrwt>
<pdfrwt beam="1">  1        2 0.35677780E+00 0.46554580E+04</pdfrwt>
<pdfrwt beam="2">  1       -2 0.35945151E+00 0.46554580E+04</pdfrwt>
<totfact> 0.44856015E-02</totfact>
</mgrwt>
</event>
<event>
 6    1  0.4630212E-004  0.2224039E+04  0.7818608E-02  0.8508488E-01
          2   -1    0    0  501    0  0.00000000000E+00  0.00000000000E+00  0.23709934744E+04  0.23709934744E+04  0.00000000000E+00 0.  1.
         -2   -1    0    0    0  501 -0.00000000000E+00 -0.00000000000E+00 -0.52154840600E+03  0.52154840600E+03  0.00000000000E+00 0. -1.
         23    2    1    2    0    0 -0.57099620658E+03 -0.55666395159E+03 -0.76661387544E+02  0.80788423403E+03  0.10434818792E+03 0.  0.
         11    1    3    3    0    0 -0.43504613186E+02 -0.87807681288E+02 -0.18723175755E+02  0.99766715752E+02  0.00000000000E+00 0. -1.
        -11    1    3    3    0    0 -0.52749159339E+03 -0.46885627030E+03 -0.57938211789E+02  0.70811751827E+03  0.00000000000E+00 0.  1.
         22    1    1    2    0    0  0.57099620658E+03  0.55666395159E+03  0.19261064559E+04  0.20846576463E+04  0.00000000000E+00 0.  1.
<mgrwt>
<rscale>  0 0.22240394E+04</rscale>
<asrwt>0</asrwt>
<pdfrwt beam="1">  1        2 0.36476822E+00 0.22240394E+04</pdfrwt>
<pdfrwt beam="2">  1       -2 0.80238218E-01 0.22240394E+04</pdfrwt>
<totfact> 0.51733986E+00</totfact>
</mgrwt>
</event>
<event>
 6    1  0.4630212E-004  0.1930254E+04  0.7818608E-02  0.8639942E-01
          2   -1    0    0  501    0  0.00000000000E+00  0.00000000000E+00  0.13067804167E+04  0.13067804167E+04  0.00000000000E+00 0.  1.
         -2   -1    0    0    0  501 -0.00000000000E+00 -0.00000000000E+00 -0.71279807347E+03  0.71279807347E+03  0.00000000000E+00 0. -1.
         23    2    1    2    0    0  0.36479659839E+03  0.33868592622E+03  0.11598093229E+04  0.12659573083E+04  0.98516628565E+02 0.  0.
         11    1    3    3    0    0  0.18381746902E+03  0.13190578824E+03  0.42541797235E+03  0.48183861416E+03  0.00000000000E+00 0.  1.
        -11    1    3    3    0    0  0.18097912937E+03  0.20678013798E+03  0.73439135058E+03  0.78411869416E+03  0.00000000000E+00 0. -1.
         22    1    1    2    0    0 -0.36479659839E+03 -0.33868592622E+03 -0.56582697968E+03  0.75362118186E+03  0.00000000000E+00 0. -1.
<mgrwt>
<rscale>  0 0.19302545E+04</rscale>
<asrwt>0</asrwt>
<pdfrwt beam="1">  1        2 0.20104314E+00 0.19302545E+04</pdfrwt>
<pdfrwt beam="2">  1       -2 0.10966124E+00 0.19302545E+04</pdfrwt>
<totfact> 0.10132999E+01</totfact>
</mgrwt>
</event>
<event>
 6    1  0.4630212E-004  0.3014082E+03  0.7818608E-02  0.1084539E+00
          2   -1    0    0  501    0  0.00000000000E+00  0.00000000000E+00  0.53508493765E+02  0.53508493765E+02  0.00000000000E+00 0.  1.
         -2   -1    0    0    0  501 -0.00000000000E+00 -0.00000000000E+00 -0.42445093386E+03  0.42445093386E+03  0.00000000000E+00 0. -1.
         23    2    1    2    0    0 -0.96508168891E+02 -0.80133297584E+02 -0.11614972458E+03  0.19396206862E+03  0.91626161642E+02 0.  0.
         13    1    3    3    0    0 -0.19060634539E+02 -0.58123884826E+02 -0.12026040499E+02  0.62340351510E+02  0.00000000000E+00 0.  1.
        -13    1    3    3    0    0 -0.77447534353E+02 -0.22009412758E+02 -0.10412368408E+03  0.13162171711E+03  0.00000000000E+00 0. -1.
         22    1    1    2    0    0  0.96508168891E+02  0.80133297584E+02 -0.25479271552E+03  0.28399735901E+03  0.00000000000E+00 0. -1.
<mgrwt>
<rscale>  0 0.30140823E+03</rscale>
<asrwt>0</asrwt>
<pdfrwt beam="1">  1        2 0.82320760E-02 0.30140823E+03</pdfrwt>
<pdfrwt beam="2">  1       -2 0.65300143E-01 0.30140823E+03</pdfrwt>
<totfact> 0.18165560E+03</totfact>
</mgrwt>
</event>
<event>
 6    1  0.4630212E-004  0.2939947E+04  0.7818608E-02  0.8261090E-01
         -2   -1    0    0    0  501 -0.00000000000E+00  0.00000000000E+00  0.63694935250E+03  0.63694935250E+03  0.00000000000E+00 0. -1.
          2   -1    0    0  501    0  0.00000000000E+00 -0.00000000000E+00 -0.33924549241E+04  0.33924549241E+04  0.00000000000E+00 0.  1.
         23    2    1    2    0    0 -0.44209459179E+03  0.12616509165E+04 -0.22122322555E+04  0.25863670077E+04  0.90067103644E+02 0.  0.
         11    1    3    3    0    0 -0.16041744885E+03  0.54373965341E+03 -0.87158817562E+03  0.10397367535E+04  0.00000000000E+00 0.  1.
        -11    1    3    3    0    0 -0.28167714294E+03  0.71791126313E+03 -0.13406440798E+04  0.15466302543E+04  0.00000000000E+00 0. -1.
         22    1    1    2    0    0  0.44209459179E+03 -0.12616509165E+04 -0.54327331611E+03  0.14430372689E+04  0.00000000000E+00 0. -1.
<mgrwt>
<rscale>  0 0.29399469E+04</rscale>
<asrwt>0</asrwt>
<pdfrwt beam="1">  1        2 0.52191614E+00 0.29399469E+04</pdfrwt>
<pdfrwt beam="2">  1       -2 0.97992209E-01 0.29399469E+04</pdfrwt>
<totfact> 0.71873759E-01</totfact>
</mgrwt>
</event>
<event>
 6    1  0.4630212E-004  0.2861377E+04  0.7818608E-02  0.8284462E-01
          2   -1    0    0  501    0  0.00000000000E+00  0.00000000000E+00  0.13481462209E+04  0.13481462209E+04  0.00000000000E+00 0.  1.
         -2   -1    0    0    0  501 -0.00000000000E+00 -0.00000000000E+00 -0.15182847815E+04  0.15182847815E+04  0.00000000000E+00 0. -1.
         23    2    1    2    0    0 -0.13239755224E+04  0.29988521584E+02 -0.62354150570E+03  0.14666507604E+04  0.91923600820E+02 0.  0.
         13    1    3    3    0    0 -0.31856049328E+03  0.23445084775E+02 -0.19057593801E+03  0.37195382513E+03  0.00000000000E+00 0. -1.
        -13    1    3    3    0    0 -0.10054150291E+04  0.65434368089E+01 -0.43296556769E+03  0.10946969353E+04  0.00000000000E+00 0.  1.
         22    1    1    2    0    0  0.13239755224E+04 -0.29988521584E+02  0.45340294507E+03  0.13997802420E+04  0.00000000000E+00 0.  1.
<mgrwt>
<rscale>  0 0.28613772E+04</rscale>
<asrwt>0</asrwt>
<pdfrwt beam="1">  1        2 0.20740711E+00 0.28613772E+04</pdfrwt>
<pdfrwt beam="2">  1       -2 0.23358227E+00 0.28613772E+04</pdfrwt>
<totfact> 0.10897611E+00</totfact>
</mgrwt>
</event>
<event>
 6    1  0.4630212E-004  0.5997899E+03  0.7818608E-02  0.9905842E-01
         -4   -1    0    0    0  501 -0.00000000000E+00  0.00000000000E+00  0.15596516756E+03  0.15596516756E+03  0.00000000000E+00 0. -1.
          4   -1    0    0  501    0  0.00000000000E+00 -0.00000000000E+00 -0.57664786996E+03  0.57664786996E+03  0.00000000000E+00 0.  1.
         23    2    1    2    0    0 -0.17239950923E+03  0.62077998771E+01  0.73028203439E+02  0.20963064192E+03  0.94083792280E+02 0.  0.
         11    1    3    3    0    0 -0.14190811716E+03 -0.11804268581E+02  0.17083810838E+02  0.14341935388E+03  0.00000000000E+00 0.  1.
        -11    1    3    3    0    0 -0.30491392069E+02  0.18012068458E+02  0.55944392601E+02  0.66211288040E+02  0.00000000000E+00 0. -1.
         22    1    1    2    0    0  0.17239950923E+03 -0.62077998771E+01 -0.49371090585E+03  0.52298239561E+03  0.00000000000E+00 0.  1.
<mgrwt>
<rscale>  0 0.59978990E+03</rscale>
<asrwt>0</asrwt>
<pdfrwt beam="1">  1        4 0.88715056E-01 0.59978990E+03</pdfrwt>
<pdfrwt beam="2">  1       -4 0.23994642E-01 0.59978990E+03</pdfrwt>
<totfact> 0.35556430E+01</totfact>
</mgrwt>
</event>
<event>
 6    1  0.4630212E-004  0.3636825E+04  0.7818608E-02  0.8082108E-01
         -2   -1    0    0    0  501 -0.00000000000E+00  0.00000000000E+00  0.95397776972E+03  0.95397776972E+03  0.00000000000E+00 0. -1.
          2   -1    0    0  501    0  0.00000000000E+00 -0.00000000000E+00 -0.34661431448E+04  0.34661431448E+04  0.00000000000E+00 0.  1.
         23    2    1    2    0    0  0.62302411992E+03 -0.16000680161E+04 -0.19800449644E+04  0.26224755542E+04  0.91778324098E+02 0.  0.
         11    1    3    3    0    0  0.26579460112E+03 -0.56124098339E+03 -0.71785213215E+03  0.94918380468E+03  0.00000000000E+00 0. -1.
        -11    1    3    3    0    0  0.35722951880E+03 -0.10388270327E+04 -0.12621928323E+04  0.16732917495E+04  0.00000000000E+00 0.  1.
         22    1    1    2    0    0 -0.62302411992E+03  0.16000680161E+04 -0.53212041064E+03  0.17976453604E+04  0.00000000000E+00 0. -1.
<mgrwt>
<rscale>  0 0.36368247E+04</rscale>
<asrwt>0</asrwt>
<pdfrwt beam="1">  1        2 0.53325279E+00 0.36368247E+04</pdfrwt>
<pdfrwt beam="2">  1       -2 0.14676581E+00 0.36368247E+04</pdfrwt>
<totfact> 0.22104088E-01</totfact>
</mgrwt>
</event>
<event>
 6    1  0.4630212E-004  0.2435539E+04  0.7818608E-02  0.8426317E-01
         -2   -1    0    0    0  501 -0.00000000000E+00  0.00000000000E+00  0.54381582785E+03  0.54381582785E+03  0.00000000000E+00 0.  1.
          2   -1    0    0  501    0  0.00000000000E+00 -0.00000000000E+00 -0.27269566363E+04  0.27269566363E+04  0.00000000000E+00 0. -1.
         23    2    1    2    0    0 -0.11432886160E+04 -0.33573838734E+03 -0.14193877562E+04  0.18554464067E+04  0.90502162934E+02 0.  0.
         13    1    3    3    0    0 -0.79620216482E+03 -0.23258921269E+03 -0.10511116742E+04  0.13389814714E+04  0.00000000000E+00 0.  1.
        -13    1    3    3    0    0 -0.34708645115E+03 -0.10314917465E+03 -0.36827608199E+03  0.51646493528E+03  0.00000000000E+00 0. -1.
         22    1    1    2    0    0  0.11432886160E+04  0.33573838734E+03 -0.76375305230E+03  0.14153260575E+04  0.00000000000E+00 0. -1.
<mgrwt>
<rscale>  0 0.24355387E+04</rscale>
<asrwt>0</asrwt>
<pdfrwt beam="1">  1        2 0.41953180E+00 0.24355387E+04</pdfrwt>
<pdfrwt beam="2">  1       -2 0.83663972E-01 0.24355387E+04</pdfrwt>
<totfact> 0.28658844E+00</totfact>
</mgrwt>
</event>
<event>
 6    1  0.4630212E-004  0.4908087E+04  0.7818608E-02  0.7842844E-01
          2   -1    0    0  501    0  0.00000000000E+00  0.00000000000E+00  0.28055922753E+04  0.28055922753E+04  0.00000000000E+00 0.  1.
         -2   -1    0    0    0  501 -0.00000000000E+00 -0.00000000000E+00 -0.21465449024E+04  0.21465449024E+04  0.00000000000E+00 0. -1.
         23    2    1    2    0    0 -0.11057525640E+04  0.20528969461E+04  0.10979363311E+04  0.25794386882E+04  0.10471463704E+03 0.  0.
         13    1    3    3    0    0 -0.25099019405E+03  0.37911240954E+03  0.20881772585E+03  0.50032703226E+03  0.00000000000E+00 0. -1.
        -13    1    3    3    0    0 -0.85476236999E+03  0.16737845365E+04  0.88911860522E+03  0.20791116560E+04  0.00000000000E+00 0.  1.
         22    1    1    2    0    0  0.11057525640E+04 -0.20528969461E+04 -0.43888895816E+03  0.23726984894E+04  0.00000000000E+00 0. -1.
<mgrwt>
<rscale>  0 0.49080871E+04</rscale>
<asrwt>0</asrwt>
<pdfrwt beam="1">  1        2 0.43162958E+00 0.49080871E+04</pdfrwt>
<pdfrwt beam="2">  1       -2 0.33023768E+00 0.49080871E+04</pdfrwt>
<totfact> 0.34804110E-02</totfact>
</mgrwt>
</event>
<event>
 6    1  0.4630212E-004  0.1294748E+04  0.7818608E-02  0.9033740E-01
         -2   -1    0    0    0  501 -0.00000000000E+00  0.00000000000E+00  0.42379093717E+03  0.42379093717E+03  0.00000000000E+00 0. -1.
          2   -1    0    0  501    0  0.00000000000E+00 -0.00000000000E+00 -0.98891524757E+03  0.98891524757E+03  0.00000000000E+00 0.  1.
         23    2    1    2    0    0 -0.43364604918E+03 -0.39481711362E+03  0.69273077105E+01  0.59345500045E+03  0.90616779836E+02 0.  0.
         13    1    3    3    0    0 -0.24067617373E+03 -0.17330967960E+03  0.33566463320E+02  0.29847608465E+03  0.00000000000E+00 0. -1.
        -13    1    3    3    0    0 -0.19296987545E+03 -0.22150743402E+03 -0.26639155609E+02  0.29497891580E+03  0.00000000000E+00 0.  1.
         22    1    1    2    0    0  0.43364604918E+03  0.39481711362E+03 -0.57205161811E+03  0.81925118429E+03  0.00000000000E+00 0.  1.
<mgrwt>
<rscale>  0 0.12947483E+04</rscale>
<asrwt>0</asrwt>
<pdfrwt beam="1">  1        2 0.15214081E+00 0.12947483E+04</pdfrwt>
<pdfrwt beam="2">  1       -2 0.65198606E-01 0.12947483E+04</pdfrwt>
<totfact> 0.54467247E+01</totfact>
</mgrwt>
</event>
<event>
 6    1  0.4630212E-004  0.4793208E+04  0.7818608E-02  0.7861223E-01
          2   -1    0    0  501    0  0.00000000000E+00  0.00000000000E+00  0.35007114838E+04  0.35007114838E+04  0.00000000000E+00 0.  1.
         -2   -1    0    0    0  501 -0.00000000000E+00 -0.00000000000E+00 -0.16407268923E+04  0.16407268923E+04  0.00000000000E+00 0. -1.
         23    2    1    2    0    0 -0.19084181992E+04  0.58811342789E+03  0.23499277612E+04  0.30852327111E+04  0.92536323176E+02 0.  0.
         13    1    3    3    0    0 -0.11255468599E+04  0.31200231783E+03  0.13253692403E+04  0.17665799737E+04  0.00000000000E+00 0.  1.
        -13    1    3    3    0    0 -0.78287133931E+03  0.27611111007E+03  0.10245585209E+04  0.13186527374E+04  0.00000000000E+00 0. -1.
         22    1    1    2    0    0  0.19084181992E+04 -0.58811342789E+03 -0.48994316973E+03  0.20562056650E+04  0.00000000000E+00 0. -1.
<mgrwt>
<rscale>  0 0.47932083E+04</rscale>
<asrwt>0</asrwt>
<pdfrwt beam="1">  1        2 0.53857100E+00 0.47932083E+04</pdfrwt>
<pdfrwt beam="2">  1       -2 0.25241952E+00 0.47932083E+04</pdfrwt>
<totfact> 0.37244940E-02</totfact>
</mgrwt>
</event>
<event>
 6    1  0.4630212E-004  0.8334063E+03  0.7818608E-02  0.9512883E-01
          2   -1    0    0  501    0  0.00000000000E+00  0.00000000000E+00  0.12959909689E+04  0.12959909689E+04  0.00000000000E+00 0.  1.
         -2   -1    0    0    0  501 -0.00000000000E+00 -0.00000000000E+00 -0.13398357635E+03  0.13398357635E+03  0.00000000000E+00 0. -1.
         23    2    1    2    0    0 -0.13027100290E+03  0.23278382770E+03  0.51534535614E+02  0.28791114480E+03  0.95279453751E+02 0.  0.
         11    1    3    3    0    0 -0.55865433870E+02  0.16432570701E+03 -0.18571746721E+01  0.17357227251E+03  0.00000000000E+00 0.  1.
        -11    1    3    3    0    0 -0.74405569026E+02  0.68458120687E+02  0.53391710287E+02  0.11433887229E+03  0.00000000000E+00 0. -1.
         22    1    1    2    0    0  0.13027100290E+03 -0.23278382770E+03  0.11104728569E+04  0.11420634004E+04  0.00000000000E+00 0.  1.
<mgrwt>
<rscale>  0 0.83340628E+03</rscale>
<asrwt>0</asrwt>
<pdfrwt beam="1">  1        2 0.19938322E+00 0.83340628E+03</pdfrwt>
<pdfrwt beam="2">  1       -2 0.20612859E-01 0.83340628E+03</pdfrwt>
<totfact> 0.33818334E+02</totfact>
</mgrwt>
</event>
<event>
 6    1  0.4630212E-004  0.2532987E+04  0.7818608E-02  0.8391327E-01
          2   -1    0    0  501    0  0.00000000000E+00  0.00000000000E+00  0.37723440752E+04  0.37723440752E+04  0.00000000000E+00 0.  1.
         -2   -1    0    0    0  501 -0.00000000000E+00 -0.00000000000E+00 -0.42520144532E+03  0.42520144532E+03  0.00000000000E+00 0. -1.
         23    2    1    2    0    0  0.89498605447E+03 -0.74781896434E+02  0.19967157877E+03  0.92444815146E+03  0.90240099973E+02 0.  0.
         13    1    3    3    0    0  0.39647619034E+03  0.23924171996E+01  0.11603109499E+03  0.41311294845E+03  0.00000000000E+00 0. -1.
        -13    1    3    3    0    0  0.49850986413E+03 -0.77174313633E+02  0.83640483780E+02  0.51133520302E+03  0.00000000000E+00 0.  1.
         22    1    1    2    0    0 -0.89498605447E+03  0.74781896434E+02  0.31474710511E+04  0.32730973691E+04  0.00000000000E+00 0.  1.
<mgrwt>
<rscale>  0 0.25329873E+04</rscale>
<asrwt>0</asrwt>
<pdfrwt beam="1">  1        2 0.58036060E+00 0.25329873E+04</pdfrwt>
<pdfrwt beam="2">  1       -2 0.65415610E-01 0.25329873E+04</pdfrwt>
<totfact> 0.98923046E-01</totfact>
</mgrwt>
</event>
<event>
 6    1  0.4630212E-004  0.4100946E+04  0.7818608E-02  0.7984487E-01
          2   -1    0    0  501    0  0.00000000000E+00  0.00000000000E+00  0.49294135234E+04  0.49294135234E+04  0.00000000000E+00 0.  1.
         -2   -1    0    0    0  501 -0.00000000000E+00 -0.00000000000E+00 -0.85292881998E+03  0.85292881998E+03  0.00000000000E+00 0. -1.
         23    2    1    2    0    0  0.85447486436E+03  0.11537235738E+04 -0.22995262824E+02  0.14387330870E+04  0.90657239184E+02 0.  0.
         13    1    3    3    0    0  0.11522247686E+03  0.20715412213E+03  0.98652592973E+01  0.23724749278E+03  0.00000000000E+00 0. -1.
        -13    1    3    3    0    0  0.73925238749E+03  0.94656945164E+03 -0.32860522121E+02  0.12014855942E+04  0.00000000000E+00 0.  1.
         22    1    1    2    0    0 -0.85447486436E+03 -0.11537235738E+04  0.40994799662E+04  0.43436092563E+04  0.00000000000E+00 0. -1.
<mgrwt>
<rscale>  0 0.41009457E+04</rscale>
<asrwt>0</asrwt>
<pdfrwt beam="1">  1        2 0.75837130E+00 0.41009457E+04</pdfrwt>
<pdfrwt beam="2">  1       -2 0.13121982E+00 0.41009457E+04</pdfrwt>
<totfact> 0.13772734E-02</totfact>
</mgrwt>
</event>
<event>
 6    1  0.4630212E-004  0.2119412E+04  0.7818608E-02  0.8552740E-01
          2   -1    0    0  501    0  0.00000000000E+00  0.00000000000E+00  0.12147248075E+04  0.12147248075E+04  0.00000000000E+00 0.  1.
         -2   -1    0    0    0  501 -0.00000000000E+00 -0.00000000000E+00 -0.92447052366E+03  0.92447052366E+03  0.00000000000E+00 0. -1.
         23    2    1    2    0    0 -0.53715403470E+03  0.72730576515E+03 -0.40886763929E+03  0.99626943836E+03  0.88723809258E+02 0.  0.
         13    1    3    3    0    0 -0.78730279779E+02  0.15421075676E+03 -0.10075733614E+03  0.20032836854E+03  0.00000000000E+00 0. -1.
        -13    1    3    3    0    0 -0.45842375493E+03  0.57309500839E+03 -0.30811030315E+03  0.79594106982E+03  0.00000000000E+00 0.  1.
         22    1    1    2    0    0  0.53715403470E+03 -0.72730576515E+03  0.69912192312E+03  0.11429258928E+04  0.00000000000E+00 0.  1.
<mgrwt>
<rscale>  0 0.21194124E+04</rscale>
<asrwt>0</asrwt>
<pdfrwt beam="1">  1        2 0.18688074E+00 0.21194124E+04</pdfrwt>
<pdfrwt beam="2">  1       -2 0.14222623E+00 0.21194124E+04</pdfrwt>
<totfact> 0.58872040E+00</totfact>
</mgrwt>
</event>
<event>
 6    1  0.4630212E-004  0.4197548E+04  0.7818608E-02  0.7965839E-01
         -2   -1    0    0    0  501 -0.00000000000E+00  0.00000000000E+00  0.15188620601E+04  0.15188620601E+04  0.00000000000E+00 0. -1.
          2   -1    0    0  501    0  0.00000000000E+00 -0.00000000000E+00 -0.29001003928E+04  0.29001003928E+04  0.00000000000E+00 0.  1.
         23    2    1    2    0    0  0.13450450152E+03  0.12847683025E+04 -0.24310112541E+04  0.27544071854E+04  0.90676200116E+02 0.  0.
         11    1    3    3    0    0  0.11749473877E+03  0.78928329838E+03 -0.14410010175E+04  0.16471967312E+04  0.00000000000E+00 0. -1.
        -11    1    3    3    0    0  0.17009762747E+02  0.49548500410E+03 -0.99001023660E+03  0.11072104542E+04  0.00000000000E+00 0.  1.
         22    1    1    2    0    0 -0.13450450152E+03 -0.12847683025E+04  0.10497729215E+04  0.16645552675E+04  0.00000000000E+00 0. -1.
<mgrwt>
<rscale>  0 0.41975481E+04</rscale>
<asrwt>0</asrwt>
<pdfrwt beam="1">  1        2 0.44616929E+00 0.41975481E+04</pdfrwt>
<pdfrwt beam="2">  1       -2 0.23367109E+00 0.41975481E+04</pdfrwt>
<totfact> 0.12643612E-01</totfact>
</mgrwt>
</event>
<event>
 6    1  0.4630212E-004  0.2424367E+04  0.7818608E-02  0.8430437E-01
         -2   -1    0    0    0  501 -0.00000000000E+00  0.00000000000E+00  0.11206999911E+04  0.11206999911E+04  0.00000000000E+00 0. -1.
          2   -1    0    0  501    0  0.00000000000E+00 -0.00000000000E+00 -0.13111349151E+04  0.13111349151E+04  0.00000000000E+00 0.  1.
         23    2    1    2    0    0  0.18016051717E+03 -0.74855895265E+03  0.84142141621E+03  0.11443855579E+04  0.93968015891E+02 0.  0.
         13    1    3    3    0    0  0.13125560240E+03 -0.42019154702E+03  0.53247886797E+03  0.69088545663E+03  0.00000000000E+00 0.  1.
        -13    1    3    3    0    0  0.48904914771E+02 -0.32836740563E+03  0.30894254823E+03  0.45350010130E+03  0.00000000000E+00 0. -1.
         22    1    1    2    0    0 -0.18016051717E+03  0.74855895265E+03 -0.10318563402E+04  0.12874493483E+04  0.00000000000E+00 0.  1.
<mgrwt>
<rscale>  0 0.24243670E+04</rscale>
<asrwt>0</asrwt>
<pdfrwt beam="1">  1        2 0.20171306E+00 0.24243670E+04</pdfrwt>
<pdfrwt beam="2">  1       -2 0.17241538E+00 0.24243670E+04</pdfrwt>
<totfact> 0.29949009E+00</totfact>
</mgrwt>
</event>
<event>
 6    1  0.4630212E-004  0.9905471E+03  0.7818608E-02  0.9318974E-01
         -2   -1    0    0    0  501 -0.00000000000E+00  0.00000000000E+00  0.21806013082E+03  0.21806013082E+03  0.00000000000E+00 0. -1.
          2   -1    0    0  501    0  0.00000000000E+00 -0.00000000000E+00 -0.11249002568E+04  0.11249002568E+04  0.00000000000E+00 0.  1.
         23    2    1    2    0    0  0.90352426181E+02 -0.33183448288E+03 -0.93303392900E+03  0.99804909428E+03  0.85276004787E+02 0.  0.
         13    1    3    3    0    0  0.29806706145E+02 -0.21111326731E+02 -0.73570238061E+02  0.82138345344E+02  0.00000000000E+00 0.  1.
        -13    1    3    3    0    0  0.60545720036E+02 -0.31072315615E+03 -0.85946369094E+03  0.91591074894E+03  0.00000000000E+00 0. -1.
         22    1    1    2    0    0 -0.90352426181E+02  0.33183448288E+03  0.26193803025E+02  0.34491129332E+03  0.00000000000E+00 0. -1.
<mgrwt>
<rscale>  0 0.99054712E+03</rscale>
<asrwt>0</asrwt>
<pdfrwt beam="1">  1        2 0.17306157E+00 0.99054712E+03</pdfrwt>
<pdfrwt beam="2">  1       -2 0.33547713E-01 0.99054712E+03</pdfrwt>
<totfact> 0.17425004E+02</totfact>
</mgrwt>
</event>
<event>
 6    1  0.4630212E-004  0.1908656E+04  0.7818608E-02  0.8650560E-01
         -2   -1    0    0    0  501 -0.00000000000E+00  0.00000000000E+00  0.64317494841E+03  0.64317494841E+03  0.00000000000E+00 0. -1.
          2   -1    0    0  501    0  0.00000000000E+00 -0.00000000000E+00 -0.14160099790E+04  0.14160099790E+04  0.00000000000E+00 0.  1.
         23    2    1    2    0    0  0.20424043891E+03  0.73240765051E+03  0.23117379010E+03  0.79975297790E+03  0.89601233353E+02 0.  0.
         13    1    3    3    0    0  0.31745060285E+02  0.25884416946E+03  0.96542998089E+02  0.27808021037E+03  0.00000000000E+00 0.  1.
        -13    1    3    3    0    0  0.17249537862E+03  0.47356348105E+03  0.13463079201E+03  0.52167276754E+03  0.00000000000E+00 0. -1.
         22    1    1    2    0    0 -0.20424043891E+03 -0.73240765051E+03 -0.10040088207E+04  0.12594319495E+04  0.00000000000E+00 0.  1.
<mgrwt>
<rscale>  0 0.19086562E+04</rscale>
<asrwt>0</asrwt>
<pdfrwt beam="1">  1        2 0.21784769E+00 0.19086562E+04</pdfrwt>
<pdfrwt beam="2">  1       -2 0.98949994E-01 0.19086562E+04</pdfrwt>
<totfact> 0.11231766E+01</totfact>
</mgrwt>
</event>
<event>
 6    1  0.4630212E-004  0.2723837E+04  0.7818608E-02  0.8327312E-01
         -2   -1    0    0    0  501 -0.00000000000E+00  0.00000000000E+00  0.70103206692E+03  0.70103206692E+03  0.00000000000E+00 0. -1.
          2   -1    0    0  501    0  0.00000000000E+00 -0.00000000000E+00 -0.26458449498E+04  0.26458449498E+04  0.00000000000E+00 0.  1.
         23    2    1    2    0    0 -0.87240757279E+03 -0.10418010708E+04 -0.10499859709E+04  0.17198675986E+04  0.95024068584E+02 0.  0.
         11    1    3    3    0    0 -0.66501042123E+03 -0.84871105479E+03 -0.81093318225E+03  0.13491337743E+04  0.00000000000E+00 0. -1.
        -11    1    3    3    0    0 -0.20739715157E+03 -0.19309001599E+03 -0.23905278861E+03  0.37073382432E+03  0.00000000000E+00 0.  1.
         22    1    1    2    0    0  0.87240757279E+03  0.10418010708E+04 -0.89482691203E+03  0.16270094181E+04  0.00000000000E+00 0.  1.
<mgrwt>
<rscale>  0 0.27238371E+04</rscale>
<asrwt>0</asrwt>
<pdfrwt beam="1">  1        2 0.40705307E+00 0.27238371E+04</pdfrwt>
<pdfrwt beam="2">  1       -2 0.10785109E+00 0.27238371E+04</pdfrwt>
<totfact> 0.17249824E+00</totfact>
</mgrwt>
</event>
<event>
 6    1  0.4630212E-004  0.3739006E+04  0.7818608E-02  0.8059372E-01
          2   -1    0    0  501    0  0.00000000000E+00  0.00000000000E+00  0.31182746657E+04  0.31182746657E+04  0.00000000000E+00 0.  1.
         -2   -1    0    0    0  501 -0.00000000000E+00 -0.00000000000E+00 -0.11208251980E+04  0.11208251980E+04  0.00000000000E+00 0. -1.
         23    2    1    2    0    0 -0.36194977796E+03  0.61318210477E+03  0.29577173822E+04  0.30436441334E+04  0.93153436093E+02 0.  0.
         13    1    3    3    0    0 -0.14267836384E+03  0.25708666016E+03  0.14168449825E+04  0.14470315722E+04  0.00000000000E+00 0.  1.
        -13    1    3    3    0    0 -0.21927141412E+03  0.35609544461E+03  0.15408723996E+04  0.15966125612E+04  0.00000000000E+00 0. -1.
         22    1    1    2    0    0  0.36194977796E+03 -0.61318210477E+03 -0.96026791451E+03  0.11954557303E+04  0.00000000000E+00 0. -1.
<mgrwt>
<rscale>  0 0.37390057E+04</rscale>
<asrwt>0</asrwt>
<pdfrwt beam="1">  1        2 0.47973456E+00 0.37390057E+04</pdfrwt>
<pdfrwt beam="2">  1       -2 0.17243465E+00 0.37390057E+04</pdfrwt>
<totfact> 0.24156312E-01</totfact>
</mgrwt>
</event>
<event>
 6    1  0.4630212E-004  0.1181094E+04  0.7818608E-02  0.9129568E-01
          2   -1    0    0  501    0  0.00000000000E+00  0.00000000000E+00  0.11276066582E+04  0.11276066582E+04  0.00000000000E+00 0.  1.
         -2   -1    0    0    0  501 -0.00000000000E+00 -0.00000000000E+00 -0.30927945808E+03  0.30927945808E+03  0.00000000000E+00 0. -1.
         23    2    1    2    0    0 -0.26432457797E+03 -0.21246646441E+03 -0.17082346734E+03  0.39121478936E+03  0.94121588373E+02 0.  0.
         13    1    3    3    0    0 -0.20361409366E+03 -0.19608685585E+03 -0.10881348361E+03  0.30290118586E+03  0.00000000000E+00 0. -1.
        -13    1    3    3    0    0 -0.60710484306E+02 -0.16379608558E+02 -0.62009983726E+02  0.88313603499E+02  0.00000000000E+00 0.  1.
         22    1    1    2    0    0  0.26432457797E+03  0.21246646441E+03  0.98915066742E+03  0.10456713269E+04  0.00000000000E+00 0.  1.
<mgrwt>
<rscale>  0 0.11810937E+04</rscale>
<asrwt>0</asrwt>
<pdfrwt beam="1">  1        2 0.17347795E+00 0.11810937E+04</pdfrwt>
<pdfrwt beam="2">  1       -2 0.47581456E-01 0.11810937E+04</pdfrwt>
<totfact> 0.86605778E+01</totfact>
</mgrwt>
</event>
<event>
 6    1  0.4630212E-004  0.3811367E+04  0.7818608E-02  0.8043720E-01
         -2   -1    0    0    0  501 -0.00000000000E+00  0.00000000000E+00  0.25907138829E+04  0.25907138829E+04  0.00000000000E+00 0. -1.
          2   -1    0    0  501    0  0.00000000000E+00 -0.00000000000E+00 -0.14017871346E+04  0.14017871346E+04  0.00000000000E+00 0.  1.
         23    2    1    2    0    0 -0.13472635443E+04 -0.11904050825E+04 -0.64670404554E+02  0.18007690221E+04  0.80021819054E+02 0.  0.
         11    1    3    3    0    0 -0.10446453182E+04 -0.92074846293E+03 -0.16623059698E+02  0.13926011270E+04  0.00000000000E+00 0.  1.
        -11    1    3    3    0    0 -0.30261822608E+03 -0.26965661955E+03 -0.48047344856E+02  0.40816789508E+03  0.00000000000E+00 0. -1.
         22    1    1    2    0    0  0.13472635443E+04  0.11904050825E+04  0.12535971529E+04  0.21917319955E+04  0.00000000000E+00 0.  1.
<mgrwt>
<rscale>  0 0.38113669E+04</rscale>
<asrwt>0</asrwt>
<pdfrwt beam="1">  1        2 0.21565956E+00 0.38113669E+04</pdfrwt>
<pdfrwt beam="2">  1       -2 0.39857136E+00 0.38113669E+04</pdfrwt>
<totfact> 0.87646245E-02</totfact>
</mgrwt>
</event>
<event>
 6    1  0.4630212E-004  0.2772898E+04  0.7818608E-02  0.8311732E-01
          2   -1    0    0  501    0  0.00000000000E+00  0.00000000000E+00  0.24121733043E+04  0.24121733043E+04  0.00000000000E+00 0.  1.
         -2   -1    0    0    0  501 -0.00000000000E+00 -0.00000000000E+00 -0.79689170975E+03  0.79689170975E+03  0.00000000000E+00 0. -1.
         23    2    1    2    0    0  0.29955098491E+02  0.12175488862E+04  0.15714991037E+04  0.19903609873E+04  0.92762215556E+02 0.  0.
         13    1    3    3    0    0 -0.23837193622E+02  0.54108737383E+03  0.74218821464E+03  0.91879655195E+03  0.00000000000E+00 0.  1.
        -13    1    3    3    0    0  0.53792292114E+02  0.67646151237E+03  0.82931088909E+03  0.10715644354E+04  0.00000000000E+00 0. -1.
         22    1    1    2    0    0 -0.29955098491E+02 -0.12175488862E+04  0.43782490821E+02  0.12187040267E+04  0.00000000000E+00 0. -1.
<mgrwt>
<rscale>  0 0.27728981E+04</rscale>
<asrwt>0</asrwt>
<pdfrwt beam="1">  1        2 0.37110358E+00 0.27728981E+04</pdfrwt>
<pdfrwt beam="2">  1       -2 0.12259873E+00 0.27728981E+04</pdfrwt>
<totfact> 0.17170067E+00</totfact>
</mgrwt>
</event>
<event>
 6    1  0.4630212E-004  0.5685173E+04  0.7818608E-02  0.7730711E-01
         -2   -1    0    0    0  501 -0.00000000000E+00  0.00000000000E+00  0.27053276061E+04  0.27053276061E+04  0.00000000000E+00 0.  1.
          2   -1    0    0  501    0  0.00000000000E+00 -0.00000000000E+00 -0.29868091903E+04  0.29868091903E+04  0.00000000000E+00 0. -1.
         23    2    1    2    0    0 -0.12069600625E+04  0.20772381487E+04 -0.16606813298E+04  0.29219630008E+04  0.91292824332E+02 0.  0.
         13    1    3    3    0    0 -0.28617087752E+03  0.56641790307E+03 -0.45732785553E+03  0.78222233381E+03  0.00000000000E+00 0. -1.
        -13    1    3    3    0    0 -0.92078918500E+03  0.15108202457E+04 -0.12033534743E+04  0.21397406670E+04  0.00000000000E+00 0.  1.
         22    1    1    2    0    0  0.12069600625E+04 -0.20772381487E+04  0.13791997456E+04  0.27701737955E+04  0.00000000000E+00 0.  1.
<mgrwt>
<rscale>  0 0.56851728E+04</rscale>
<asrwt>0</asrwt>
<pdfrwt beam="1">  1        2 0.45950910E+00 0.56851728E+04</pdfrwt>
<pdfrwt beam="2">  1       -2 0.41620425E+00 0.56851728E+04</pdfrwt>
<totfact> 0.71192656E-03</totfact>
</mgrwt>
</event>
<event>
 6    1  0.4630212E-004  0.1350850E+04  0.7818608E-02  0.8990185E-01
          2   -1    0    0  501    0  0.00000000000E+00  0.00000000000E+00  0.97349491313E+03  0.97349491313E+03  0.00000000000E+00 0.  1.
         -2   -1    0    0    0  501 -0.00000000000E+00 -0.00000000000E+00 -0.46861940431E+03  0.46861940431E+03  0.00000000000E+00 0. -1.
         23    2    1    2    0    0 -0.65940274139E+03  0.12859896689E+03  0.22879862600E+03  0.71577547443E+03  0.92930344321E+02 0.  0.
         13    1    3    3    0    0 -0.19539485913E+03  0.81919199584E+02  0.71651184784E+02  0.22366000652E+03  0.00000000000E+00 0.  1.
        -13    1    3    3    0    0 -0.46400788226E+03  0.46679767303E+02  0.15714744121E+03  0.49211546791E+03  0.00000000000E+00 0. -1.
         22    1    1    2    0    0  0.65940274139E+03 -0.12859896689E+03  0.27607688282E+03  0.72633884301E+03  0.00000000000E+00 0.  1.
<mgrwt>
<rscale>  0 0.13508495E+04</rscale>
<asrwt>0</asrwt>
<pdfrwt beam="1">  1        2 0.14976845E+00 0.13508495E+04</pdfrwt>
<pdfrwt beam="2">  1       -2 0.72095294E-01 0.13508495E+04</pdfrwt>
<totfact> 0.44608421E+01</totfact>
</mgrwt>
</event>
<event>
 6    1  0.4630212E-004  0.1588052E+04  0.7818608E-02  0.8827922E-01
         -2   -1    0    0    0  501 -0.00000000000E+00  0.00000000000E+00  0.40644753884E+03  0.40644753884E+03  0.00000000000E+00 0. -1.
          2   -1    0    0  501    0  0.00000000000E+00 -0.00000000000E+00 -0.15511903376E+04  0.15511903376E+04  0.00000000000E+00 0.  1.
         23    2    1    2    0    0 -0.23884825430E+02  0.52302480677E+03 -0.13057620566E+04  0.14098672722E+04  0.92659286941E+02 0.  0.
         13    1    3    3    0    0 -0.57882881381E+02  0.26840557888E+03 -0.65295906107E+03  0.70834138532E+03  0.00000000000E+00 0. -1.
        -13    1    3    3    0    0  0.33998055951E+02  0.25461922789E+03 -0.65280299556E+03  0.70152588693E+03  0.00000000000E+00 0.  1.
         22    1    1    2    0    0  0.23884825430E+02 -0.52302480677E+03  0.16101925788E+03  0.54777060417E+03  0.00000000000E+00 0. -1.
<mgrwt>
<rscale>  0 0.15880523E+04</rscale>
<asrwt>0</asrwt>
<pdfrwt beam="1">  1        2 0.23864467E+00 0.15880523E+04</pdfrwt>
<pdfrwt beam="2">  1       -2 0.62530389E-01 0.15880523E+04</pdfrwt>
<totfact> 0.27040471E+01</totfact>
</mgrwt>
</event>
<event>
 6    1  0.4630212E-004  0.3994928E+04  0.7818608E-02  0.8005570E-01
         -2   -1    0    0    0  501 -0.00000000000E+00  0.00000000000E+00  0.17958951183E+04  0.17958951183E+04  0.00000000000E+00 0. -1.
          2   -1    0    0  501    0  0.00000000000E+00 -0.00000000000E+00 -0.22216570240E+04  0.22216570240E+04  0.00000000000E+00 0.  1.
         23    2    1    2    0    0  0.19938609353E+04  0.10217450088E+03 -0.20521345596E+03  0.20089300583E+04  0.88126944588E+02 0.  0.
         13    1    3    3    0    0  0.12604383276E+04  0.56612505315E+02 -0.87662544981E+02  0.12647507562E+04  0.00000000000E+00 0. -1.
        -13    1    3    3    0    0  0.73342260770E+03  0.45561995561E+02 -0.11755091098E+03  0.74417930205E+03  0.00000000000E+00 0.  1.
         22    1    1    2    0    0 -0.19938609353E+04 -0.10217450088E+03 -0.22054844977E+03  0.20086220841E+04  0.00000000000E+00 0.  1.
<mgrwt>
<rscale>  0 0.39949283E+04</rscale>
<asrwt>0</asrwt>
<pdfrwt beam="1">  1        2 0.34179339E+00 0.39949283E+04</pdfrwt>
<pdfrwt beam="2">  1       -2 0.27629156E+00 0.39949283E+04</pdfrwt>
<totfact> 0.17580165E-01</totfact>
</mgrwt>
</event>
<event>
 6    1  0.4630212E-004  0.4664169E+03  0.7818608E-02  0.1022936E+00
         -4   -1    0    0    0  501 -0.00000000000E+00  0.00000000000E+00  0.37032992256E+02  0.37032992256E+02  0.00000000000E+00 0. -1.
          4   -1    0    0  501    0  0.00000000000E+00 -0.00000000000E+00 -0.14685872195E+04  0.14685872195E+04  0.00000000000E+00 0.  1.
         23    2    1    2    0    0 -0.21938972450E+03  0.42394379174E+02 -0.67892712722E+03  0.72052360223E+03  0.91011442666E+02 0.  0.
         13    1    3    3    0    0 -0.57203605784E+02 -0.26718577994E+02 -0.22066369482E+03  0.22951819348E+03  0.00000000000E+00 0.  1.
        -13    1    3    3    0    0 -0.16218611871E+03  0.69112957169E+02 -0.45826343240E+03  0.49100540875E+03  0.00000000000E+00 0. -1.
         22    1    1    2    0    0  0.21938972450E+03 -0.42394379174E+02 -0.75262710003E+03  0.78509660953E+03  0.00000000000E+00 0.  1.
<mgrwt>
<rscale>  0 0.46641689E+03</rscale>
<asrwt>0</asrwt>
<pdfrwt beam="1">  1        4 0.22593655E+00 0.46641689E+03</pdfrwt>
<pdfrwt beam="2">  1       -4 0.56973821E-02 0.46641689E+03</pdfrwt>
<totfact> 0.36692988E+01</totfact>
</mgrwt>
</event>
<event>
 6    1  0.4630212E-004  0.4548069E+04  0.7818608E-02  0.7902275E-01
          2   -1    0    0  501    0  0.00000000000E+00  0.00000000000E+00  0.22792687133E+04  0.22792687133E+04  0.00000000000E+00 0.  1.
         -2   -1    0    0    0  501 -0.00000000000E+00 -0.00000000000E+00 -0.22688127954E+04  0.22688127954E+04  0.00000000000E+00 0. -1.
         23    2    1    2    0    0  0.12421765571E+03 -0.19938847611E+04 -0.10793206938E+04  0.22724234654E+04  0.89268020096E+02 0.  0.
         11    1    3    3    0    0  0.89767739943E+02 -0.97424849916E+03 -0.56690010967E+03  0.11307493620E+04  0.00000000000E+00 0.  1.
        -11    1    3    3    0    0  0.34449915766E+02 -0.10196362620E+04 -0.51242058413E+03  0.11416741034E+04  0.00000000000E+00 0. -1.
         22    1    1    2    0    0 -0.12421765571E+03  0.19938847611E+04  0.10897766117E+04  0.22756580433E+04  0.00000000000E+00 0.  1.
<mgrwt>
<rscale>  0 0.45480695E+04</rscale>
<asrwt>0</asrwt>
<pdfrwt beam="1">  1        2 0.35065672E+00 0.45480695E+04</pdfrwt>
<pdfrwt beam="2">  1       -2 0.34904812E+00 0.45480695E+04</pdfrwt>
<totfact> 0.55460191E-02</totfact>
</mgrwt>
</event>
<event>
 6    1  0.4630212E-004  0.2218348E+04  0.7818608E-02  0.8510830E-01
          3   -1    0    0  501    0  0.00000000000E+00  0.00000000000E+00  0.68081897495E+03  0.68081897495E+03  0.00000000000E+00 0. -1.
         -3   -1    0    0    0  501 -0.00000000000E+00 -0.00000000000E+00 -0.18070396646E+04  0.18070396646E+04  0.00000000000E+00 0.  1.
         23    2    1    2    0    0  0.33776486293E+03 -0.43253800620E+03  0.51448126090E+03  0.75780744956E+03  0.91689330639E+02 0.  0.
         13    1    3    3    0    0  0.13876490023E+03 -0.15125102490E+03  0.24982914127E+03  0.32333754792E+03  0.00000000000E+00 0.  1.
        -13    1    3    3    0    0  0.19899996270E+03 -0.28128698130E+03  0.26465211963E+03  0.43446990164E+03  0.00000000000E+00 0. -1.
         22    1    1    2    0    0 -0.33776486293E+03  0.43253800620E+03 -0.16407019505E+04  0.17300511900E+04  0.00000000000E+00 0.  1.
<mgrwt>
<rscale>  0 0.22183479E+04</rscale>
<asrwt>0</asrwt>
<pdfrwt beam="1">  1        3 0.10474138E+00 0.22183479E+04</pdfrwt>
<pdfrwt beam="2">  1       -3 0.27800610E+00 0.22183479E+04</pdfrwt>
<totfact> 0.94454373E-02</totfact>
</mgrwt>
</event>
<event>
 6    1  0.4630212E-004  0.1797875E+04  0.7818608E-02  0.8707431E-01
         -2   -1    0    0    0  501 -0.00000000000E+00  0.00000000000E+00  0.41842017478E+03  0.41842017478E+03  0.00000000000E+00 0. -1.
          2   -1    0    0  501    0  0.00000000000E+00 -0.00000000000E+00 -0.19312840399E+04  0.19312840399E+04  0.00000000000E+00 0.  1.
         23    2    1    2    0    0 -0.27719015624E+03 -0.39985188714E+03 -0.17426868369E+04  0.18116201016E+04  0.91071767432E+02 0.  0.
         13    1    3    3    0    0  0.34401434598E+01 -0.18048697486E+02 -0.11150094135E+03  0.11300464588E+03  0.00000000000E+00 0. -1.
        -13    1    3    3    0    0 -0.28063029970E+03 -0.38180318965E+03 -0.16311858955E+04  0.16986154558E+04  0.00000000000E+00 0.  1.
         22    1    1    2    0    0  0.27719015624E+03  0.39985188714E+03  0.22982297177E+03  0.53808411305E+03  0.00000000000E+00 0. -1.
<mgrwt>
<rscale>  0 0.17978745E+04</rscale>
<asrwt>0</asrwt>
<pdfrwt beam="1">  1        2 0.29712062E+00 0.17978745E+04</pdfrwt>
<pdfrwt beam="2">  1       -2 0.64372335E-01 0.17978745E+04</pdfrwt>
<totfact> 0.15355424E+01</totfact>
</mgrwt>
</event>
<event>
 6    1  0.4630212E-004  0.1561165E+04  0.7818608E-02  0.8844767E-01
         -2   -1    0    0    0  501 -0.00000000000E+00  0.00000000000E+00  0.16343352922E+04  0.16343352922E+04  0.00000000000E+00 0. -1.
          2   -1    0    0  501    0  0.00000000000E+00 -0.00000000000E+00 -0.37281769399E+03  0.37281769399E+03  0.00000000000E+00 0.  1.
         23    2    1    2    0    0 -0.26463903428E+03  0.68415340619E+03  0.96582851068E+03  0.12162473419E+04  0.91286269751E+02 0.  0.
         11    1    3    3    0    0 -0.45840903011E+02  0.73391171607E+02  0.15810545190E+03  0.18023591867E+03  0.00000000000E+00 0.  1.
        -11    1    3    3    0    0 -0.21879813127E+03  0.61076223458E+03  0.80772305878E+03  0.10360114233E+04  0.00000000000E+00 0. -1.
         22    1    1    2    0    0  0.26463903428E+03 -0.68415340619E+03  0.29568908756E+03  0.79090564429E+03  0.00000000000E+00 0. -1.
<mgrwt>
<rscale>  0 0.15611651E+04</rscale>
<asrwt>0</asrwt>
<pdfrwt beam="1">  1        2 0.57356569E-01 0.15611651E+04</pdfrwt>
<pdfrwt beam="2">  1       -2 0.25143620E+00 0.15611651E+04</pdfrwt>
<totfact> 0.52155545E+00</totfact>
</mgrwt>
</event>
<event>
 6    1  0.4630212E-004  0.2699176E+04  0.7818608E-02  0.8335273E-01
          1   -1    0    0  501    0  0.00000000000E+00  0.00000000000E+00  0.12710958547E+04  0.12710958547E+04  0.00000000000E+00 0. -1.
         -1   -1    0    0    0  501 -0.00000000000E+00 -0.00000000000E+00 -0.14329267406E+04  0.14329267406E+04  0.00000000000E+00 0.  1.
         23    2    1    2    0    0 -0.47839061053E+03  0.63285233779E+03 -0.11727881908E+04  0.14189567097E+04  0.92985729631E+02 0.  0.
         11    1    3    3    0    0 -0.14433877892E+03  0.18376015931E+03 -0.42365100959E+03  0.48381986026E+03  0.00000000000E+00 0.  1.
        -11    1    3    3    0    0 -0.33405183161E+03  0.44909217848E+03 -0.74913718121E+03  0.93513684948E+03  0.00000000000E+00 0. -1.
         22    1    1    2    0    0  0.47839061053E+03 -0.63285233779E+03  0.10109573050E+04  0.12850658855E+04  0.00000000000E+00 0.  1.
<mgrwt>
<rscale>  0 0.26991756E+04</rscale>
<asrwt>0</asrwt>
<pdfrwt beam="1">  1        1 0.19555321E+00 0.26991756E+04</pdfrwt>
<pdfrwt beam="2">  1       -1 0.22045027E+00 0.26991756E+04</pdfrwt>
<totfact> 0.90549877E-01</totfact>
</mgrwt>
</event>
<event>
 6    1  0.4630212E-004  0.3156075E+04  0.7818608E-02  0.8200515E-01
         -2   -1    0    0    0  501 -0.00000000000E+00  0.00000000000E+00  0.80044771375E+03  0.80044771375E+03  0.00000000000E+00 0. -1.
          2   -1    0    0  501    0  0.00000000000E+00 -0.00000000000E+00 -0.31110127856E+04  0.31110127856E+04  0.00000000000E+00 0.  1.
         23    2    1    2    0    0 -0.30319843807E+03 -0.12631868692E+04 -0.48765544649E+02  0.13031454377E+04  0.90772210456E+02 0.  0.
         13    1    3    3    0    0 -0.26952481655E+03 -0.97252285068E+03 -0.23579910558E+02  0.10094554641E+04  0.00000000000E+00 0. -1.
        -13    1    3    3    0    0 -0.33673621514E+02 -0.29066401851E+03 -0.25185634091E+02  0.29368997363E+03  0.00000000000E+00 0.  1.
         22    1    1    2    0    0  0.30319843807E+03  0.12631868692E+04 -0.22617995272E+04  0.26083150616E+04  0.00000000000E+00 0.  1.
<mgrwt>
<rscale>  0 0.31560755E+04</rscale>
<asrwt>0</asrwt>
<pdfrwt beam="1">  1        2 0.47861736E+00 0.31560755E+04</pdfrwt>
<pdfrwt beam="2">  1       -2 0.12314580E+00 0.31560755E+04</pdfrwt>
<totfact> 0.62237330E-01</totfact>
</mgrwt>
</event>
<event>
 6    1  0.4630212E-004  0.3064193E+04  0.7818608E-02  0.8225634E-01
         -2   -1    0    0    0  501 -0.00000000000E+00  0.00000000000E+00  0.24674710101E+04  0.24674710101E+04  0.00000000000E+00 0. -1.
          2   -1    0    0  501    0  0.00000000000E+00 -0.00000000000E+00 -0.95130587077E+03  0.95130587077E+03  0.00000000000E+00 0.  1.
         23    2    1    2    0    0  0.78284777973E+03  0.11246279216E+04 -0.23195384116E+01  0.13734323317E+04  0.93125620051E+02 0.  0.
         13    1    3    3    0    0  0.64262271783E+03  0.92576296474E+03  0.33712013837E+02  0.11274473488E+04  0.00000000000E+00 0. -1.
        -13    1    3    3    0    0  0.14022506191E+03  0.19886495688E+03 -0.36031552248E+02  0.24598498292E+03  0.00000000000E+00 0.  1.
         22    1    1    2    0    0 -0.78284777973E+03 -0.11246279216E+04  0.15184846777E+04  0.20453445491E+04  0.00000000000E+00 0. -1.
<mgrwt>
<rscale>  0 0.30641930E+04</rscale>
<asrwt>0</asrwt>
<pdfrwt beam="1">  1        2 0.14635475E+00 0.30641930E+04</pdfrwt>
<pdfrwt beam="2">  1       -2 0.37961092E+00 0.30641930E+04</pdfrwt>
<totfact> 0.23222097E-01</totfact>
</mgrwt>
</event>
<event>
 6    1  0.4630212E-004  0.1184901E+04  0.7818608E-02  0.9126176E-01
         -1   -1    0    0    0  501 -0.00000000000E+00  0.00000000000E+00  0.11592122421E+03  0.11592122421E+03  0.00000000000E+00 0. -1.
          1   -1    0    0  501    0  0.00000000000E+00 -0.00000000000E+00 -0.30278992125E+04  0.30278992125E+04  0.00000000000E+00 0.  1.
         23    2    1    2    0    0 -0.51202865960E+03  0.21270340637E+03 -0.19897460694E+04  0.20677499002E+04  0.95310763911E+02 0.  0.
         13    1    3    3    0    0 -0.50332503027E+03  0.21470540913E+03 -0.18904719851E+04  0.19680749034E+04  0.00000000000E+00 0. -1.
        -13    1    3    3    0    0 -0.87036293250E+01 -0.20020027579E+01 -0.99274084331E+02  0.99674996856E+02  0.00000000000E+00 0.  1.
         22    1    1    2    0    0  0.51202865960E+03 -0.21270340637E+03 -0.92223191886E+03  0.10760705365E+04  0.00000000000E+00 0. -1.
<mgrwt>
<rscale>  0 0.11849013E+04</rscale>
<asrwt>0</asrwt>
<pdfrwt beam="1">  1        1 0.46583058E+00 0.11849013E+04</pdfrwt>
<pdfrwt beam="2">  1       -1 0.17834037E-01 0.11849013E+04</pdfrwt>
<totfact> 0.14190206E+01</totfact>
</mgrwt>
</event>
<event>
 6    1  0.4844613E-004  0.2768395E+04  0.7818608E-02  0.8313148E-01
         -2   -1    0    0    0  501 -0.00000000000E+00  0.00000000000E+00  0.94311773494E+03  0.94311773494E+03  0.00000000000E+00 0. -1.
          2   -1    0    0  501    0  0.00000000000E+00 -0.00000000000E+00 -0.20315620557E+04  0.20315620557E+04  0.00000000000E+00 0.  1.
         23    2    1    2    0    0 -0.68109987071E+03 -0.93401171644E+03  0.27048266361E+03  0.11905953002E+04  0.89896480164E+02 0.  0.
         13    1    3    3    0    0 -0.16965513396E+03 -0.17534945042E+03  0.71547925994E+02  0.25426246274E+03  0.00000000000E+00 0. -1.
        -13    1    3    3    0    0 -0.51144473675E+03 -0.75866226602E+03  0.19893473762E+03  0.93633283743E+03  0.00000000000E+00 0.  1.
         22    1    1    2    0    0  0.68109987071E+03  0.93401171644E+03 -0.13589269844E+04  0.17840844905E+04  0.00000000000E+00 0.  1.
<mgrwt>
<rscale>  0 0.27683946E+04</rscale>
<asrwt>0</asrwt>
<pdfrwt beam="1">  1        2 0.31254801E+00 0.27683946E+04</pdfrwt>
<pdfrwt beam="2">  1       -2 0.14509504E+00 0.27683946E+04</pdfrwt>
<totfact> 0.18311177E+00</totfact>
</mgrwt>
</event>
<event>
 6    1  0.4630212E-004  0.1564404E+04  0.7818608E-02  0.8842719E-01
          2   -1    0    0  501    0  0.00000000000E+00  0.00000000000E+00  0.16654632322E+04  0.16654632322E+04  0.00000000000E+00 0.  1.
         -2   -1    0    0    0  501 -0.00000000000E+00 -0.00000000000E+00 -0.36736947286E+03  0.36736947286E+03  0.00000000000E+00 0. -1.
         23    2    1    2    0    0 -0.73492318740E+03 -0.11922614667E+03  0.95094904907E+03  0.12113484293E+04  0.93455646494E+02 0.  0.
         11    1    3    3    0    0 -0.22415176756E+03 -0.34850982702E+02  0.36210646575E+03  0.42729345704E+03  0.00000000000E+00 0. -1.
        -11    1    3    3    0    0 -0.51077141983E+03 -0.84375163969E+02  0.58884258333E+03  0.78405497228E+03  0.00000000000E+00 0.  1.
         22    1    1    2    0    0  0.73492318740E+03  0.11922614667E+03  0.34714471026E+03  0.82148427574E+03  0.00000000000E+00 0. -1.
<mgrwt>
<rscale>  0 0.15644045E+04</rscale>
<asrwt>0</asrwt>
<pdfrwt beam="1">  1        2 0.25622511E+00 0.15644045E+04</pdfrwt>
<pdfrwt beam="2">  1       -2 0.56518381E-01 0.15644045E+04</pdfrwt>
<totfact> 0.28947398E+01</totfact>
</mgrwt>
</event>
<event>
 6    1  0.4630212E-004  0.1789338E+04  0.7818608E-02  0.8711990E-01
          2   -1    0    0  501    0  0.00000000000E+00  0.00000000000E+00  0.65592590229E+03  0.65592590229E+03  0.00000000000E+00 0.  1.
         -2   -1    0    0    0  501 -0.00000000000E+00 -0.00000000000E+00 -0.12203094391E+04  0.12203094391E+04  0.00000000000E+00 0. -1.
         23    2    1    2    0    0  0.83454305515E+03  0.36013246373E+02 -0.61223605129E+03  0.10395460753E+04  0.89799751664E+02 0.  0.
         13    1    3    3    0    0  0.57298399218E+03  0.23570617485E+02 -0.36743583489E+03  0.68108393173E+03  0.00000000000E+00 0. -1.
        -13    1    3    3    0    0  0.26155906297E+03  0.12442628889E+02 -0.24480021640E+03  0.35846214359E+03  0.00000000000E+00 0.  1.
         22    1    1    2    0    0 -0.83454305515E+03 -0.36013246373E+02  0.47852514474E+02  0.83668926607E+03  0.00000000000E+00 0.  1.
<mgrwt>
<rscale>  0 0.17893379E+04</rscale>
<asrwt>0</asrwt>
<pdfrwt beam="1">  1        2 0.10091168E+00 0.17893379E+04</pdfrwt>
<pdfrwt beam="2">  1       -2 0.18773991E+00 0.17893379E+04</pdfrwt>
<totfact> 0.67381632E+00</totfact>
</mgrwt>
</event>
<event>
 6    1  0.4630212E-004  0.6820151E+03  0.7818608E-02  0.9748493E-01
          2   -1    0    0  501    0  0.00000000000E+00  0.00000000000E+00  0.25283090415E+04  0.25283090415E+04  0.00000000000E+00 0.  1.
         -2   -1    0    0    0  501 -0.00000000000E+00 -0.00000000000E+00 -0.45993643847E+02  0.45993643847E+02  0.00000000000E+00 0. -1.
         23    2    1    2    0    0  0.22247907054E+03  0.62980297877E+02  0.21774129709E+04  0.21916423339E+04  0.93302834953E+02 0.  0.
         13    1    3    3    0    0  0.70254784401E+02  0.33296487714E+02  0.40066317122E+03  0.40813645708E+03  0.00000000000E+00 0. -1.
        -13    1    3    3    0    0  0.15222428614E+03  0.29683810163E+02  0.17767497997E+04  0.17835058768E+04  0.00000000000E+00 0.  1.
         22    1    1    2    0    0 -0.22247907054E+03 -0.62980297877E+02  0.30490242670E+03  0.38266035143E+03  0.00000000000E+00 0.  1.
<mgrwt>
<rscale>  0 0.68201509E+03</rscale>
<asrwt>0</asrwt>
<pdfrwt beam="1">  1        2 0.38897051E+00 0.68201509E+03</pdfrwt>
<pdfrwt beam="2">  1       -2 0.70759472E-02 0.68201509E+03</pdfrwt>
<totfact> 0.41919949E+02</totfact>
</mgrwt>
</event>
<event>
 6    1  0.4630212E-004  0.4728171E+04  0.7818608E-02  0.7871865E-01
         -2   -1    0    0    0  501 -0.00000000000E+00  0.00000000000E+00  0.21915754529E+04  0.21915754529E+04  0.00000000000E+00 0. -1.
          2   -1    0    0  501    0  0.00000000000E+00 -0.00000000000E+00 -0.25501751971E+04  0.25501751971E+04  0.00000000000E+00 0.  1.
         23    2    1    2    0    0 -0.79173060690E+03 -0.24149606095E+03  0.20406171627E+04  0.22037594232E+04  0.85319924577E+02 0.  0.
         11    1    3    3    0    0 -0.25330070484E+03 -0.43382501467E+02  0.69207639538E+03  0.73824997497E+03  0.00000000000E+00 0.  1.
        -11    1    3    3    0    0 -0.53842990206E+03 -0.19811355948E+03  0.13485407673E+04  0.14655094483E+04  0.00000000000E+00 0. -1.
         22    1    1    2    0    0  0.79173060690E+03  0.24149606095E+03 -0.23992169068E+04  0.25379912268E+04  0.00000000000E+00 0.  1.
<mgrwt>
<rscale>  0 0.47281715E+04</rscale>
<asrwt>0</asrwt>
<pdfrwt beam="1">  1        2 0.39233464E+00 0.47281715E+04</pdfrwt>
<pdfrwt beam="2">  1       -2 0.33716546E+00 0.47281715E+04</pdfrwt>
<totfact> 0.45349530E-02</totfact>
</mgrwt>
</event>
<event>
 6    1  0.4630212E-004  0.2992999E+04  0.7818608E-02  0.8245733E-01
          2   -1    0    0  501    0  0.00000000000E+00  0.00000000000E+00  0.29849887455E+04  0.29849887455E+04  0.00000000000E+00 0.  1.
         -2   -1    0    0    0  501 -0.00000000000E+00 -0.00000000000E+00 -0.75025768177E+03  0.75025768177E+03  0.00000000000E+00 0. -1.
         23    2    1    2    0    0  0.34812416829E+03  0.14518412969E+04  0.10184325591E+04  0.18095217221E+04  0.90168716092E+02 0.  0.
         11    1    3    3    0    0  0.20738537686E+03  0.10154187134E+04  0.73279398981E+03  0.12692796735E+04  0.00000000000E+00 0. -1.
        -11    1    3    3    0    0  0.14073879143E+03  0.43642258346E+03  0.28563856926E+03  0.54024204855E+03  0.00000000000E+00 0.  1.
         22    1    1    2    0    0 -0.34812416829E+03 -0.14518412969E+04  0.12162985047E+04  0.19257247052E+04  0.00000000000E+00 0.  1.
<mgrwt>
<rscale>  0 0.29929990E+04</rscale>
<asrwt>0</asrwt>
<pdfrwt beam="1">  1        2 0.45922903E+00 0.29929990E+04</pdfrwt>
<pdfrwt beam="2">  1       -2 0.11542426E+00 0.29929990E+04</pdfrwt>
<totfact> 0.89002533E-01</totfact>
</mgrwt>
</event>
<event>
 6    1  0.4630212E-004  0.2727201E+04  0.7818608E-02  0.8326233E-01
         -2   -1    0    0    0  501 -0.00000000000E+00  0.00000000000E+00  0.10768989516E+04  0.10768989516E+04  0.00000000000E+00 0. -1.
          2   -1    0    0  501    0  0.00000000000E+00 -0.00000000000E+00 -0.17266305985E+04  0.17266305985E+04  0.00000000000E+00 0.  1.
         23    2    1    2    0    0  0.11501553136E+04  0.15702394687E+02 -0.10751215080E+04  0.15771281702E+04  0.91341105866E+02 0.  0.
         13    1    3    3    0    0  0.31263465979E+03  0.42423964554E+02 -0.31360129570E+03  0.44484378824E+03  0.00000000000E+00 0.  1.
        -13    1    3    3    0    0  0.83752065378E+03 -0.26721569867E+02 -0.76152021235E+03  0.11322843820E+04  0.00000000000E+00 0. -1.
         22    1    1    2    0    0 -0.11501553136E+04 -0.15702394687E+02  0.42538986117E+03  0.12264013799E+04  0.00000000000E+00 0. -1.
<mgrwt>
<rscale>  0 0.27272013E+04</rscale>
<asrwt>0</asrwt>
<pdfrwt beam="1">  1        2 0.26563548E+00 0.27272013E+04</pdfrwt>
<pdfrwt beam="2">  1       -2 0.16567676E+00 0.27272013E+04</pdfrwt>
<totfact> 0.18995291E+00</totfact>
</mgrwt>
</event>
<event>
 6    1  0.4630212E-004  0.2116790E+04  0.7818608E-02  0.8553883E-01
         -2   -1    0    0    0  501 -0.00000000000E+00  0.00000000000E+00  0.12260590949E+04  0.12260590949E+04  0.00000000000E+00 0. -1.
          2   -1    0    0  501    0  0.00000000000E+00 -0.00000000000E+00 -0.91365892687E+03  0.91365892687E+03  0.00000000000E+00 0.  1.
         23    2    1    2    0    0 -0.66880243282E+03  0.12422706032E+03  0.97349982278E+03  0.11911497268E+04  0.91688113256E+02 0.  0.
         11    1    3    3    0    0 -0.21221228010E+03  0.24763902486E+02  0.23874928424E+03  0.32038808252E+03  0.00000000000E+00 0. -1.
        -11    1    3    3    0    0 -0.45659015272E+03  0.99463157835E+02  0.73475053854E+03  0.87076164431E+03  0.00000000000E+00 0.  1.
         22    1    1    2    0    0  0.66880243282E+03 -0.12422706032E+03 -0.66109965475E+03  0.94856829494E+03  0.00000000000E+00 0.  1.
<mgrwt>
<rscale>  0 0.21167899E+04</rscale>
<asrwt>0</asrwt>
<pdfrwt beam="1">  1        2 0.14056291E+00 0.21167899E+04</pdfrwt>
<pdfrwt beam="2">  1       -2 0.18862448E+00 0.21167899E+04</pdfrwt>
<totfact> 0.41814900E+00</totfact>
</mgrwt>
</event>
<event>
 6    1  0.4630212E-004  0.1698477E+04  0.7818608E-02  0.8762234E-01
          1   -1    0    0  501    0  0.00000000000E+00  0.00000000000E+00  0.13192733412E+04  0.13192733412E+04  0.00000000000E+00 0.  1.
         -1   -1    0    0    0  501 -0.00000000000E+00 -0.00000000000E+00 -0.54666890080E+03  0.54666890080E+03  0.00000000000E+00 0. -1.
         23    2    1    2    0    0  0.56977282027E+03  0.35470387004E+03 -0.17966051430E+03  0.70092531248E+03  0.92533729712E+02 0.  0.
         13    1    3    3    0    0  0.32771072892E+03  0.25702919853E+03 -0.11039182484E+03  0.43086504353E+03  0.00000000000E+00 0.  1.
        -13    1    3    3    0    0  0.24206209136E+03  0.97674671510E+02 -0.69268689458E+02  0.27006026895E+03  0.00000000000E+00 0. -1.
         22    1    1    2    0    0 -0.56977282027E+03 -0.35470387004E+03  0.95226495473E+03  0.11650169296E+04  0.00000000000E+00 0.  1.
<mgrwt>
<rscale>  0 0.16984766E+04</rscale>
<asrwt>0</asrwt>
<pdfrwt beam="1">  1        1 0.20296513E+00 0.16984766E+04</pdfrwt>
<pdfrwt beam="2">  1       -1 0.84102908E-01 0.16984766E+04</pdfrwt>
<totfact> 0.11684902E+01</totfact>
</mgrwt>
</event>
<event>
 6    1  0.4630212E-004  0.2096059E+04  0.7818608E-02  0.8562981E-01
         -2   -1    0    0    0  501 -0.00000000000E+00  0.00000000000E+00  0.87843610277E+03  0.87843610277E+03  0.00000000000E+00 0. -1.
          2   -1    0    0  501    0  0.00000000000E+00 -0.00000000000E+00 -0.12503655415E+04  0.12503655415E+04  0.00000000000E+00 0.  1.
         23    2    1    2    0    0  0.50052242338E+02  0.70216861621E+03  0.59944635313E+03  0.92916965003E+03  0.92056046514E+02 0.  0.
         11    1    3    3    0    0 -0.14564158608E+02  0.42672883161E+03  0.36588305756E+03  0.56229887271E+03  0.00000000000E+00 0. -1.
        -11    1    3    3    0    0  0.64616400945E+02  0.27543978460E+03  0.23356329557E+03  0.36687077732E+03  0.00000000000E+00 0.  1.
         22    1    1    2    0    0 -0.50052242338E+02 -0.70216861621E+03 -0.97137579182E+03  0.11996319942E+04  0.00000000000E+00 0.  1.
<mgrwt>
<rscale>  0 0.20960594E+04</rscale>
<asrwt>0</asrwt>
<pdfrwt beam="1">  1        2 0.19236393E+00 0.20960594E+04</pdfrwt>
<pdfrwt beam="2">  1       -2 0.13514402E+00 0.20960594E+04</pdfrwt>
<totfact> 0.64129040E+00</totfact>
</mgrwt>
</event>
<event>
 6    1  0.4630212E-004  0.2930167E+04  0.7818608E-02  0.8263958E-01
         -2   -1    0    0    0  501 -0.00000000000E+00  0.00000000000E+00  0.12181985773E+04  0.12181985773E+04  0.00000000000E+00 0. -1.
          2   -1    0    0  501    0  0.00000000000E+00 -0.00000000000E+00 -0.17620028743E+04  0.17620028743E+04  0.00000000000E+00 0.  1.
         23    2    1    2    0    0 -0.62484825258E+03 -0.93559017558E+03  0.68008660635E+03  0.13177715257E+04  0.90772719111E+02 0.  0.
         13    1    3    3    0    0 -0.11105672389E+03 -0.12315150238E+03  0.12576870472E+03  0.20812893971E+03  0.00000000000E+00 0. -1.
        -13    1    3    3    0    0 -0.51379152868E+03 -0.81243867320E+03  0.55431790163E+03  0.11096425860E+04  0.00000000000E+00 0.  1.
         22    1    1    2    0    0  0.62484825258E+03  0.93559017558E+03 -0.12238909033E+04  0.16624299259E+04  0.00000000000E+00 0.  1.
<mgrwt>
<rscale>  0 0.29301668E+04</rscale>
<asrwt>0</asrwt>
<pdfrwt beam="1">  1        2 0.27107736E+00 0.29301668E+04</pdfrwt>
<pdfrwt beam="2">  1       -2 0.18741517E+00 0.29301668E+04</pdfrwt>
<totfact> 0.12584465E+00</totfact>
</mgrwt>
</event>
<event>
 6    1  0.5292476E-004  0.2817520E+04  0.7818608E-02  0.8297850E-01
          2   -1    0    0  501    0  0.00000000000E+00  0.00000000000E+00  0.34252874683E+04  0.34252874683E+04  0.00000000000E+00 0.  1.
         -2   -1    0    0    0  501 -0.00000000000E+00 -0.00000000000E+00 -0.57939820573E+03  0.57939820573E+03  0.00000000000E+00 0. -1.
         23    2    1    2    0    0  0.30571398083E+03  0.12794526100E+04  0.21349721593E+04  0.25094053836E+04  0.92462094079E+02 0.  0.
         11    1    3    3    0    0  0.15732084064E+03  0.68859391441E+03  0.10592082302E+04  0.12731195941E+04  0.00000000000E+00 0.  1.
        -11    1    3    3    0    0  0.14839314019E+03  0.59085869557E+03  0.10757639291E+04  0.12362857895E+04  0.00000000000E+00 0. -1.
         22    1    1    2    0    0 -0.30571398083E+03 -0.12794526100E+04  0.71091710326E+03  0.14952802904E+04  0.00000000000E+00 0. -1.
<mgrwt>
<rscale>  0 0.28175205E+04</rscale>
<asrwt>0</asrwt>
<pdfrwt beam="1">  1        2 0.52696729E+00 0.28175205E+04</pdfrwt>
<pdfrwt beam="2">  1       -2 0.89138188E-01 0.28175205E+04</pdfrwt>
<totfact> 0.85985058E-01</totfact>
</mgrwt>
</event>
<event>
 6    1  0.4630212E-004  0.5664551E+03  0.7818608E-02  0.9977554E-01
          2   -1    0    0  501    0  0.00000000000E+00  0.00000000000E+00  0.15130663890E+04  0.15130663890E+04  0.00000000000E+00 0.  1.
         -2   -1    0    0    0  501 -0.00000000000E+00 -0.00000000000E+00 -0.53016732224E+02  0.53016732224E+02  0.00000000000E+00 0. -1.
         23    2    1    2    0    0 -0.26726487291E+03  0.48365952357E+02  0.88116535801E+03  0.92664836381E+03  0.91951206290E+02 0.  0.
         13    1    3    3    0    0 -0.13579471356E+03 -0.22101379113E+02  0.42079428631E+03  0.44271492699E+03  0.00000000000E+00 0.  1.
        -13    1    3    3    0    0 -0.13147015935E+03  0.70467331469E+02  0.46037107170E+03  0.48393343681E+03  0.00000000000E+00 0. -1.
         22    1    1    2    0    0  0.26726487291E+03 -0.48365952357E+02  0.57888429875E+03  0.63943475741E+03  0.00000000000E+00 0.  1.
<mgrwt>
<rscale>  0 0.56645507E+03</rscale>
<asrwt>0</asrwt>
<pdfrwt beam="1">  1        2 0.23277941E+00 0.56645507E+03</pdfrwt>
<pdfrwt beam="2">  1       -2 0.81564215E-02 0.56645507E+03</pdfrwt>
<totfact> 0.12139632E+03</totfact>
</mgrwt>
</event>
<event>
 6    1  0.4630212E-004  0.1303890E+04  0.7818608E-02  0.9026486E-01
          2   -1    0    0  501    0  0.00000000000E+00  0.00000000000E+00  0.12467889132E+04  0.12467889132E+04  0.00000000000E+00 0.  1.
         -2   -1    0    0    0  501 -0.00000000000E+00 -0.00000000000E+00 -0.34090137847E+03  0.34090137847E+03  0.00000000000E+00 0. -1.
         23    2    1    2    0    0 -0.48822954240E+03 -0.15343968877E+03  0.94080311556E+03  0.10747274062E+04  0.89535865277E+02 0.  0.
         13    1    3    3    0    0 -0.88083144186E+02  0.35264321151E+01  0.19332703983E+03  0.21247687013E+03  0.00000000000E+00 0.  1.
        -13    1    3    3    0    0 -0.40014639821E+03 -0.15696612088E+03  0.74747607573E+03  0.86225053604E+03  0.00000000000E+00 0. -1.
         22    1    1    2    0    0  0.48822954240E+03  0.15343968877E+03 -0.34915580788E+02  0.51296288554E+03  0.00000000000E+00 0. -1.
<mgrwt>
<rscale>  0 0.13038897E+04</rscale>
<asrwt>0</asrwt>
<pdfrwt beam="1">  1        2 0.19181368E+00 0.13038897E+04</pdfrwt>
<pdfrwt beam="2">  1       -2 0.52446366E-01 0.13038897E+04</pdfrwt>
<totfact> 0.59713035E+01</totfact>
</mgrwt>
</event>
<event>
 6    1  0.4630212E-004  0.8391526E+03  0.7818608E-02  0.9505013E-01
         -2   -1    0    0    0  501 -0.00000000000E+00  0.00000000000E+00  0.77014879344E+02  0.77014879344E+02  0.00000000000E+00 0. -1.
          2   -1    0    0  501    0  0.00000000000E+00 -0.00000000000E+00 -0.22858476278E+04  0.22858476278E+04  0.00000000000E+00 0.  1.
         23    2    1    2    0    0 -0.15512288277E+03 -0.35709283556E+03 -0.15190802803E+04  0.15708165051E+04  0.91001059534E+02 0.  0.
         11    1    3    3    0    0 -0.11798689798E+03 -0.17055914100E+03 -0.70911253578E+03  0.73881791875E+03  0.00000000000E+00 0. -1.
        -11    1    3    3    0    0 -0.37135984788E+02 -0.18653369456E+03 -0.80996774451E+03  0.83199858637E+03  0.00000000000E+00 0.  1.
         22    1    1    2    0    0  0.15512288277E+03  0.35709283556E+03 -0.68975246812E+03  0.79204600197E+03  0.00000000000E+00 0. -1.
<mgrwt>
<rscale>  0 0.83915262E+03</rscale>
<asrwt>0</asrwt>
<pdfrwt beam="1">  1        2 0.35166885E+00 0.83915262E+03</pdfrwt>
<pdfrwt beam="2">  1       -2 0.11848444E-01 0.83915262E+03</pdfrwt>
<totfact> 0.24564599E+02</totfact>
</mgrwt>
</event>
<event>
 6    1  0.4630212E-004  0.1659331E+04  0.7818608E-02  0.8784906E-01
         -2   -1    0    0    0  501 -0.00000000000E+00  0.00000000000E+00  0.22061666105E+03  0.22061666105E+03  0.00000000000E+00 0. -1.
          2   -1    0    0  501    0  0.00000000000E+00 -0.00000000000E+00 -0.31200932817E+04  0.31200932817E+04  0.00000000000E+00 0.  1.
         23    2    1    2    0    0 -0.34168048131E+03  0.45363689526E+03 -0.26648007619E+04  0.27262144239E+04  0.92466211650E+02 0.  0.
         11    1    3    3    0    0 -0.50096128202E+02  0.11081309493E+03 -0.44952443066E+03  0.46568377449E+03  0.00000000000E+00 0. -1.
        -11    1    3    3    0    0 -0.29158435311E+03  0.34282380033E+03 -0.22152763313E+04  0.22605306494E+04  0.00000000000E+00 0.  1.
         22    1    1    2    0    0  0.34168048131E+03 -0.45363689526E+03 -0.23467585875E+03  0.61449551888E+03  0.00000000000E+00 0. -1.
<mgrwt>
<rscale>  0 0.16593307E+04</rscale>
<asrwt>0</asrwt>
<pdfrwt beam="1">  1        2 0.48001431E+00 0.16593307E+04</pdfrwt>
<pdfrwt beam="2">  1       -2 0.33941028E-01 0.16593307E+04</pdfrwt>
<totfact> 0.11401702E+01</totfact>
</mgrwt>
</event>
<event>
 6    1  0.4630212E-004  0.4341866E+04  0.7818608E-02  0.7938922E-01
         -2   -1    0    0    0  501 -0.00000000000E+00  0.00000000000E+00  0.17286550516E+04  0.17286550516E+04  0.00000000000E+00 0. -1.
          2   -1    0    0  501    0  0.00000000000E+00 -0.00000000000E+00 -0.27263685182E+04  0.27263685182E+04  0.00000000000E+00 0.  1.
         23    2    1    2    0    0 -0.58676688805E+03  0.91464598169E+03 -0.24262669728E+04  0.26601314357E+04  0.93033214873E+02 0.  0.
         11    1    3    3    0    0 -0.25300952144E+03  0.31448604110E+03 -0.86791429179E+03  0.95717840860E+03  0.00000000000E+00 0. -1.
        -11    1    3    3    0    0 -0.33375736661E+03  0.60015994059E+03 -0.15583526810E+04  0.17029530271E+04  0.00000000000E+00 0.  1.
         22    1    1    2    0    0  0.58676688805E+03 -0.91464598169E+03  0.14285535063E+04  0.17948921341E+04  0.00000000000E+00 0. -1.
<mgrwt>
<rscale>  0 0.43418663E+04</rscale>
<asrwt>0</asrwt>
<pdfrwt beam="1">  1        2 0.41944131E+00 0.43418663E+04</pdfrwt>
<pdfrwt beam="2">  1       -2 0.26594693E+00 0.43418663E+04</pdfrwt>
<totfact> 0.10083014E-01</totfact>
</mgrwt>
</event>
<event>
 6    1  0.4630212E-004  0.2092111E+04  0.7818608E-02  0.8564726E-01
         -2   -1    0    0    0  501 -0.00000000000E+00  0.00000000000E+00  0.13641186241E+04  0.13641186241E+04  0.00000000000E+00 0. -1.
          2   -1    0    0  501    0  0.00000000000E+00 -0.00000000000E+00 -0.80215339350E+03  0.80215339350E+03  0.00000000000E+00 0.  1.
         23    2    1    2    0    0 -0.19264822258E+03 -0.97544442240E+03  0.61111290292E+03  0.11707718154E+04  0.92965073231E+02 0.  0.
         13    1    3    3    0    0 -0.99387407493E+02 -0.36543741277E+03  0.27548660232E+03  0.46831103711E+03  0.00000000000E+00 0.  1.
        -13    1    3    3    0    0 -0.93260815091E+02 -0.61000700963E+03  0.33562630060E+03  0.70246077832E+03  0.00000000000E+00 0. -1.
         22    1    1    2    0    0  0.19264822258E+03  0.97544442240E+03 -0.49147672314E+02  0.99550020218E+03  0.00000000000E+00 0.  1.
<mgrwt>
<rscale>  0 0.20921113E+04</rscale>
<asrwt>0</asrwt>
<pdfrwt beam="1">  1        2 0.12340822E+00 0.20921113E+04</pdfrwt>
<pdfrwt beam="2">  1       -2 0.20986440E+00 0.20921113E+04</pdfrwt>
<totfact> 0.36298829E+00</totfact>
</mgrwt>
</event>
<event>
 6    1  0.4630212E-004  0.2384475E+04  0.7818608E-02  0.8445339E-01
         -2   -1    0    0    0  501 -0.00000000000E+00  0.00000000000E+00  0.89958685501E+03  0.89958685501E+03  0.00000000000E+00 0. -1.
          2   -1    0    0  501    0  0.00000000000E+00 -0.00000000000E+00 -0.15800919654E+04  0.15800919654E+04  0.00000000000E+00 0.  1.
         23    2    1    2    0    0 -0.52521528329E+03 -0.78312270473E+03  0.41549245258E+03  0.10338769936E+04  0.84471268551E+02 0.  0.
         11    1    3    3    0    0 -0.39963471865E+03 -0.58944298093E+03  0.27342400738E+03  0.76283132075E+03  0.00000000000E+00 0.  1.
        -11    1    3    3    0    0 -0.12558056464E+03 -0.19367972381E+03  0.14206844520E+03  0.27104567282E+03  0.00000000000E+00 0. -1.
         22    1    1    2    0    0  0.52521528329E+03  0.78312270473E+03 -0.10959975630E+04  0.14458018269E+04  0.00000000000E+00 0.  1.
<mgrwt>
<rscale>  0 0.23844748E+04</rscale>
<asrwt>0</asrwt>
<pdfrwt beam="1">  1        2 0.24309107E+00 0.23844748E+04</pdfrwt>
<pdfrwt beam="2">  1       -2 0.13839798E+00 0.23844748E+04</pdfrwt>
<totfact> 0.38130369E+00</totfact>
</mgrwt>
</event>
<event>
 6    1  0.4630212E-004  0.1203323E+04  0.7818608E-02  0.9109953E-01
         -2   -1    0    0    0  501 -0.00000000000E+00  0.00000000000E+00  0.57947370277E+03  0.57947370277E+03  0.00000000000E+00 0. -1.
          2   -1    0    0  501    0  0.00000000000E+00 -0.00000000000E+00 -0.62469917713E+03  0.62469917713E+03  0.00000000000E+00 0.  1.
         23    2    1    2    0    0 -0.35197559890E+03  0.46157898138E+03 -0.16647637263E+03  0.61117729931E+03  0.94240810052E+02 0.  0.
         13    1    3    3    0    0 -0.30889349796E+03  0.41443090698E+03 -0.17720488522E+03  0.54641535584E+03  0.00000000000E+00 0. -1.
        -13    1    3    3    0    0 -0.43082100933E+02  0.47148074400E+02  0.10728512594E+02  0.64761943477E+02  0.00000000000E+00 0.  1.
         22    1    1    2    0    0  0.35197559890E+03 -0.46157898138E+03  0.12125089827E+03  0.59299558059E+03  0.00000000000E+00 0.  1.
<mgrwt>
<rscale>  0 0.12033233E+04</rscale>
<asrwt>0</asrwt>
<pdfrwt beam="1">  1        2 0.96107565E-01 0.12033233E+04</pdfrwt>
<pdfrwt beam="2">  1       -2 0.89149801E-01 0.12033233E+04</pdfrwt>
<totfact> 0.50339432E+01</totfact>
</mgrwt>
</event>
<event>
 6    1  0.4630212E-004  0.2371481E+04  0.7818608E-02  0.8450258E-01
         -2   -1    0    0    0  501 -0.00000000000E+00  0.00000000000E+00  0.31084820300E+04  0.31084820300E+04  0.00000000000E+00 0. -1.
          2   -1    0    0  501    0  0.00000000000E+00 -0.00000000000E+00 -0.45230457315E+03  0.45230457315E+03  0.00000000000E+00 0.  1.
         23    2    1    2    0    0  0.73130973268E+03 -0.29821355754E+03  0.60228815454E+01  0.79545397867E+03  0.94686356306E+02 0.  0.
         13    1    3    3    0    0  0.38550781380E+03 -0.12406723629E+03 -0.32961988986E+02  0.40631938957E+03  0.00000000000E+00 0.  1.
        -13    1    3    3    0    0  0.34580191888E+03 -0.17414632126E+03  0.38984870531E+02  0.38913458910E+03  0.00000000000E+00 0. -1.
         22    1    1    2    0    0 -0.73130973268E+03  0.29821355754E+03  0.26501545753E+04  0.27653326245E+04  0.00000000000E+00 0.  1.
<mgrwt>
<rscale>  0 0.23714811E+04</rscale>
<asrwt>0</asrwt>
<pdfrwt beam="1">  1        2 0.69585321E-01 0.23714811E+04</pdfrwt>
<pdfrwt beam="2">  1       -2 0.47822799E+00 0.23714811E+04</pdfrwt>
<totfact> 0.14098689E-01</totfact>
</mgrwt>
</event>
<event>
 6    1  0.4630212E-004  0.5651906E+04  0.7818608E-02  0.7735126E-01
         -2   -1    0    0    0  501 -0.00000000000E+00  0.00000000000E+00  0.18833598816E+04  0.18833598816E+04  0.00000000000E+00 0. -1.
          2   -1    0    0  501    0  0.00000000000E+00 -0.00000000000E+00 -0.42402999402E+04  0.42402999402E+04  0.00000000000E+00 0.  1.
         23    2    1    2    0    0 -0.18844014433E+04  0.21048309769E+04 -0.11507011794E+04  0.30518046047E+04  0.90088291908E+02 0.  0.
         13    1    3    3    0    0 -0.86042999996E+03  0.97481679052E+03 -0.57709258466E+03  0.14225482105E+04  0.00000000000E+00 0. -1.
        -13    1    3    3    0    0 -0.10239714433E+04  0.11300141864E+04 -0.57360859476E+03  0.16292563942E+04  0.00000000000E+00 0.  1.
         22    1    1    2    0    0  0.18844014433E+04 -0.21048309769E+04 -0.12062388792E+04  0.30718552170E+04  0.00000000000E+00 0. -1.
<mgrwt>
<rscale>  0 0.56519062E+04</rscale>
<asrwt>0</asrwt>
<pdfrwt beam="1">  1        2 0.65235383E+00 0.56519062E+04</pdfrwt>
<pdfrwt beam="2">  1       -2 0.28974768E+00 0.56519062E+04</pdfrwt>
<totfact> 0.54023488E-03</totfact>
</mgrwt>
</event>
<event>
 6    1  0.4630212E-004  0.3759402E+04  0.7818608E-02  0.8054924E-01
          1   -1    0    0  501    0  0.00000000000E+00  0.00000000000E+00  0.27952106548E+04  0.27952106548E+04  0.00000000000E+00 0.  1.
         -1   -1    0    0    0  501 -0.00000000000E+00 -0.00000000000E+00 -0.12640466365E+04  0.12640466365E+04  0.00000000000E+00 0. -1.
         23    2    1    2    0    0  0.31504306947E+03 -0.94859513281E+03 -0.95147150162E+03  0.13829605988E+04  0.90538046928E+02 0.  0.
         11    1    3    3    0    0  0.15133623119E+02 -0.12777234944E+03 -0.10146162574E+03  0.16385744209E+03  0.00000000000E+00 0. -1.
        -11    1    3    3    0    0  0.29990944635E+03 -0.82082278336E+03 -0.85000987588E+03  0.12191031567E+04  0.00000000000E+00 0.  1.
         22    1    1    2    0    0 -0.31504306947E+03  0.94859513281E+03  0.24826355199E+04  0.26762966925E+04  0.00000000000E+00 0.  1.
<mgrwt>
<rscale>  0 0.37594024E+04</rscale>
<asrwt>0</asrwt>
<pdfrwt beam="1">  1        1 0.43003241E+00 0.37594024E+04</pdfrwt>
<pdfrwt beam="2">  1       -1 0.19446871E+00 0.37594024E+04</pdfrwt>
<totfact> 0.11021950E-01</totfact>
</mgrwt>
</event>
<event>
 6    1  0.4630212E-004  0.3992800E+04  0.7818608E-02  0.8006001E-01
         -2   -1    0    0    0  501 -0.00000000000E+00  0.00000000000E+00  0.98777295831E+03  0.98777295831E+03  0.00000000000E+00 0. -1.
          2   -1    0    0  501    0  0.00000000000E+00 -0.00000000000E+00 -0.40349475235E+04  0.40349475235E+04  0.00000000000E+00 0.  1.
         23    2    1    2    0    0  0.17463352664E+04  0.73759044552E+03 -0.74099328166E+03  0.20373899071E+04  0.90333062132E+02 0.  0.
         11    1    3    3    0    0  0.12012359786E+04  0.46380288981E+03 -0.48880383038E+03  0.13773199270E+04  0.00000000000E+00 0. -1.
        -11    1    3    3    0    0  0.54509928779E+03  0.27378755571E+03 -0.25218945127E+03  0.66006998003E+03  0.00000000000E+00 0.  1.
         22    1    1    2    0    0 -0.17463352664E+04 -0.73759044552E+03 -0.23061812836E+04  0.29853305748E+04  0.00000000000E+00 0.  1.
<mgrwt>
<rscale>  0 0.39927995E+04</rscale>
<asrwt>0</asrwt>
<pdfrwt beam="1">  1        2 0.62076115E+00 0.39927995E+04</pdfrwt>
<pdfrwt beam="2">  1       -2 0.15196507E+00 0.39927995E+04</pdfrwt>
<totfact> 0.72917276E-02</totfact>
</mgrwt>
</event>
<event>
 6    1  0.4630212E-004  0.1136394E+04  0.7818608E-02  0.9170428E-01
          2   -1    0    0  501    0  0.00000000000E+00  0.00000000000E+00  0.58005468120E+03  0.58005468120E+03  0.00000000000E+00 0.  1.
         -2   -1    0    0    0  501 -0.00000000000E+00 -0.00000000000E+00 -0.55658217120E+03  0.55658217120E+03  0.00000000000E+00 0. -1.
         23    2    1    2    0    0  0.18487458394E+03 -0.62788966479E+02 -0.51715065596E+03  0.56183734503E+03  0.10047554533E+03 0.  0.
         11    1    3    3    0    0  0.18872870374E+02  0.25109519623E+02 -0.63781800676E+02  0.71097055561E+02  0.00000000000E+00 0. -1.
        -11    1    3    3    0    0  0.16600171357E+03 -0.87898486101E+02 -0.45336885529E+03  0.49074028947E+03  0.00000000000E+00 0.  1.
         22    1    1    2    0    0 -0.18487458394E+03  0.62788966479E+02  0.54062316596E+03  0.57479950737E+03  0.00000000000E+00 0.  1.
<mgrwt>
<rscale>  0 0.11363945E+04</rscale>
<asrwt>0</asrwt>
<pdfrwt beam="1">  1        2 0.89239182E-01 0.11363945E+04</pdfrwt>
<pdfrwt beam="2">  1       -2 0.85628026E-01 0.11363945E+04</pdfrwt>
<totfact> 0.60674230E+01</totfact>
</mgrwt>
</event>
<event>
 6    1  0.4630212E-004  0.8387870E+03  0.7818608E-02  0.9505511E-01
         -2   -1    0    0    0  501 -0.00000000000E+00  0.00000000000E+00  0.16718366978E+03  0.16718366978E+03  0.00000000000E+00 0. -1.
          2   -1    0    0  501    0  0.00000000000E+00 -0.00000000000E+00 -0.10520819052E+04  0.10520819052E+04  0.00000000000E+00 0.  1.
         23    2    1    2    0    0  0.23326189884E+03  0.22430499902E+03 -0.82403872277E+03  0.88998191869E+03  0.91127125120E+02 0.  0.
         13    1    3    3    0    0  0.11203072630E+03  0.16941384819E+03 -0.50144969479E+03  0.54102100884E+03  0.00000000000E+00 0.  1.
        -13    1    3    3    0    0  0.12123117253E+03  0.54891150834E+02 -0.32258902798E+03  0.34896090986E+03  0.00000000000E+00 0. -1.
         22    1    1    2    0    0 -0.23326189884E+03 -0.22430499902E+03 -0.60859512691E+02  0.32928365632E+03  0.00000000000E+00 0. -1.
<mgrwt>
<rscale>  0 0.83878701E+03</rscale>
<asrwt>0</asrwt>
<pdfrwt beam="1">  1        2 0.16185875E+00 0.83878701E+03</pdfrwt>
<pdfrwt beam="2">  1       -2 0.25720565E-01 0.83878701E+03</pdfrwt>
<totfact> 0.31885371E+02</totfact>
</mgrwt>
</event>
<event>
 6    1  0.4630212E-004  0.4755228E+04  0.7818608E-02  0.7867416E-01
         -2   -1    0    0    0  501 -0.00000000000E+00  0.00000000000E+00  0.23776932885E+04  0.23776932885E+04  0.00000000000E+00 0. -1.
          2   -1    0    0  501    0  0.00000000000E+00 -0.00000000000E+00 -0.23775351174E+04  0.23775351174E+04  0.00000000000E+00 0.  1.
         23    2    1    2    0    0 -0.22599307526E+03  0.15787414177E+04 -0.17621005951E+04  0.23784546907E+04  0.92470940172E+02 0.  0.
         11    1    3    3    0    0 -0.14762318287E+03  0.88601955387E+03 -0.93077859591E+03  0.12935115185E+04  0.00000000000E+00 0. -1.
        -11    1    3    3    0    0 -0.78369892398E+02  0.69272186379E+03 -0.83132199916E+03  0.10849431722E+04  0.00000000000E+00 0.  1.
         22    1    1    2    0    0  0.22599307526E+03 -0.15787414177E+04  0.17622587662E+04  0.23767737152E+04  0.00000000000E+00 0. -1.
<mgrwt>
<rscale>  0 0.47552284E+04</rscale>
<asrwt>0</asrwt>
<pdfrwt beam="1">  1        2 0.36577463E+00 0.47552284E+04</pdfrwt>
<pdfrwt beam="2">  1       -2 0.36579897E+00 0.47552284E+04</pdfrwt>
<totfact> 0.37547729E-02</totfact>
</mgrwt>
</event>
<event>
 6    1  0.4630212E-004  0.9887052E+03  0.7818608E-02  0.9321020E-01
         -2   -1    0    0    0  501 -0.00000000000E+00  0.00000000000E+00  0.28745442753E+03  0.28745442753E+03  0.00000000000E+00 0. -1.
          2   -1    0    0  501    0  0.00000000000E+00 -0.00000000000E+00 -0.85016770765E+03  0.85016770765E+03  0.00000000000E+00 0.  1.
         23    2    1    2    0    0 -0.14155523178E+03 -0.11340364562E+03  0.23978677965E+03  0.31488000280E+03  0.93559852423E+02 0.  0.
         11    1    3    3    0    0 -0.16908858335E+02 -0.62027185617E+02  0.47040897637E+02  0.79662584042E+02  0.00000000000E+00 0. -1.
        -11    1    3    3    0    0 -0.12464637344E+03 -0.51376460002E+02  0.19274588201E+03  0.23521741875E+03  0.00000000000E+00 0.  1.
         22    1    1    2    0    0  0.14155523178E+03  0.11340364562E+03 -0.80250005977E+03  0.82274213239E+03  0.00000000000E+00 0.  1.
<mgrwt>
<rscale>  0 0.98870516E+03</rscale>
<asrwt>0</asrwt>
<pdfrwt beam="1">  1        2 0.13079503E+00 0.98870516E+03</pdfrwt>
<pdfrwt beam="2">  1       -2 0.44223758E-01 0.98870516E+03</pdfrwt>
<totfact> 0.15363133E+02</totfact>
</mgrwt>
</event>
<event>
 6    1  0.4630212E-004  0.4133472E+04  0.7818608E-02  0.7978149E-01
          2   -1    0    0  501    0  0.00000000000E+00  0.00000000000E+00  0.28435938905E+04  0.28435938905E+04  0.00000000000E+00 0.  1.
         -2   -1    0    0    0  501 -0.00000000000E+00 -0.00000000000E+00 -0.15021125924E+04  0.15021125924E+04  0.00000000000E+00 0. -1.
         23    2    1    2    0    0  0.18056633502E+04 -0.90318089564E+03  0.11308140576E+04  0.23157960044E+04  0.89525620633E+02 0.  0.
         13    1    3    3    0    0  0.68355496431E+03 -0.37540096028E+03  0.47300997567E+03  0.91209194015E+03  0.00000000000E+00 0. -1.
        -13    1    3    3    0    0  0.11221083859E+04 -0.52777993536E+03  0.65780408197E+03  0.14037040643E+04  0.00000000000E+00 0.  1.
         22    1    1    2    0    0 -0.18056633502E+04  0.90318089564E+03  0.21066724041E+03  0.20299104785E+04  0.00000000000E+00 0. -1.
<mgrwt>
<rscale>  0 0.41334722E+04</rscale>
<asrwt>0</asrwt>
<pdfrwt beam="1">  1        2 0.43747598E+00 0.41334722E+04</pdfrwt>
<pdfrwt beam="2">  1       -2 0.23109425E+00 0.41334722E+04</pdfrwt>
<totfact> 0.14285021E-01</totfact>
</mgrwt>
</event>
<event>
 6    1  0.4630212E-004  0.1566903E+04  0.7818608E-02  0.8841143E-01
          2   -1    0    0  501    0  0.00000000000E+00  0.00000000000E+00  0.22041458077E+04  0.22041458077E+04  0.00000000000E+00 0.  1.
         -2   -1    0    0    0  501 -0.00000000000E+00 -0.00000000000E+00 -0.27847352059E+03  0.27847352059E+03  0.00000000000E+00 0. -1.
         23    2    1    2    0    0  0.37813956581E+01  0.10580393914E+03  0.21918603226E+04  0.21961497090E+04  0.87253070015E+02 0.  0.
         13    1    3    3    0    0  0.24547164774E+02  0.56281556225E+01  0.85890568838E+03  0.85927482272E+03  0.00000000000E+00 0. -1.
        -13    1    3    3    0    0 -0.20765769115E+02  0.10017578351E+03  0.13329546342E+04  0.13368748863E+04  0.00000000000E+00 0.  1.
         22    1    1    2    0    0 -0.37813956581E+01 -0.10580393914E+03 -0.26618803551E+03  0.28646961922E+03  0.00000000000E+00 0. -1.
<mgrwt>
<rscale>  0 0.15669030E+04</rscale>
<asrwt>0</asrwt>
<pdfrwt beam="1">  1        2 0.33909935E+00 0.15669030E+04</pdfrwt>
<pdfrwt beam="2">  1       -2 0.42842081E-01 0.15669030E+04</pdfrwt>
<totfact> 0.25526532E+01</totfact>
</mgrwt>
</event>
<event>
 6    1  0.4630212E-004  0.3039978E+04  0.7818608E-02  0.8232406E-01
          2   -1    0    0  501    0  0.00000000000E+00  0.00000000000E+00  0.22762059509E+04  0.22762059509E+04  0.00000000000E+00 0.  1.
         -2   -1    0    0    0  501 -0.00000000000E+00 -0.00000000000E+00 -0.10150075787E+04  0.10150075787E+04  0.00000000000E+00 0. -1.
         23    2    1    2    0    0 -0.50048195821E+03 -0.49682754352E+03 -0.82540875525E+03  0.10886583991E+04  0.80979616358E+02 0.  0.
         11    1    3    3    0    0 -0.49958448108E+03 -0.49725135582E+03 -0.81220107354E+03  0.10754134779E+04  0.00000000000E+00 0. -1.
        -11    1    3    3    0    0 -0.89747712308E+00  0.42381229870E+00 -0.13207681719E+02  0.13244921232E+02  0.00000000000E+00 0.  1.
         22    1    1    2    0    0  0.50048195821E+03  0.49682754352E+03  0.20866071275E+04  0.22025551305E+04  0.00000000000E+00 0.  1.
<mgrwt>
<rscale>  0 0.30399778E+04</rscale>
<asrwt>0</asrwt>
<pdfrwt beam="1">  1        2 0.35018553E+00 0.30399778E+04</pdfrwt>
<pdfrwt beam="2">  1       -2 0.15615501E+00 0.30399778E+04</pdfrwt>
<totfact> 0.10736311E+00</totfact>
</mgrwt>
</event>
<event>
 6    1  0.4630212E-004  0.4858743E+04  0.7818608E-02  0.7850675E-01
         -2   -1    0    0    0  501 -0.00000000000E+00  0.00000000000E+00  0.26043330236E+04  0.26043330236E+04  0.00000000000E+00 0. -1.
          2   -1    0    0  501    0  0.00000000000E+00 -0.00000000000E+00 -0.22661643680E+04  0.22661643680E+04  0.00000000000E+00 0.  1.
         23    2    1    2    0    0 -0.67574608019E+03 -0.40566057087E+03  0.24717590588E+04  0.25959861756E+04  0.91422728553E+02 0.  0.
         11    1    3    3    0    0 -0.33374269406E+03 -0.24847286436E+03  0.13615610943E+04  0.14237175154E+04  0.00000000000E+00 0.  1.
        -11    1    3    3    0    0 -0.34200338614E+03 -0.15718770651E+03  0.11101979644E+04  0.11722686601E+04  0.00000000000E+00 0. -1.
         22    1    1    2    0    0  0.67574608019E+03  0.40566057087E+03 -0.21335904032E+04  0.22745112161E+04  0.00000000000E+00 0.  1.
<mgrwt>
<rscale>  0 0.48587433E+04</rscale>
<asrwt>0</asrwt>
<pdfrwt beam="1">  1        2 0.34864067E+00 0.48587433E+04</pdfrwt>
<pdfrwt beam="2">  1       -2 0.40066662E+00 0.48587433E+04</pdfrwt>
<totfact> 0.25648785E-02</totfact>
</mgrwt>
</event>
<event>
 6    1  0.4630212E-004  0.5967375E+04  0.7818608E-02  0.7694460E-01
         -2   -1    0    0    0  501 -0.00000000000E+00  0.00000000000E+00  0.24661171199E+04  0.24661171199E+04  0.00000000000E+00 0. -1.
          2   -1    0    0  501    0  0.00000000000E+00 -0.00000000000E+00 -0.36098814469E+04  0.36098814469E+04  0.00000000000E+00 0.  1.
         23    2    1    2    0    0 -0.10792595465E+04  0.27164921467E+04  0.33826348708E+02  0.29246733611E+04  0.91865638528E+02 0.  0.
         11    1    3    3    0    0 -0.96943340995E+03  0.23580374348E+04  0.34482434245E+02  0.25497707188E+04  0.00000000000E+00 0. -1.
        -11    1    3    3    0    0 -0.10982613652E+03  0.35845471194E+03 -0.65608553687E+00  0.37490264233E+03  0.00000000000E+00 0.  1.
         22    1    1    2    0    0  0.10792595465E+04 -0.27164921467E+04 -0.11775906757E+04  0.31513252056E+04  0.00000000000E+00 0.  1.
<mgrwt>
<rscale>  0 0.59673748E+04</rscale>
<asrwt>0</asrwt>
<pdfrwt beam="1">  1        2 0.55536637E+00 0.59673748E+04</pdfrwt>
<pdfrwt beam="2">  1       -2 0.37940264E+00 0.59673748E+04</pdfrwt>
<totfact> 0.46199901E-03</totfact>
</mgrwt>
</event>
<event>
 6    1  0.4630212E-004  0.1312806E+04  0.7818608E-02  0.9019471E-01
         -2   -1    0    0    0  501 -0.00000000000E+00  0.00000000000E+00  0.76475100552E+03  0.76475100552E+03  0.00000000000E+00 0. -1.
          2   -1    0    0  501    0  0.00000000000E+00 -0.00000000000E+00 -0.56340571569E+03  0.56340571569E+03  0.00000000000E+00 0.  1.
         23    2    1    2    0    0 -0.37629154196E+03 -0.32275634131E+03  0.53162919268E+03  0.73246012320E+03  0.90006961717E+02 0.  0.
         11    1    3    3    0    0 -0.22086668894E+03 -0.13832659754E+03  0.24297060844E+03  0.35630192034E+03  0.00000000000E+00 0.  1.
        -11    1    3    3    0    0 -0.15542485302E+03 -0.18442974377E+03  0.28865858423E+03  0.37615820285E+03  0.00000000000E+00 0. -1.
         22    1    1    2    0    0  0.37629154196E+03  0.32275634131E+03 -0.33028390284E+03  0.59569659801E+03  0.00000000000E+00 0.  1.
<mgrwt>
<rscale>  0 0.13128063E+04</rscale>
<asrwt>0</asrwt>
<pdfrwt beam="1">  1        2 0.86677802E-01 0.13128063E+04</pdfrwt>
<pdfrwt beam="2">  1       -2 0.11765400E+00 0.13128063E+04</pdfrwt>
<totfact> 0.29206686E+01</totfact>
</mgrwt>
</event>
<event>
 6    1  0.4630212E-004  0.4443620E+04  0.7818608E-02  0.7920582E-01
          2   -1    0    0  501    0  0.00000000000E+00  0.00000000000E+00  0.20351033709E+04  0.20351033709E+04  0.00000000000E+00 0.  1.
         -2   -1    0    0    0  501 -0.00000000000E+00 -0.00000000000E+00 -0.24256459115E+04  0.24256459115E+04  0.00000000000E+00 0. -1.
         23    2    1    2    0    0 -0.44315269035E+03 -0.36789259004E+03 -0.23485295474E+04  0.24198077391E+04  0.90272887826E+02 0.  0.
         13    1    3    3    0    0 -0.20054435449E+03 -0.14120316309E+03 -0.83447630155E+03  0.86977414841E+03  0.00000000000E+00 0. -1.
        -13    1    3    3    0    0 -0.24260833586E+03 -0.22668942695E+03 -0.15140532458E+04  0.15500335907E+04  0.00000000000E+00 0.  1.
         22    1    1    2    0    0  0.44315269035E+03  0.36789259004E+03  0.19579870068E+04  0.20409415434E+04  0.00000000000E+00 0.  1.
<mgrwt>
<rscale>  0 0.44436202E+04</rscale>
<asrwt>0</asrwt>
<pdfrwt beam="1">  1        2 0.31309282E+00 0.44436202E+04</pdfrwt>
<pdfrwt beam="2">  1       -2 0.37317630E+00 0.44436202E+04</pdfrwt>
<totfact> 0.53853823E-02</totfact>
</mgrwt>
</event>
<event>
 6    1  0.4630212E-004  0.1621579E+04  0.7818608E-02  0.8807400E-01
         -2   -1    0    0    0  501 -0.00000000000E+00  0.00000000000E+00  0.56559911631E+03  0.56559911631E+03  0.00000000000E+00 0. -1.
          2   -1    0    0  501    0  0.00000000000E+00 -0.00000000000E+00 -0.11622715544E+04  0.11622715544E+04  0.00000000000E+00 0.  1.
         23    2    1    2    0    0 -0.63509555807E+03  0.23862487561E+03  0.16876281021E+03  0.70504159483E+03  0.91184237618E+02 0.  0.
         11    1    3    3    0    0 -0.15380362922E+03  0.33557824793E+02  0.71588134353E+02  0.17293508882E+03  0.00000000000E+00 0. -1.
        -11    1    3    3    0    0 -0.48129192886E+03  0.20506705082E+03  0.97174675862E+02  0.53210650601E+03  0.00000000000E+00 0.  1.
         22    1    1    2    0    0  0.63509555807E+03 -0.23862487561E+03 -0.76543524833E+03  0.10228290759E+04  0.00000000000E+00 0.  1.
<mgrwt>
<rscale>  0 0.16215792E+04</rscale>
<asrwt>0</asrwt>
<pdfrwt beam="1">  1        2 0.17881100E+00 0.16215792E+04</pdfrwt>
<pdfrwt beam="2">  1       -2 0.87015251E-01 0.16215792E+04</pdfrwt>
<totfact> 0.21824492E+01</totfact>
</mgrwt>
</event>
<event>
 6    1  0.4630212E-004  0.1195971E+04  0.7818608E-02  0.9116391E-01
         -2   -1    0    0    0  501 -0.00000000000E+00  0.00000000000E+00  0.62703124866E+03  0.62703124866E+03  0.00000000000E+00 0. -1.
          2   -1    0    0  501    0  0.00000000000E+00 -0.00000000000E+00 -0.57028502700E+03  0.57028502700E+03  0.00000000000E+00 0.  1.
         23    2    1    2    0    0 -0.56092115782E+03  0.96170316810E+02  0.20166527621E+03  0.61004903880E+03  0.87233428186E+02 0.  0.
         11    1    3    3    0    0 -0.39904938192E+03  0.86975259269E+02  0.18055377353E+03  0.44654761233E+03  0.00000000000E+00 0.  1.
        -11    1    3    3    0    0 -0.16187177589E+03  0.91950575406E+01  0.21111502677E+02  0.16350142648E+03  0.00000000000E+00 0. -1.
         22    1    1    2    0    0  0.56092115782E+03 -0.96170316810E+02 -0.14491905455E+03  0.58726723686E+03  0.00000000000E+00 0.  1.
<mgrwt>
<rscale>  0 0.11959708E+04</rscale>
<asrwt>0</asrwt>
<pdfrwt beam="1">  1        2 0.87736158E-01 0.11959708E+04</pdfrwt>
<pdfrwt beam="2">  1       -2 0.96466346E-01 0.11959708E+04</pdfrwt>
<totfact> 0.46806377E+01</totfact>
</mgrwt>
</event>
<event>
 6    1  0.4630212E-004  0.5561431E+04  0.7818608E-02  0.7747292E-01
         -2   -1    0    0    0  501 -0.00000000000E+00  0.00000000000E+00  0.47278656605E+04  0.47278656605E+04  0.00000000000E+00 0.  1.
          2   -1    0    0  501    0  0.00000000000E+00 -0.00000000000E+00 -0.16354905043E+04  0.16354905043E+04  0.00000000000E+00 0. -1.
         23    2    1    2    0    0 -0.10311861076E+04  0.10300660361E+04 -0.11620416595E+04  0.18661966980E+04  0.89266285060E+02 0.  0.
         13    1    3    3    0    0 -0.35551280757E+03  0.29810476368E+03 -0.35657160276E+03  0.58514879677E+03  0.00000000000E+00 0.  1.
        -13    1    3    3    0    0 -0.67567330006E+03  0.73196127244E+03 -0.80547005679E+03  0.12810479012E+04  0.00000000000E+00 0. -1.
         22    1    1    2    0    0  0.10311861076E+04 -0.10300660361E+04  0.42544168158E+04  0.44971594668E+04  0.00000000000E+00 0.  1.
<mgrwt>
<rscale>  0 0.55614313E+04</rscale>
<asrwt>0</asrwt>
<pdfrwt beam="1">  1        2 0.25161393E+00 0.55614313E+04</pdfrwt>
<pdfrwt beam="2">  1       -2 0.72736394E+00 0.55614313E+04</pdfrwt>
<totfact> 0.13451795E-03</totfact>
</mgrwt>
</event>
<event>
 6    1  0.4630212E-004  0.3173174E+04  0.7818608E-02  0.8195938E-01
          2   -1    0    0  501    0  0.00000000000E+00  0.00000000000E+00  0.35562669692E+04  0.35562669692E+04  0.00000000000E+00 0.  1.
         -2   -1    0    0    0  501 -0.00000000000E+00 -0.00000000000E+00 -0.70783728922E+03  0.70783728922E+03  0.00000000000E+00 0. -1.
         23    2    1    2    0    0  0.27776980294E+03  0.10101407469E+04 -0.17334832436E+03  0.10658730755E+04  0.92170382386E+02 0.  0.
         11    1    3    3    0    0  0.14608735941E+03  0.68573403481E+03 -0.13021403663E+03  0.71311175731E+03  0.00000000000E+00 0. -1.
        -11    1    3    3    0    0  0.13168244353E+03  0.32440671212E+03 -0.43134287731E+02  0.35276131815E+03  0.00000000000E+00 0.  1.
         22    1    1    2    0    0 -0.27776980294E+03 -0.10101407469E+04  0.30217780043E+04  0.31982311829E+04  0.00000000000E+00 0.  1.
<mgrwt>
<rscale>  0 0.31731740E+04</rscale>
<asrwt>0</asrwt>
<pdfrwt beam="1">  1        2 0.54711798E+00 0.31731740E+04</pdfrwt>
<pdfrwt beam="2">  1       -2 0.10889805E+00 0.31731740E+04</pdfrwt>
<totfact> 0.42100201E-01</totfact>
</mgrwt>
</event>
<event>
 6    1  0.4630212E-004  0.2389239E+04  0.7818608E-02  0.8443543E-01
          2   -1    0    0  501    0  0.00000000000E+00  0.00000000000E+00  0.97287735661E+03  0.97287735661E+03  0.00000000000E+00 0.  1.
         -2   -1    0    0    0  501 -0.00000000000E+00 -0.00000000000E+00 -0.14669020640E+04  0.14669020640E+04  0.00000000000E+00 0. -1.
         23    2    1    2    0    0 -0.10022059987E+04 -0.31964602758E+03 -0.82173503118E+03  0.13379697714E+04  0.91237058815E+02 0.  0.
         13    1    3    3    0    0 -0.89440873700E+03 -0.31399291522E+03 -0.74058256300E+03  0.12029218895E+04  0.00000000000E+00 0. -1.
        -13    1    3    3    0    0 -0.10779726169E+03 -0.56531123568E+01 -0.81152468185E+02  0.13504788188E+03  0.00000000000E+00 0.  1.
         22    1    1    2    0    0  0.10022059987E+04  0.31964602758E+03  0.32771032381E+03  0.11018096492E+04  0.00000000000E+00 0.  1.
<mgrwt>
<rscale>  0 0.23892390E+04</rscale>
<asrwt>0</asrwt>
<pdfrwt beam="1">  1        2 0.14967344E+00 0.23892390E+04</pdfrwt>
<pdfrwt beam="2">  1       -2 0.22567724E+00 0.23892390E+04</pdfrwt>
<totfact> 0.21478629E+00</totfact>
</mgrwt>
</event>
<event>
 6    1  0.5212565E-004  0.3126944E+04  0.7818608E-02  0.8208382E-01
          2   -1    0    0  501    0  0.00000000000E+00  0.00000000000E+00  0.19044413869E+04  0.19044413869E+04  0.00000000000E+00 0.  1.
         -2   -1    0    0    0  501 -0.00000000000E+00 -0.00000000000E+00 -0.12835498390E+04  0.12835498390E+04  0.00000000000E+00 0. -1.
         23    2    1    2    0    0  0.12447659419E+04  0.92012312053E+03  0.95931557472E+02  0.15534723980E+04  0.89469663757E+02 0.  0.
         13    1    3    3    0    0  0.58706690557E+03  0.41408319086E+03  0.27847455305E+01  0.71841505787E+03  0.00000000000E+00 0. -1.
        -13    1    3    3    0    0  0.65769903632E+03  0.50603992967E+03  0.93146811941E+02  0.83505734017E+03  0.00000000000E+00 0.  1.
         22    1    1    2    0    0 -0.12447659419E+04 -0.92012312053E+03  0.52495999037E+03  0.16345188278E+04  0.00000000000E+00 0.  1.
<mgrwt>
<rscale>  0 0.31269445E+04</rscale>
<asrwt>0</asrwt>
<pdfrwt beam="1">  1        2 0.29299098E+00 0.31269445E+04</pdfrwt>
<pdfrwt beam="2">  1       -2 0.19746921E+00 0.31269445E+04</pdfrwt>
<totfact> 0.88410340E-01</totfact>
</mgrwt>
</event>
<event>
 6    1  0.4630212E-004  0.3113705E+04  0.7818608E-02  0.8211987E-01
          2   -1    0    0  501    0  0.00000000000E+00  0.00000000000E+00  0.33504810556E+04  0.33504810556E+04  0.00000000000E+00 0.  1.
         -2   -1    0    0    0  501 -0.00000000000E+00 -0.00000000000E+00 -0.72341543779E+03  0.72341543779E+03  0.00000000000E+00 0. -1.
         23    2    1    2    0    0 -0.14567404123E+04  0.44852473900E+03  0.17208345780E+04  0.23006165471E+04  0.91092162342E+02 0.  0.
         13    1    3    3    0    0 -0.38837794805E+03  0.85957115499E+02  0.41323989541E+03  0.57357934708E+03  0.00000000000E+00 0.  1.
        -13    1    3    3    0    0 -0.10683624642E+04  0.36256762350E+03  0.13075946826E+04  0.17270372001E+04  0.00000000000E+00 0. -1.
         22    1    1    2    0    0  0.14567404123E+04 -0.44852473900E+03  0.90623103982E+03  0.17732799462E+04  0.00000000000E+00 0.  1.
<mgrwt>
<rscale>  0 0.31137050E+04</rscale>
<asrwt>0</asrwt>
<pdfrwt beam="1">  1        2 0.51545862E+00 0.31137050E+04</pdfrwt>
<pdfrwt beam="2">  1       -2 0.11129468E+00 0.31137050E+04</pdfrwt>
<totfact> 0.55740278E-01</totfact>
</mgrwt>
</event>
<event>
 6    1  0.4630212E-004  0.1999259E+04  0.7818608E-02  0.8606967E-01
         -2   -1    0    0    0  501 -0.00000000000E+00  0.00000000000E+00  0.21351897176E+03  0.21351897176E+03  0.00000000000E+00 0. -1.
          2   -1    0    0  501    0  0.00000000000E+00 -0.00000000000E+00 -0.46799549999E+04  0.46799549999E+04  0.00000000000E+00 0.  1.
         23    2    1    2    0    0 -0.80501437740E+03  0.37295948660E+03 -0.11214601149E+04  0.14328366334E+04  0.90559938042E+02 0.  0.
         13    1    3    3    0    0 -0.28533154057E+03  0.11559527692E+03 -0.32553474388E+03  0.44805047212E+03  0.00000000000E+00 0.  1.
        -13    1    3    3    0    0 -0.51968283683E+03  0.25736420968E+03 -0.79592537102E+03  0.98478616133E+03  0.00000000000E+00 0. -1.
         22    1    1    2    0    0  0.80501437740E+03 -0.37295948660E+03 -0.33449759133E+04  0.34606373382E+04  0.00000000000E+00 0.  1.
<mgrwt>
<rscale>  0 0.19992590E+04</rscale>
<asrwt>0</asrwt>
<pdfrwt beam="1">  1        2 0.71999302E+00 0.19992590E+04</pdfrwt>
<pdfrwt beam="2">  1       -2 0.32849075E-01 0.19992590E+04</pdfrwt>
<totfact> 0.66029472E-01</totfact>
</mgrwt>
</event>
<event>
 6    1  0.4630212E-004  0.6415532E+03  0.7818608E-02  0.9822759E-01
         -2   -1    0    0    0  501 -0.00000000000E+00  0.00000000000E+00  0.15298131171E+03  0.15298131171E+03  0.00000000000E+00 0. -1.
          2   -1    0    0  501    0  0.00000000000E+00 -0.00000000000E+00 -0.67261576669E+03  0.67261576669E+03  0.00000000000E+00 0.  1.
         23    2    1    2    0    0  0.20649737960E+03 -0.75786584870E+02  0.16569352023E+02  0.24602887977E+03  0.10895362327E+03 0.  0.
         13    1    3    3    0    0  0.69486845593E+02 -0.43249008915E+02 -0.43781053262E+02  0.92820682541E+02  0.00000000000E+00 0.  1.
        -13    1    3    3    0    0  0.13701053401E+03 -0.32537575954E+02  0.60350405285E+02  0.15320819723E+03  0.00000000000E+00 0. -1.
         22    1    1    2    0    0 -0.20649737960E+03  0.75786584870E+02 -0.53620380700E+03  0.57956819863E+03  0.00000000000E+00 0.  1.
<mgrwt>
<rscale>  0 0.64155325E+03</rscale>
<asrwt>0</asrwt>
<pdfrwt beam="1">  1        2 0.10347935E+00 0.64155325E+03</pdfrwt>
<pdfrwt beam="2">  1       -2 0.23535586E-01 0.64155325E+03</pdfrwt>
<totfact> 0.69246084E+02</totfact>
</mgrwt>
</event>
<event>
 6    1  0.4630212E-004  0.1554505E+04  0.7818608E-02  0.8848996E-01
          2   -1    0    0  501    0  0.00000000000E+00  0.00000000000E+00  0.69768892115E+03  0.69768892115E+03  0.00000000000E+00 0.  1.
         -2   -1    0    0    0  501 -0.00000000000E+00 -0.00000000000E+00 -0.86588910147E+03  0.86588910147E+03  0.00000000000E+00 0. -1.
         23    2    1    2    0    0 -0.56447839924E+03 -0.37653937537E+03  0.29166394505E+03  0.74388736254E+03  0.88785060072E+02 0.  0.
         11    1    3    3    0    0 -0.45828695993E+03 -0.26125556585E+03  0.22061628926E+03  0.57179800228E+03  0.00000000000E+00 0. -1.
        -11    1    3    3    0    0 -0.10619143931E+03 -0.11528380952E+03  0.71047655794E+02  0.17208936026E+03  0.00000000000E+00 0.  1.
         22    1    1    2    0    0  0.56447839924E+03  0.37653937537E+03 -0.45986412538E+03  0.81969066008E+03  0.00000000000E+00 0.  1.
<mgrwt>
<rscale>  0 0.15545047E+04</rscale>
<asrwt>0</asrwt>
<pdfrwt beam="1">  1        2 0.10733676E+00 0.15545047E+04</pdfrwt>
<pdfrwt beam="2">  1       -2 0.13321371E+00 0.15545047E+04</pdfrwt>
<totfact> 0.16154336E+01</totfact>
</mgrwt>
</event>
<event>
 6    1  0.4630212E-004  0.2042064E+04  0.7818608E-02  0.8587203E-01
         -2   -1    0    0    0  501 -0.00000000000E+00  0.00000000000E+00  0.36199050479E+03  0.36199050479E+03  0.00000000000E+00 0. -1.
          2   -1    0    0  501    0  0.00000000000E+00 -0.00000000000E+00 -0.28799286888E+04  0.28799286888E+04  0.00000000000E+00 0.  1.
         23    2    1    2    0    0 -0.15560428280E+03  0.68541759211E+03 -0.24327545085E+04  0.25339176209E+04  0.91837042718E+02 0.  0.
         11    1    3    3    0    0 -0.66671791024E+02  0.13332630284E+03 -0.47214297044E+03  0.49511616342E+03  0.00000000000E+00 0. -1.
        -11    1    3    3    0    0 -0.88932491777E+02  0.55209128927E+03 -0.19606115380E+04  0.20388014575E+04  0.00000000000E+00 0.  1.
         22    1    1    2    0    0  0.15560428280E+03 -0.68541759211E+03 -0.85183675524E+02  0.70800157272E+03  0.00000000000E+00 0. -1.
<mgrwt>
<rscale>  0 0.20420645E+04</rscale>
<asrwt>0</asrwt>
<pdfrwt beam="1">  1        2 0.44306597E+00 0.20420645E+04</pdfrwt>
<pdfrwt beam="2">  1       -2 0.55690845E-01 0.20420645E+04</pdfrwt>
<totfact> 0.58065792E+00</totfact>
</mgrwt>
</event>
<event>
 6    1  0.4630212E-004  0.9245866E+03  0.7818608E-02  0.9395358E-01
         -2   -1    0    0    0  501 -0.00000000000E+00  0.00000000000E+00  0.16062883573E+03  0.16062883573E+03  0.00000000000E+00 0. -1.
          2   -1    0    0  501    0  0.00000000000E+00 -0.00000000000E+00 -0.13304902781E+04  0.13304902781E+04  0.00000000000E+00 0.  1.
         23    2    1    2    0    0 -0.29375713898E+03 -0.77560685906E+02 -0.35031765582E+02  0.31632240290E+03  0.80769556629E+02 0.  0.
         11    1    3    3    0    0 -0.77007338670E+02 -0.33274570975E+02  0.24186645684E+02  0.87305905367E+02  0.00000000000E+00 0. -1.
        -11    1    3    3    0    0 -0.21674980031E+03 -0.44286114932E+02 -0.59218411266E+02  0.22901649754E+03  0.00000000000E+00 0.  1.
         22    1    1    2    0    0  0.29375713898E+03  0.77560685906E+02 -0.11348296768E+04  0.11747967110E+04  0.00000000000E+00 0.  1.
<mgrwt>
<rscale>  0 0.92458662E+03</rscale>
<asrwt>0</asrwt>
<pdfrwt beam="1">  1        2 0.20469081E+00 0.92458662E+03</pdfrwt>
<pdfrwt beam="2">  1       -2 0.24712129E-01 0.92458662E+03</pdfrwt>
<totfact> 0.23260475E+02</totfact>
</mgrwt>
</event>
<event>
 6    1  0.4630212E-004  0.2821869E+03  0.7818608E-02  0.1094500E+00
         -1   -1    0    0    0  501 -0.00000000000E+00  0.00000000000E+00  0.10016670210E+03  0.10016670210E+03  0.00000000000E+00 0. -1.
          1   -1    0    0  501    0  0.00000000000E+00 -0.00000000000E+00 -0.19874235579E+03  0.19874235579E+03  0.00000000000E+00 0.  1.
         23    2    1    2    0    0  0.10109822291E+03 -0.48380433936E+02 -0.11712985383E+03  0.18530546901E+03  0.89761891272E+02 0.  0.
         11    1    3    3    0    0  0.91780753033E+02 -0.62741521913E+02 -0.61397819878E+02  0.12700353336E+03  0.00000000000E+00 0. -1.
        -11    1    3    3    0    0  0.93174698755E+01  0.14361087977E+02 -0.55732033953E+02  0.58301935657E+02  0.00000000000E+00 0.  1.
         22    1    1    2    0    0 -0.10109822291E+03  0.48380433936E+02  0.18554200143E+02  0.11360358888E+03  0.00000000000E+00 0. -1.
<mgrwt>
<rscale>  0 0.28218693E+03</rscale>
<asrwt>0</asrwt>
<pdfrwt beam="1">  1        1 0.30575747E-01 0.28218693E+03</pdfrwt>
<pdfrwt beam="2">  1       -1 0.15410262E-01 0.28218693E+03</pdfrwt>
<totfact> 0.45264872E+03</totfact>
</mgrwt>
</event>
<event>
 6    1  0.4630212E-004  0.2028137E+04  0.7818608E-02  0.8593577E-01
         -2   -1    0    0    0  501 -0.00000000000E+00  0.00000000000E+00  0.58386780341E+03  0.58386780341E+03  0.00000000000E+00 0. -1.
          2   -1    0    0  501    0  0.00000000000E+00 -0.00000000000E+00 -0.17612468065E+04  0.17612468065E+04  0.00000000000E+00 0.  1.
         23    2    1    2    0    0 -0.39182966023E+03  0.46478168173E+03 -0.15253518515E+04  0.16446593312E+04  0.93024462372E+02 0.  0.
         13    1    3    3    0    0 -0.13077509053E+03  0.19363941179E+03 -0.68821554002E+03  0.72680050607E+03  0.00000000000E+00 0. -1.
        -13    1    3    3    0    0 -0.26105456971E+03  0.27114226994E+03 -0.83713631145E+03  0.91785882513E+03  0.00000000000E+00 0.  1.
         22    1    1    2    0    0  0.39182966023E+03 -0.46478168173E+03  0.34797284835E+03  0.70045527873E+03  0.00000000000E+00 0. -1.
<mgrwt>
<rscale>  0 0.20281374E+04</rscale>
<asrwt>0</asrwt>
<pdfrwt beam="1">  1        2 0.27096105E+00 0.20281374E+04</pdfrwt>
<pdfrwt beam="2">  1       -2 0.89825815E-01 0.20281374E+04</pdfrwt>
<totfact> 0.89218886E+00</totfact>
</mgrwt>
</event>
<event>
 6    1  0.4630212E-004  0.2759742E+04  0.7818608E-02  0.8315877E-01
         -2   -1    0    0    0  501 -0.00000000000E+00  0.00000000000E+00  0.12861244094E+04  0.12861244094E+04  0.00000000000E+00 0. -1.
          2   -1    0    0  501    0  0.00000000000E+00 -0.00000000000E+00 -0.14804507954E+04  0.14804507954E+04  0.00000000000E+00 0.  1.
         23    2    1    2    0    0 -0.10015443904E+04  0.33425256598E+03 -0.98547288017E+03  0.14472084176E+04  0.91866547795E+02 0.  0.
         11    1    3    3    0    0 -0.47385533412E+03  0.12490072693E+03 -0.50207671289E+03  0.70158398990E+03  0.00000000000E+00 0.  1.
        -11    1    3    3    0    0 -0.52768905632E+03  0.20935183904E+03 -0.48339616728E+03  0.74562442772E+03  0.00000000000E+00 0. -1.
         22    1    1    2    0    0  0.10015443904E+04 -0.33425256598E+03  0.79114649419E+03  0.13193667872E+04  0.00000000000E+00 0. -1.
<mgrwt>
<rscale>  0 0.27597419E+04</rscale>
<asrwt>0</asrwt>
<pdfrwt beam="1">  1        2 0.22776166E+00 0.27597419E+04</pdfrwt>
<pdfrwt beam="2">  1       -2 0.19786529E+00 0.27597419E+04</pdfrwt>
<totfact> 0.15618699E+00</totfact>
</mgrwt>
</event>
<event>
 6    1  0.4630212E-004  0.2013933E+04  0.7818608E-02  0.8600134E-01
          2   -1    0    0  501    0  0.00000000000E+00  0.00000000000E+00  0.88901838859E+03  0.88901838859E+03  0.00000000000E+00 0.  1.
         -2   -1    0    0    0  501 -0.00000000000E+00 -0.00000000000E+00 -0.11405631535E+04  0.11405631535E+04  0.00000000000E+00 0. -1.
         23    2    1    2    0    0  0.71399122061E+00  0.24600757097E+03  0.85579264584E+03  0.89524632886E+03  0.92545674669E+02 0.  0.
         11    1    3    3    0    0  0.38448026237E+02  0.14176850473E+03  0.39856389452E+03  0.42477021749E+03  0.00000000000E+00 0. -1.
        -11    1    3    3    0    0 -0.37734035017E+02  0.10423906624E+03  0.45722875132E+03  0.47047611136E+03  0.00000000000E+00 0.  1.
         22    1    1    2    0    0 -0.71399122061E+00 -0.24600757097E+03 -0.11073374108E+04  0.11343352133E+04  0.00000000000E+00 0. -1.
<mgrwt>
<rscale>  0 0.20139331E+04</rscale>
<asrwt>0</asrwt>
<pdfrwt beam="1">  1        2 0.13677206E+00 0.20139331E+04</pdfrwt>
<pdfrwt beam="2">  1       -2 0.17547125E+00 0.20139331E+04</pdfrwt>
<totfact> 0.53958285E+00</totfact>
</mgrwt>
</event>
<event>
 6    1  0.4630212E-004  0.2808845E+04  0.7818608E-02  0.8300528E-01
         -2   -1    0    0    0  501 -0.00000000000E+00  0.00000000000E+00  0.17231816296E+04  0.17231816296E+04  0.00000000000E+00 0. -1.
          2   -1    0    0  501    0  0.00000000000E+00 -0.00000000000E+00 -0.11446283596E+04  0.11446283596E+04  0.00000000000E+00 0.  1.
         23    2    1    2    0    0 -0.28634392367E+03  0.10589073741E+04  0.11820853088E+04  0.16158001683E+04  0.10102889309E+03 0.  0.
         13    1    3    3    0    0 -0.20851265509E+03  0.59471417510E+03  0.64806164620E+03  0.90396148960E+03  0.00000000000E+00 0. -1.
        -13    1    3    3    0    0 -0.77831268587E+02  0.46419319902E+03  0.53402366255E+03  0.71183867874E+03  0.00000000000E+00 0.  1.
         22    1    1    2    0    0  0.28634392367E+03 -0.10589073741E+04 -0.60353203874E+03  0.12520098208E+04  0.00000000000E+00 0.  1.
<mgrwt>
<rscale>  0 0.28088450E+04</rscale>
<asrwt>0</asrwt>
<pdfrwt beam="1">  1        2 0.17609667E+00 0.28088450E+04</pdfrwt>
<pdfrwt beam="2">  1       -2 0.26510487E+00 0.28088450E+04</pdfrwt>
<totfact> 0.92352593E-01</totfact>
</mgrwt>
</event>
<event>
 6    1  0.4630212E-004  0.1411817E+04  0.7818608E-02  0.8945309E-01
         -2   -1    0    0    0  501 -0.00000000000E+00  0.00000000000E+00  0.18445673362E+03  0.18445673362E+03  0.00000000000E+00 0. -1.
          2   -1    0    0  501    0  0.00000000000E+00 -0.00000000000E+00 -0.27014817193E+04  0.27014817193E+04  0.00000000000E+00 0.  1.
         23    2    1    2    0    0  0.25449548517E+03  0.59135264345E+03 -0.18405987970E+04  0.19521192575E+04  0.92194161250E+02 0.  0.
         11    1    3    3    0    0  0.57967706230E+02  0.10128280248E+03 -0.44279697701E+03  0.45791661238E+03  0.00000000000E+00 0. -1.
        -11    1    3    3    0    0  0.19652777894E+03  0.49006984098E+03 -0.13978018200E+04  0.14942026452E+04  0.00000000000E+00 0.  1.
         22    1    1    2    0    0 -0.25449548517E+03 -0.59135264345E+03 -0.67642618874E+03  0.93381919540E+03  0.00000000000E+00 0. -1.
<mgrwt>
<rscale>  0 0.14118166E+04</rscale>
<asrwt>0</asrwt>
<pdfrwt beam="1">  1        2 0.41561258E+00 0.14118166E+04</pdfrwt>
<pdfrwt beam="2">  1       -2 0.28377959E-01 0.14118166E+04</pdfrwt>
<totfact> 0.29465838E+01</totfact>
</mgrwt>
</event>
<event>
 6    1  0.4630212E-004  0.5051332E+04  0.7818608E-02  0.7820637E-01
          2   -1    0    0  501    0  0.00000000000E+00  0.00000000000E+00  0.34115790102E+04  0.34115790102E+04  0.00000000000E+00 0.  1.
         -2   -1    0    0    0  501 -0.00000000000E+00 -0.00000000000E+00 -0.18698055488E+04  0.18698055488E+04  0.00000000000E+00 0. -1.
         23    2    1    2    0    0 -0.18416460423E+04  0.85630983128E+03  0.23395348692E+04  0.30993327869E+04  0.86681300498E+02 0.  0.
         13    1    3    3    0    0 -0.99876852978E+03  0.50725472561E+03  0.12609210430E+04  0.16866439487E+04  0.00000000000E+00 0. -1.
        -13    1    3    3    0    0 -0.84287751250E+03  0.34905510567E+03  0.10786138261E+04  0.14126888383E+04  0.00000000000E+00 0.  1.
         22    1    1    2    0    0  0.18416460423E+04 -0.85630983128E+03 -0.79776140780E+03  0.21820517721E+04  0.00000000000E+00 0. -1.
<mgrwt>
<rscale>  0 0.50513322E+04</rscale>
<asrwt>0</asrwt>
<pdfrwt beam="1">  1        2 0.52485831E+00 0.50513322E+04</pdfrwt>
<pdfrwt beam="2">  1       -2 0.28766239E+00 0.50513322E+04</pdfrwt>
<totfact> 0.25624502E-02</totfact>
</mgrwt>
</event>
<event>
 6    1  0.4630212E-004  0.3820513E+04  0.7818608E-02  0.8041767E-01
          2   -1    0    0  501    0  0.00000000000E+00  0.00000000000E+00  0.20726697833E+04  0.20726697833E+04  0.00000000000E+00 0.  1.
         -2   -1    0    0    0  501 -0.00000000000E+00 -0.00000000000E+00 -0.17605696713E+04  0.17605696713E+04  0.00000000000E+00 0. -1.
         23    2    1    2    0    0  0.11568812038E+04  0.89290588811E+03 -0.10758548925E+04  0.18177806633E+04  0.10586664023E+03 0.  0.
         11    1    3    3    0    0  0.49427997152E+03  0.31618789972E+03 -0.42566557752E+03  0.72489907026E+03  0.00000000000E+00 0. -1.
        -11    1    3    3    0    0  0.66260123230E+03  0.57671798839E+03 -0.65018931497E+03  0.10928815931E+04  0.00000000000E+00 0.  1.
         22    1    1    2    0    0 -0.11568812038E+04 -0.89290588811E+03  0.13879550045E+04  0.20154587912E+04  0.00000000000E+00 0.  1.
<mgrwt>
<rscale>  0 0.38205128E+04</rscale>
<asrwt>0</asrwt>
<pdfrwt beam="1">  1        2 0.31887227E+00 0.38205128E+04</pdfrwt>
<pdfrwt beam="2">  1       -2 0.27085687E+00 0.38205128E+04</pdfrwt>
<totfact> 0.23330802E-01</totfact>
</mgrwt>
</event>
<event>
 6    1  0.4630212E-004  0.2299815E+04  0.7818608E-02  0.8477994E-01
          2   -1    0    0  501    0  0.00000000000E+00  0.00000000000E+00  0.96481173474E+03  0.96481173474E+03  0.00000000000E+00 0.  1.
         -2   -1    0    0    0  501 -0.00000000000E+00 -0.00000000000E+00 -0.13705137172E+04  0.13705137172E+04  0.00000000000E+00 0. -1.
         23    2    1    2    0    0  0.84494312829E+03  0.61802080996E+03 -0.68188910148E+03  0.12526630224E+04  0.91177241752E+02 0.  0.
         13    1    3    3    0    0  0.53984725818E+03  0.42808947480E+03 -0.40714047244E+03  0.80028683914E+03  0.00000000000E+00 0.  1.
        -13    1    3    3    0    0  0.30509587010E+03  0.18993133516E+03 -0.27474862904E+03  0.45237618327E+03  0.00000000000E+00 0. -1.
         22    1    1    2    0    0 -0.84494312829E+03 -0.61802080996E+03  0.27618711903E+03  0.10826624295E+04  0.00000000000E+00 0.  1.
<mgrwt>
<rscale>  0 0.22998154E+04</rscale>
<asrwt>0</asrwt>
<pdfrwt beam="1">  1        2 0.14843257E+00 0.22998154E+04</pdfrwt>
<pdfrwt beam="2">  1       -2 0.21084826E+00 0.22998154E+04</pdfrwt>
<totfact> 0.27210252E+00</totfact>
</mgrwt>
</event>
<event>
 6    1  0.4630212E-004  0.1061504E+04  0.7818608E-02  0.9243547E-01
          2   -1    0    0  501    0  0.00000000000E+00  0.00000000000E+00  0.36213107895E+04  0.36213107895E+04  0.00000000000E+00 0.  1.
         -2   -1    0    0    0  501 -0.00000000000E+00 -0.00000000000E+00 -0.77788907618E+02  0.77788907618E+02  0.00000000000E+00 0. -1.
         23    2    1    2    0    0 -0.20076732780E+03  0.28814637405E+03  0.31536932418E+04  0.31744071953E+04  0.88000713771E+02 0.  0.
         11    1    3    3    0    0 -0.12297104119E+03  0.10247892253E+03  0.14933340804E+04  0.15018889714E+04  0.00000000000E+00 0.  1.
        -11    1    3    3    0    0 -0.77796286614E+02  0.18566745152E+03  0.16603591614E+04  0.16725182240E+04  0.00000000000E+00 0. -1.
         22    1    1    2    0    0  0.20076732780E+03 -0.28814637405E+03  0.38982864005E+03  0.52469250175E+03  0.00000000000E+00 0. -1.
<mgrwt>
<rscale>  0 0.10615042E+04</rscale>
<asrwt>0</asrwt>
<pdfrwt beam="1">  1        2 0.55712461E+00 0.10615042E+04</pdfrwt>
<pdfrwt beam="2">  1       -2 0.11967527E-01 0.10615042E+04</pdfrwt>
<totfact> 0.35305996E+01</totfact>
</mgrwt>
</event>
<event>
 6    1  0.4630212E-004  0.2817270E+04  0.7818608E-02  0.8297927E-01
         -2   -1    0    0    0  501 -0.00000000000E+00  0.00000000000E+00  0.19330650756E+04  0.19330650756E+04  0.00000000000E+00 0. -1.
          2   -1    0    0  501    0  0.00000000000E+00 -0.00000000000E+00 -0.10264796494E+04  0.10264796494E+04  0.00000000000E+00 0.  1.
         23    2    1    2    0    0 -0.13505798199E+04  0.22359277384E+03  0.11173827266E+03  0.13765597043E+04  0.91496444728E+02 0.  0.
         13    1    3    3    0    0 -0.41800863608E+03  0.83296528446E+02 -0.52978492435E+01  0.42626001302E+03  0.00000000000E+00 0. -1.
        -13    1    3    3    0    0 -0.93257118383E+03  0.14029624540E+03  0.11703612190E+03  0.95029969126E+03  0.00000000000E+00 0.  1.
         22    1    1    2    0    0  0.13505798199E+04 -0.22359277384E+03  0.79484715358E+03  0.15829850208E+04  0.00000000000E+00 0.  1.
<mgrwt>
<rscale>  0 0.28172696E+04</rscale>
<asrwt>0</asrwt>
<pdfrwt beam="1">  1        2 0.15791995E+00 0.28172696E+04</pdfrwt>
<pdfrwt beam="2">  1       -2 0.29739463E+00 0.28172696E+04</pdfrwt>
<totfact> 0.69403905E-01</totfact>
</mgrwt>
</event>
<event>
 6    1  0.4630212E-004  0.3023441E+04  0.7818608E-02  0.8237069E-01
          2   -1    0    0  501    0  0.00000000000E+00  0.00000000000E+00  0.21716354185E+04  0.21716354185E+04  0.00000000000E+00 0.  1.
         -2   -1    0    0    0  501 -0.00000000000E+00 -0.00000000000E+00 -0.10523402234E+04  0.10523402234E+04  0.00000000000E+00 0. -1.
         23    2    1    2    0    0 -0.24032396276E+03  0.66822208185E+02  0.21485739761E+04  0.21649026399E+04  0.90622814605E+02 0.  0.
         11    1    3    3    0    0 -0.13322547680E+03  0.82480667394E+02  0.13330248350E+04  0.13422024061E+04  0.00000000000E+00 0.  1.
        -11    1    3    3    0    0 -0.10709848596E+03 -0.15658459209E+02  0.81554914110E+03  0.82270023373E+03  0.00000000000E+00 0. -1.
         22    1    1    2    0    0  0.24032396276E+03 -0.66822208185E+02 -0.10292787810E+04  0.10590730020E+04  0.00000000000E+00 0. -1.
<mgrwt>
<rscale>  0 0.30234413E+04</rscale>
<asrwt>0</asrwt>
<pdfrwt beam="1">  1        2 0.33409776E+00 0.30234413E+04</pdfrwt>
<pdfrwt beam="2">  1       -2 0.16189850E+00 0.30234413E+04</pdfrwt>
<totfact> 0.11163259E+00</totfact>
</mgrwt>
</event>
<event>
 6    1  0.4630212E-004  0.1101255E+04  0.7818608E-02  0.9203970E-01
          2   -1    0    0  501    0  0.00000000000E+00  0.00000000000E+00  0.10025474310E+04  0.10025474310E+04  0.00000000000E+00 0.  1.
         -2   -1    0    0    0  501 -0.00000000000E+00 -0.00000000000E+00 -0.30242011585E+03  0.30242011585E+03  0.00000000000E+00 0. -1.
         23    2    1    2    0    0 -0.39342526606E+03  0.78925687736E+02 -0.87845278491E+02  0.42070881068E+03  0.90919779343E+02 0.  0.
         11    1    3    3    0    0 -0.51525405815E+02  0.38646946791E+02 -0.32086417649E+02  0.71958266643E+02  0.00000000000E+00 0. -1.
        -11    1    3    3    0    0 -0.34189986024E+03  0.40278740945E+02 -0.55758860841E+02  0.34875054404E+03  0.00000000000E+00 0.  1.
         22    1    1    2    0    0  0.39342526606E+03 -0.78925687736E+02  0.78797259361E+03  0.88425873613E+03  0.00000000000E+00 0.  1.
<mgrwt>
<rscale>  0 0.11012548E+04</rscale>
<asrwt>0</asrwt>
<pdfrwt beam="1">  1        2 0.15423807E+00 0.11012548E+04</pdfrwt>
<pdfrwt beam="2">  1       -2 0.46526172E-01 0.11012548E+04</pdfrwt>
<totfact> 0.10906791E+02</totfact>
</mgrwt>
</event>
<event>
 6    1  0.4630212E-004  0.5010541E+04  0.7818608E-02  0.7826883E-01
          2   -1    0    0  501    0  0.00000000000E+00  0.00000000000E+00  0.26737420863E+04  0.26737420863E+04  0.00000000000E+00 0.  1.
         -2   -1    0    0    0  501 -0.00000000000E+00 -0.00000000000E+00 -0.23474142445E+04  0.23474142445E+04  0.00000000000E+00 0. -1.
         23    2    1    2    0    0 -0.11546654736E+04 -0.21261242918E+04  0.81085242489E+03  0.25536837510E+04  0.10080766243E+03 0.  0.
         13    1    3    3    0    0 -0.38258193011E+03 -0.61129849587E+03  0.22869384170E+03  0.75654190732E+03  0.00000000000E+00 0. -1.
        -13    1    3    3    0    0 -0.77208354353E+03 -0.15148257960E+04  0.58215858318E+03  0.17971418437E+04  0.00000000000E+00 0.  1.
         22    1    1    2    0    0  0.11546654736E+04  0.21261242918E+04 -0.48452458301E+03  0.24674725798E+04  0.00000000000E+00 0. -1.
<mgrwt>
<rscale>  0 0.50105410E+04</rscale>
<asrwt>0</asrwt>
<pdfrwt beam="1">  1        2 0.41134494E+00 0.50105410E+04</pdfrwt>
<pdfrwt beam="2">  1       -2 0.36114065E+00 0.50105410E+04</pdfrwt>
<totfact> 0.26483883E-02</totfact>
</mgrwt>
</event>
<event>
 6    1  0.4630212E-004  0.5026011E+04  0.7818608E-02  0.7824507E-01
          2   -1    0    0  501    0  0.00000000000E+00  0.00000000000E+00  0.41271216679E+04  0.41271216679E+04  0.00000000000E+00 0.  1.
         -2   -1    0    0    0  501 -0.00000000000E+00 -0.00000000000E+00 -0.15301697611E+04  0.15301697611E+04  0.00000000000E+00 0. -1.
         23    2    1    2    0    0  0.64092959673E+03  0.14685640064E+04 -0.87903840258E+03  0.18297622495E+04  0.88602413543E+02 0.  0.
         13    1    3    3    0    0  0.23127569195E+03  0.42816040144E+03 -0.26762076206E+03  0.55536532781E+03  0.00000000000E+00 0.  1.
        -13    1    3    3    0    0  0.40965390479E+03  0.10404036050E+04 -0.61141764052E+03  0.12743969217E+04  0.00000000000E+00 0. -1.
         22    1    1    2    0    0 -0.64092959673E+03 -0.14685640064E+04  0.34759903094E+04  0.38275291795E+04  0.00000000000E+00 0.  1.
<mgrwt>
<rscale>  0 0.50260111E+04</rscale>
<asrwt>0</asrwt>
<pdfrwt beam="1">  1        2 0.63494179E+00 0.50260111E+04</pdfrwt>
<pdfrwt beam="2">  1       -2 0.23541073E+00 0.50260111E+04</pdfrwt>
<totfact> 0.15342535E-02</totfact>
</mgrwt>
</event>
<event>
 6    1  0.4630212E-004  0.3616781E+04  0.7818608E-02  0.8086659E-01
          1   -1    0    0  501    0  0.00000000000E+00  0.00000000000E+00  0.28736653642E+04  0.28736653642E+04  0.00000000000E+00 0.  1.
         -1   -1    0    0    0  501 -0.00000000000E+00 -0.00000000000E+00 -0.11380154865E+04  0.11380154865E+04  0.00000000000E+00 0. -1.
         23    2    1    2    0    0  0.15772104650E+04  0.79164123470E+03  0.13004265160E+04  0.21940703121E+04  0.92448447433E+02 0.  0.
         11    1    3    3    0    0  0.14259707243E+04  0.68409112329E+03  0.11641108052E+04  0.19638042515E+04  0.00000000000E+00 0.  1.
        -11    1    3    3    0    0  0.15123974073E+03  0.10755011141E+03  0.13631571081E+03  0.23026606058E+03  0.00000000000E+00 0. -1.
         22    1    1    2    0    0 -0.15772104650E+04 -0.79164123470E+03  0.43522336168E+03  0.18176105386E+04  0.00000000000E+00 0.  1.
<mgrwt>
<rscale>  0 0.36167807E+04</rscale>
<asrwt>0</asrwt>
<pdfrwt beam="1">  1        1 0.44210236E+00 0.36167807E+04</pdfrwt>
<pdfrwt beam="2">  1       -1 0.17507931E+00 0.36167807E+04</pdfrwt>
<totfact> 0.13461916E-01</totfact>
</mgrwt>
</event>
<event>
 6    1  0.4630212E-004  0.1261521E+04  0.7818608E-02  0.9060648E-01
          4   -1    0    0  501    0  0.00000000000E+00  0.00000000000E+00  0.52921014869E+03  0.52921014869E+03  0.00000000000E+00 0.  1.
         -4   -1    0    0    0  501 -0.00000000000E+00 -0.00000000000E+00 -0.75179756960E+03  0.75179756960E+03  0.00000000000E+00 0. -1.
         23    2    1    2    0    0 -0.34761723307E+02  0.48355972056E+03  0.29216056916E+03  0.57389819775E+03  0.94672923547E+02 0.  0.
         13    1    3    3    0    0  0.15124463028E+02  0.11492149242E+03  0.10957533834E+03  0.15950690760E+03  0.00000000000E+00 0. -1.
        -13    1    3    3    0    0 -0.49886186335E+02  0.36863822814E+03  0.18258523082E+03  0.41439129015E+03  0.00000000000E+00 0.  1.
         22    1    1    2    0    0  0.34761723307E+02 -0.48355972056E+03 -0.51474799007E+03  0.70710952054E+03  0.00000000000E+00 0. -1.
<mgrwt>
<rscale>  0 0.12615212E+04</rscale>
<asrwt>0</asrwt>
<pdfrwt beam="1">  1        4 0.81416946E-01 0.12615212E+04</pdfrwt>
<pdfrwt beam="2">  1       -4 0.11566116E+00 0.12615212E+04</pdfrwt>
<totfact> 0.15165506E+00</totfact>
</mgrwt>
</event>
<event>
 6    1  0.4630212E-004  0.1258981E+04  0.7818608E-02  0.9062741E-01
          1   -1    0    0  501    0  0.00000000000E+00  0.00000000000E+00  0.10517087647E+04  0.10517087647E+04  0.00000000000E+00 0.  1.
         -1   -1    0    0    0  501 -0.00000000000E+00 -0.00000000000E+00 -0.37677594078E+03  0.37677594078E+03  0.00000000000E+00 0. -1.
         23    2    1    2    0    0  0.54604580293E+03  0.15558803652E+03  0.39852715020E+02  0.57660419700E+03  0.92252398846E+02 0.  0.
         13    1    3    3    0    0  0.39996751723E+03  0.14221465243E+03  0.59340952199E+02  0.42862614341E+03  0.00000000000E+00 0. -1.
        -13    1    3    3    0    0  0.14607828571E+03  0.13373384090E+02 -0.19488237179E+02  0.14797805359E+03  0.00000000000E+00 0.  1.
         22    1    1    2    0    0 -0.54604580293E+03 -0.15558803652E+03  0.63508010893E+03  0.85188050851E+03  0.00000000000E+00 0.  1.
<mgrwt>
<rscale>  0 0.12589814E+04</rscale>
<asrwt>0</asrwt>
<pdfrwt beam="1">  1        1 0.16180135E+00 0.12589814E+04</pdfrwt>
<pdfrwt beam="2">  1       -1 0.57965530E-01 0.12589814E+04</pdfrwt>
<totfact> 0.40995594E+01</totfact>
</mgrwt>
</event>
<event>
 6    1  0.4630212E-004  0.2556269E+04  0.7818608E-02  0.8383209E-01
          2   -1    0    0  501    0  0.00000000000E+00  0.00000000000E+00  0.25740505743E+04  0.25740505743E+04  0.00000000000E+00 0.  1.
         -2   -1    0    0    0  501 -0.00000000000E+00 -0.00000000000E+00 -0.63465248158E+03  0.63465248158E+03  0.00000000000E+00 0. -1.
         23    2    1    2    0    0 -0.84571986795E+03  0.87333142008E+03  0.48255201156E+03  0.13112441318E+04  0.92492513375E+02 0.  0.
         11    1    3    3    0    0 -0.55683707044E+03  0.63527220336E+03  0.32593075955E+03  0.90546626408E+03  0.00000000000E+00 0. -1.
        -11    1    3    3    0    0 -0.28888279751E+03  0.23805921672E+03  0.15662125202E+03  0.40577786774E+03  0.00000000000E+00 0.  1.
         22    1    1    2    0    0  0.84571986795E+03 -0.87333142008E+03  0.14568460812E+04  0.18974589241E+04  0.00000000000E+00 0.  1.
<mgrwt>
<rscale>  0 0.25562688E+04</rscale>
<asrwt>0</asrwt>
<pdfrwt beam="1">  1        2 0.39600777E+00 0.25562688E+04</pdfrwt>
<pdfrwt beam="2">  1       -2 0.97638845E-01 0.25562688E+04</pdfrwt>
<totfact> 0.24448976E+00</totfact>
</mgrwt>
</event>
<event>
 6    1  0.4630212E-004  0.3178425E+04  0.7818608E-02  0.8194538E-01
         -2   -1    0    0    0  501 -0.00000000000E+00  0.00000000000E+00  0.15785453109E+04  0.15785453109E+04  0.00000000000E+00 0.  1.
          2   -1    0    0  501    0  0.00000000000E+00 -0.00000000000E+00 -0.15999516630E+04  0.15999516630E+04  0.00000000000E+00 0. -1.
         23    2    1    2    0    0  0.22453567666E+03  0.33831317081E+03  0.15244285913E+04  0.15802236105E+04  0.91389592979E+02 0.  0.
         11    1    3    3    0    0  0.13719439660E+03  0.21921019457E+03  0.79535136334E+03  0.83633677608E+03  0.00000000000E+00 0. -1.
        -11    1    3    3    0    0  0.87341280059E+02  0.11910297624E+03  0.72907722794E+03  0.74388683444E+03  0.00000000000E+00 0.  1.
         22    1    1    2    0    0 -0.22453567666E+03 -0.33831317081E+03 -0.15458349434E+04  0.15982733633E+04  0.00000000000E+00 0. -1.
<mgrwt>
<rscale>  0 0.31784249E+04</rscale>
<asrwt>0</asrwt>
<pdfrwt beam="1">  1        2 0.24614641E+00 0.31784249E+04</pdfrwt>
<pdfrwt beam="2">  1       -2 0.24285312E+00 0.31784249E+04</pdfrwt>
<totfact> 0.66916223E-01</totfact>
</mgrwt>
</event>
<event>
 6    1  0.4630212E-004  0.9252707E+03  0.7818608E-02  0.9394532E-01
          2   -1    0    0  501    0  0.00000000000E+00  0.00000000000E+00  0.50983985519E+03  0.50983985519E+03  0.00000000000E+00 0.  1.
         -2   -1    0    0    0  501 -0.00000000000E+00 -0.00000000000E+00 -0.41980133914E+03  0.41980133914E+03  0.00000000000E+00 0. -1.
         23    2    1    2    0    0 -0.45076554509E+03 -0.25325285835E+02  0.12296456305E+03  0.47696573519E+03  0.92439612912E+02 0.  0.
         13    1    3    3    0    0 -0.28706865052E+03 -0.55824180065E+02  0.98930169680E+02  0.30872629895E+03  0.00000000000E+00 0. -1.
        -13    1    3    3    0    0 -0.16369689457E+03  0.30498894229E+02  0.24034393375E+02  0.16823943624E+03  0.00000000000E+00 0.  1.
         22    1    1    2    0    0  0.45076554509E+03  0.25325285835E+02 -0.32926047005E+02  0.45267545915E+03  0.00000000000E+00 0.  1.
<mgrwt>
<rscale>  0 0.92527067E+03</rscale>
<asrwt>0</asrwt>
<pdfrwt beam="1">  1        2 0.78436901E-01 0.92527067E+03</pdfrwt>
<pdfrwt beam="2">  1       -2 0.64584821E-01 0.92527067E+03</pdfrwt>
<totfact> 0.13361783E+02</totfact>
</mgrwt>
</event>
<event>
 6    1  0.4630212E-004  0.3902761E+04  0.7818608E-02  0.8024455E-01
         -2   -1    0    0    0  501 -0.00000000000E+00  0.00000000000E+00  0.12081689111E+04  0.12081689111E+04  0.00000000000E+00 0. -1.
          2   -1    0    0  501    0  0.00000000000E+00 -0.00000000000E+00 -0.31517826785E+04  0.31517826785E+04  0.00000000000E+00 0.  1.
         23    2    1    2    0    0  0.17113549115E+04 -0.88425707097E+03 -0.63144750209E+03  0.20291949510E+04  0.90884545016E+02 0.  0.
         13    1    3    3    0    0  0.74640013777E+03 -0.33611918185E+03 -0.27748364436E+03  0.86434162399E+03  0.00000000000E+00 0.  1.
        -13    1    3    3    0    0  0.96495477373E+03 -0.54813788911E+03 -0.35396385773E+03  0.11648533270E+04  0.00000000000E+00 0. -1.
         22    1    1    2    0    0 -0.17113549115E+04  0.88425707097E+03 -0.13121662652E+04  0.23307566386E+04  0.00000000000E+00 0. -1.
<mgrwt>
<rscale>  0 0.39027610E+04</rscale>
<asrwt>0</asrwt>
<pdfrwt beam="1">  1        2 0.48488963E+00 0.39027610E+04</pdfrwt>
<pdfrwt beam="2">  1       -2 0.18587214E+00 0.39027610E+04</pdfrwt>
<totfact> 0.18298978E-01</totfact>
</mgrwt>
</event>
<event>
 6    1  0.5591165E-004  0.3564770E+04  0.7818608E-02  0.8098609E-01
         -1   -1    0    0    0  501 -0.00000000000E+00  0.00000000000E+00  0.23584603717E+04  0.23584603717E+04  0.00000000000E+00 0. -1.
          1   -1    0    0  501    0  0.00000000000E+00 -0.00000000000E+00 -0.13470213933E+04  0.13470213933E+04  0.00000000000E+00 0.  1.
         23    2    1    2    0    0 -0.62655513339E+02 -0.38570488106E+03 -0.13004064564E+04  0.13608446325E+04  0.90261803255E+02 0.  0.
         11    1    3    3    0    0 -0.74016977768E+02 -0.18437470561E+03 -0.60456546755E+03  0.63637406423E+03  0.00000000000E+00 0. -1.
        -11    1    3    3    0    0  0.11361464430E+02 -0.20133017544E+03 -0.69584098888E+03  0.72447056822E+03  0.00000000000E+00 0.  1.
         22    1    1    2    0    0  0.62655513339E+02  0.38570488106E+03  0.23118454348E+04  0.23446371325E+04  0.00000000000E+00 0. -1.
<mgrwt>
<rscale>  0 0.35647702E+04</rscale>
<asrwt>0</asrwt>
<pdfrwt beam="1">  1        1 0.20723406E+00 0.35647702E+04</pdfrwt>
<pdfrwt beam="2">  1       -1 0.36284006E+00 0.35647702E+04</pdfrwt>
<totfact> 0.86662041E-02</totfact>
</mgrwt>
</event>
<event>
 6    1  0.4630212E-004  0.2168215E+04  0.7818608E-02  0.8531775E-01
         -2   -1    0    0    0  501 -0.00000000000E+00  0.00000000000E+00  0.10147455082E+04  0.10147455082E+04  0.00000000000E+00 0. -1.
          2   -1    0    0  501    0  0.00000000000E+00 -0.00000000000E+00 -0.11582109078E+04  0.11582109078E+04  0.00000000000E+00 0.  1.
         23    2    1    2    0    0 -0.33614856292E+03  0.69569913563E+03 -0.83126770638E+03  0.11385168784E+04  0.90672703300E+02 0.  0.
         11    1    3    3    0    0 -0.27272852115E+02  0.38423633802E+02 -0.85116966230E+02  0.97288653178E+02  0.00000000000E+00 0. -1.
        -11    1    3    3    0    0 -0.30887571081E+03  0.65727550183E+03 -0.74615074015E+03  0.10412282252E+04  0.00000000000E+00 0.  1.
         22    1    1    2    0    0  0.33614856292E+03 -0.69569913563E+03  0.68780230683E+03  0.10344395376E+04  0.00000000000E+00 0. -1.
<mgrwt>
<rscale>  0 0.21682152E+04</rscale>
<asrwt>0</asrwt>
<pdfrwt beam="1">  1        2 0.17818629E+00 0.21682152E+04</pdfrwt>
<pdfrwt beam="2">  1       -2 0.15611469E+00 0.21682152E+04</pdfrwt>
<totfact> 0.49529508E+00</totfact>
</mgrwt>
</event>
<event>
 6    1  0.4630212E-004  0.1499110E+04  0.7818608E-02  0.8885045E-01
          2   -1    0    0  501    0  0.00000000000E+00  0.00000000000E+00  0.28993868008E+04  0.28993868008E+04  0.00000000000E+00 0.  1.
         -2   -1    0    0    0  501 -0.00000000000E+00 -0.00000000000E+00 -0.19377639955E+03  0.19377639955E+03  0.00000000000E+00 0. -1.
         23    2    1    2    0    0  0.55463908499E+02 -0.43767402994E+03  0.26009788779E+04  0.26397510729E+04  0.92519197686E+02 0.  0.
         11    1    3    3    0    0  0.74842825279E+02 -0.22332160163E+03  0.13481901586E+04  0.13686090348E+04  0.00000000000E+00 0.  1.
        -11    1    3    3    0    0 -0.19378916780E+02 -0.21435242831E+03  0.12527887193E+04  0.12711420381E+04  0.00000000000E+00 0. -1.
         22    1    1    2    0    0 -0.55463908499E+02  0.43767402994E+03  0.10463152334E+03  0.45341212743E+03  0.00000000000E+00 0. -1.
<mgrwt>
<rscale>  0 0.14991100E+04</rscale>
<asrwt>0</asrwt>
<pdfrwt beam="1">  1        2 0.44605948E+00 0.14991100E+04</pdfrwt>
<pdfrwt beam="2">  1       -2 0.29811756E-01 0.14991100E+04</pdfrwt>
<totfact> 0.20286311E+01</totfact>
</mgrwt>
</event>
<event>
 6    1  0.4630212E-004  0.1116644E+04  0.7818608E-02  0.9189120E-01
         -2   -1    0    0    0  501 -0.00000000000E+00  0.00000000000E+00  0.39920859243E+03  0.39920859243E+03  0.00000000000E+00 0. -1.
          2   -1    0    0  501    0  0.00000000000E+00 -0.00000000000E+00 -0.78085310930E+03  0.78085310930E+03  0.00000000000E+00 0.  1.
         23    2    1    2    0    0 -0.48700487538E+03 -0.25090684345E+03 -0.28291437207E+03  0.62339696041E+03  0.91952355001E+02 0.  0.
         11    1    3    3    0    0 -0.31569371435E+03 -0.19156363726E+03 -0.22791132428E+03  0.43393861333E+03  0.00000000000E+00 0.  1.
        -11    1    3    3    0    0 -0.17131116103E+03 -0.59343206197E+02 -0.55003047796E+02  0.18945834709E+03  0.00000000000E+00 0. -1.
         22    1    1    2    0    0  0.48700487538E+03  0.25090684345E+03 -0.98730144800E+02  0.55666474132E+03  0.00000000000E+00 0. -1.
<mgrwt>
<rscale>  0 0.11166437E+04</rscale>
<asrwt>0</asrwt>
<pdfrwt beam="1">  1        2 0.12013125E+00 0.11166437E+04</pdfrwt>
<pdfrwt beam="2">  1       -2 0.61416707E-01 0.11166437E+04</pdfrwt>
<totfact> 0.86998071E+01</totfact>
</mgrwt>
</event>
<event>
 6    1  0.4630212E-004  0.1866581E+04  0.7818608E-02  0.8671672E-01
          2   -1    0    0  501    0  0.00000000000E+00  0.00000000000E+00  0.10140689347E+04  0.10140689347E+04  0.00000000000E+00 0.  1.
         -2   -1    0    0    0  501 -0.00000000000E+00 -0.00000000000E+00 -0.85894672708E+03  0.85894672708E+03  0.00000000000E+00 0. -1.
         23    2    1    2    0    0  0.42293515150E+03  0.38039861337E+03 -0.66190335258E+03  0.87747158268E+03  0.90901500667E+02 0.  0.
         11    1    3    3    0    0  0.27302883861E+03  0.19731212629E+03 -0.34755503967E+03  0.48401583393E+03  0.00000000000E+00 0.  1.
        -11    1    3    3    0    0  0.14990631290E+03  0.18308648708E+03 -0.31434831291E+03  0.39345574875E+03  0.00000000000E+00 0. -1.
         22    1    1    2    0    0 -0.42293515150E+03 -0.38039861337E+03  0.81702556021E+03  0.99554407912E+03  0.00000000000E+00 0.  1.
<mgrwt>
<rscale>  0 0.18665810E+04</rscale>
<asrwt>0</asrwt>
<pdfrwt beam="1">  1        2 0.15601060E+00 0.18665810E+04</pdfrwt>
<pdfrwt beam="2">  1       -2 0.13214565E+00 0.18665810E+04</pdfrwt>
<totfact> 0.96518697E+00</totfact>
</mgrwt>
</event>
<event>
 6    1  0.4630212E-004  0.2246618E+04  0.7818608E-02  0.8499271E-01
         -1   -1    0    0    0  501 -0.00000000000E+00  0.00000000000E+00  0.81251169448E+03  0.81251169448E+03  0.00000000000E+00 0.  1.
          1   -1    0    0  501    0  0.00000000000E+00 -0.00000000000E+00 -0.15529906278E+04  0.15529906278E+04  0.00000000000E+00 0. -1.
         23    2    1    2    0    0  0.41526676844E+03 -0.69074368233E+03  0.45017797947E+03  0.92771332259E+03  0.91752231856E+02 0.  0.
         11    1    3    3    0    0  0.30318525592E+03 -0.57504427106E+03  0.35930530444E+03  0.74276343131E+03  0.00000000000E+00 0. -1.
        -11    1    3    3    0    0  0.11208151252E+03 -0.11569941127E+03  0.90872675032E+02  0.18494989128E+03  0.00000000000E+00 0.  1.
         22    1    1    2    0    0 -0.41526676844E+03  0.69074368233E+03 -0.11906569128E+04  0.14377889997E+04  0.00000000000E+00 0. -1.
<mgrwt>
<rscale>  0 0.22466179E+04</rscale>
<asrwt>0</asrwt>
<pdfrwt beam="1">  1        1 0.23892163E+00 0.22466179E+04</pdfrwt>
<pdfrwt beam="2">  1       -1 0.12500180E+00 0.22466179E+04</pdfrwt>
<totfact> 0.30549731E+00</totfact>
</mgrwt>
</event>
<event>
 6    1  0.4630212E-004  0.4288970E+04  0.7818608E-02  0.7948661E-01
         -2   -1    0    0    0  501 -0.00000000000E+00  0.00000000000E+00  0.32087993184E+04  0.32087993184E+04  0.00000000000E+00 0. -1.
          2   -1    0    0  501    0  0.00000000000E+00 -0.00000000000E+00 -0.14331893240E+04  0.14331893240E+04  0.00000000000E+00 0.  1.
         23    2    1    2    0    0  0.20174433749E+03 -0.74837949812E+03 -0.12747689082E+04  0.14946748512E+04  0.90799177872E+02 0.  0.
         11    1    3    3    0    0  0.10708930219E+03 -0.27263984861E+03 -0.42401361664E+03  0.51535245491E+03  0.00000000000E+00 0. -1.
        -11    1    3    3    0    0  0.94655035301E+02 -0.47573964951E+03 -0.85075529155E+03  0.97932239631E+03  0.00000000000E+00 0.  1.
         22    1    1    2    0    0 -0.20174433749E+03  0.74837949812E+03  0.30503789025E+04  0.31473137911E+04  0.00000000000E+00 0. -1.
<mgrwt>
<rscale>  0 0.42889705E+04</rscale>
<asrwt>0</asrwt>
<pdfrwt beam="1">  1        2 0.22049067E+00 0.42889705E+04</pdfrwt>
<pdfrwt beam="2">  1       -2 0.49366143E+00 0.42889705E+04</pdfrwt>
<totfact> 0.19340554E-02</totfact>
</mgrwt>
</event>
<event>
 6    1  0.4630212E-004  0.3105573E+04  0.7818608E-02  0.8214210E-01
          2   -1    0    0  501    0  0.00000000000E+00  0.00000000000E+00  0.15950024616E+04  0.15950024616E+04  0.00000000000E+00 0.  1.
         -2   -1    0    0    0  501 -0.00000000000E+00 -0.00000000000E+00 -0.15116883541E+04  0.15116883541E+04  0.00000000000E+00 0. -1.
         23    2    1    2    0    0 -0.25838664882E+03  0.91357052893E+03  0.12693033529E+04  0.15874985100E+04  0.87439957159E+02 0.  0.
         11    1    3    3    0    0 -0.69572458799E+02  0.15515200840E+03  0.26597358223E+03  0.31568088187E+03  0.00000000000E+00 0.  1.
        -11    1    3    3    0    0 -0.18881419002E+03  0.75841852052E+03  0.10033297707E+04  0.12718176282E+04  0.00000000000E+00 0. -1.
         22    1    1    2    0    0  0.25838664882E+03 -0.91357052893E+03 -0.11859892453E+04  0.15191923057E+04  0.00000000000E+00 0. -1.
<mgrwt>
<rscale>  0 0.31055735E+04</rscale>
<asrwt>0</asrwt>
<pdfrwt beam="1">  1        2 0.24538500E+00 0.31055735E+04</pdfrwt>
<pdfrwt beam="2">  1       -2 0.23256744E+00 0.31055735E+04</pdfrwt>
<totfact> 0.78486482E-01</totfact>
</mgrwt>
</event>
<event>
 6    1  0.4630212E-004  0.2104441E+04  0.7818608E-02  0.8559289E-01
         -2   -1    0    0    0  501 -0.00000000000E+00  0.00000000000E+00  0.36307219168E+03  0.36307219168E+03  0.00000000000E+00 0. -1.
          2   -1    0    0  501    0  0.00000000000E+00 -0.00000000000E+00 -0.30494438367E+04  0.30494438367E+04  0.00000000000E+00 0.  1.
         23    2    1    2    0    0  0.29565784238E+03 -0.99260257790E+03 -0.10631608486E+04  0.14870325237E+04  0.91001642553E+02 0.  0.
         11    1    3    3    0    0  0.21161431292E+03 -0.56260785475E+03 -0.59279457856E+03  0.84422368364E+03  0.00000000000E+00 0. -1.
        -11    1    3    3    0    0  0.84043529468E+02 -0.42999472315E+03 -0.47036627007E+03  0.64280884001E+03  0.00000000000E+00 0.  1.
         22    1    1    2    0    0 -0.29565784238E+03  0.99260257790E+03 -0.16232107964E+04  0.19254835047E+04  0.00000000000E+00 0.  1.
<mgrwt>
<rscale>  0 0.21044413E+04</rscale>
<asrwt>0</asrwt>
<pdfrwt beam="1">  1        2 0.46914523E+00 0.21044413E+04</pdfrwt>
<pdfrwt beam="2">  1       -2 0.55857258E-01 0.21044413E+04</pdfrwt>
<totfact> 0.45030088E+00</totfact>
</mgrwt>
</event>
<event>
 6    1  0.4630212E-004  0.1115206E+04  0.7818608E-02  0.9190497E-01
          1   -1    0    0  501    0  0.00000000000E+00  0.00000000000E+00  0.41279341599E+03  0.41279341599E+03  0.00000000000E+00 0.  1.
         -1   -1    0    0    0  501 -0.00000000000E+00 -0.00000000000E+00 -0.75321182545E+03  0.75321182545E+03  0.00000000000E+00 0. -1.
         23    2    1    2    0    0 -0.69346997732E+02 -0.71124521570E+02 -0.74099232288E+03  0.75329812522E+03  0.92307850314E+02 0.  0.
         13    1    3    3    0    0  0.15462397933E+02 -0.30235771001E+02 -0.32576225827E+03  0.32752761183E+03  0.00000000000E+00 0.  1.
        -13    1    3    3    0    0 -0.84809395665E+02 -0.40888750569E+02 -0.41523006460E+03  0.42577051338E+03  0.00000000000E+00 0. -1.
         22    1    1    2    0    0  0.69346997732E+02  0.71124521570E+02  0.40057391343E+03  0.41270711622E+03  0.00000000000E+00 0.  1.
<mgrwt>
<rscale>  0 0.11152056E+04</rscale>
<asrwt>0</asrwt>
<pdfrwt beam="1">  1        1 0.63506680E-01 0.11152056E+04</pdfrwt>
<pdfrwt beam="2">  1       -1 0.11587874E+00 0.11152056E+04</pdfrwt>
<totfact> 0.38608935E+01</totfact>
</mgrwt>
</event>
<event>
 6    1  0.4630212E-004  0.1155557E+04  0.7818608E-02  0.9152672E-01
         -2   -1    0    0    0  501 -0.00000000000E+00  0.00000000000E+00  0.16075486198E+03  0.16075486198E+03  0.00000000000E+00 0. -1.
          2   -1    0    0  501    0  0.00000000000E+00 -0.00000000000E+00 -0.20766274646E+04  0.20766274646E+04  0.00000000000E+00 0.  1.
         23    2    1    2    0    0 -0.23603575129E+03  0.30926110198E+03 -0.17813762060E+04  0.18257458537E+04  0.93227839138E+02 0.  0.
         11    1    3    3    0    0 -0.69303799846E+02  0.15773133042E+03 -0.67295864164E+03  0.69466216438E+03  0.00000000000E+00 0. -1.
        -11    1    3    3    0    0 -0.16673195144E+03  0.15152977156E+03 -0.11084175644E+04  0.11310836893E+04  0.00000000000E+00 0.  1.
         22    1    1    2    0    0  0.23603575129E+03 -0.30926110198E+03 -0.13449639660E+03  0.41163647285E+03  0.00000000000E+00 0. -1.
<mgrwt>
<rscale>  0 0.11555569E+04</rscale>
<asrwt>0</asrwt>
<pdfrwt beam="1">  1        2 0.31948116E+00 0.11555569E+04</pdfrwt>
<pdfrwt beam="2">  1       -2 0.24731516E-01 0.11555569E+04</pdfrwt>
<totfact> 0.87864376E+01</totfact>
</mgrwt>
</event>
<event>
 6    1  0.4630212E-004  0.2436918E+04  0.7818608E-02  0.8425810E-01
         -1   -1    0    0    0  501 -0.00000000000E+00  0.00000000000E+00  0.37336869389E+03  0.37336869389E+03  0.00000000000E+00 0.  1.
          1   -1    0    0  501    0  0.00000000000E+00 -0.00000000000E+00 -0.39763454295E+04  0.39763454295E+04  0.00000000000E+00 0. -1.
         23    2    1    2    0    0  0.27303628919E+03 -0.11167401620E+04 -0.25156032306E+04  0.27672987089E+04  0.89583066156E+02 0.  0.
         11    1    3    3    0    0  0.10917053516E+03 -0.45754888019E+03 -0.11361933041E+04  0.12297172064E+04  0.00000000000E+00 0. -1.
        -11    1    3    3    0    0  0.16386575403E+03 -0.65919128181E+03 -0.13794099266E+04  0.15375815025E+04  0.00000000000E+00 0.  1.
         22    1    1    2    0    0 -0.27303628919E+03  0.11167401620E+04 -0.10873735050E+04  0.15824154145E+04  0.00000000000E+00 0. -1.
<mgrwt>
<rscale>  0 0.24369185E+04</rscale>
<asrwt>0</asrwt>
<pdfrwt beam="1">  1        1 0.61174550E+00 0.24369185E+04</pdfrwt>
<pdfrwt beam="2">  1       -1 0.57441333E-01 0.24369185E+04</pdfrwt>
<totfact> 0.27681403E-01</totfact>
</mgrwt>
</event>
<event>
 6    1  0.4630212E-004  0.1061169E+04  0.7818608E-02  0.9243888E-01
          2   -1    0    0  501    0  0.00000000000E+00  0.00000000000E+00  0.15634528892E+04  0.15634528892E+04  0.00000000000E+00 0.  1.
         -2   -1    0    0    0  501 -0.00000000000E+00 -0.00000000000E+00 -0.18006295800E+03  0.18006295800E+03  0.00000000000E+00 0. -1.
         23    2    1    2    0    0  0.27042668311E+02  0.45477309908E+03  0.26270124013E+03  0.53376669144E+03  0.91351309610E+02 0.  0.
         11    1    3    3    0    0  0.32057016021E+02  0.59751745920E+02  0.22610975933E+02  0.71478525791E+02  0.00000000000E+00 0. -1.
        -11    1    3    3    0    0 -0.50143477102E+01  0.39502135316E+03  0.24009026419E+03  0.46228816565E+03  0.00000000000E+00 0.  1.
         22    1    1    2    0    0 -0.27042668311E+02 -0.45477309908E+03  0.11206886911E+04  0.12097491557E+04  0.00000000000E+00 0.  1.
<mgrwt>
<rscale>  0 0.10611691E+04</rscale>
<asrwt>0</asrwt>
<pdfrwt beam="1">  1        2 0.24053120E+00 0.10611691E+04</pdfrwt>
<pdfrwt beam="2">  1       -2 0.27701995E-01 0.10611691E+04</pdfrwt>
<totfact> 0.13823289E+02</totfact>
</mgrwt>
</event>
<event>
 6    1  0.4630212E-004  0.1471194E+04  0.7818608E-02  0.8903838E-01
          2   -1    0    0  501    0  0.00000000000E+00  0.00000000000E+00  0.28998558361E+03  0.28998558361E+03  0.00000000000E+00 0.  1.
         -2   -1    0    0    0  501 -0.00000000000E+00 -0.00000000000E+00 -0.18659651843E+04  0.18659651843E+04  0.00000000000E+00 0. -1.
         23    2    1    2    0    0 -0.39381498150E+03  0.21905550514E+03  0.55740201093E+02  0.46314686151E+03  0.91227689430E+02 0.  0.
         13    1    3    3    0    0 -0.33587578596E+03  0.15151378611E+03  0.63190970277E+02  0.37384765574E+03  0.00000000000E+00 0. -1.
        -13    1    3    3    0    0 -0.57939195542E+02  0.67541719033E+02 -0.74507691842E+01  0.89299205771E+02  0.00000000000E+00 0.  1.
         22    1    1    2    0    0  0.39381498150E+03 -0.21905550514E+03 -0.16317198018E+04  0.16928039064E+04  0.00000000000E+00 0. -1.
<mgrwt>
<rscale>  0 0.14711941E+04</rscale>
<asrwt>0</asrwt>
<pdfrwt beam="1">  1        2 0.44613166E-01 0.14711941E+04</pdfrwt>
<pdfrwt beam="2">  1       -2 0.28707157E+00 0.14711941E+04</pdfrwt>
<totfact> 0.42228669E+00</totfact>
</mgrwt>
</event>
<event>
 6    1  0.4630212E-004  0.1759182E+04  0.7818608E-02  0.8728312E-01
         -3   -1    0    0    0  501 -0.00000000000E+00  0.00000000000E+00  0.52252944724E+03  0.52252944724E+03  0.00000000000E+00 0.  1.
          3   -1    0    0  501    0  0.00000000000E+00 -0.00000000000E+00 -0.14806447120E+04  0.14806447120E+04  0.00000000000E+00 0. -1.
         23    2    1    2    0    0  0.32787109833E+03 -0.72657785688E+03 -0.63370812995E+02  0.80484929794E+03  0.91387598838E+02 0.  0.
         11    1    3    3    0    0  0.23453822564E+03 -0.41500947722E+03 -0.25106092148E+02  0.47735873443E+03  0.00000000000E+00 0. -1.
        -11    1    3    3    0    0  0.93332872693E+02 -0.31156837966E+03 -0.38264720847E+02  0.32749056351E+03  0.00000000000E+00 0.  1.
         22    1    1    2    0    0 -0.32787109833E+03  0.72657785688E+03 -0.89474445172E+03  0.11983248613E+04  0.00000000000E+00 0. -1.
<mgrwt>
<rscale>  0 0.17591822E+04</rscale>
<asrwt>0</asrwt>
<pdfrwt beam="1">  1        3 0.22779149E+00 0.17591822E+04</pdfrwt>
<pdfrwt beam="2">  1       -3 0.80389146E-01 0.17591822E+04</pdfrwt>
<totfact> 0.35526277E-01</totfact>
</mgrwt>
</event>
<event>
 6    1  0.4630212E-004  0.1936162E+04  0.7818608E-02  0.8637063E-01
          2   -1    0    0  501    0  0.00000000000E+00  0.00000000000E+00  0.18483183392E+04  0.18483183392E+04  0.00000000000E+00 0.  1.
         -2   -1    0    0    0  501 -0.00000000000E+00 -0.00000000000E+00 -0.50704516307E+03  0.50704516307E+03  0.00000000000E+00 0. -1.
         23    2    1    2    0    0  0.26644146880E+03  0.68524575695E+03 -0.89965537831E+02  0.74632743678E+03  0.91422323168E+02 0.  0.
         11    1    3    3    0    0  0.15827494423E+03  0.41746596804E+03 -0.96511110071E+01  0.44656683306E+03  0.00000000000E+00 0. -1.
        -11    1    3    3    0    0  0.10816652458E+03  0.26777978891E+03 -0.80314426824E+02  0.29976060372E+03  0.00000000000E+00 0.  1.
         22    1    1    2    0    0 -0.26644146880E+03 -0.68524575695E+03  0.14312387140E+04  0.16090360655E+04  0.00000000000E+00 0.  1.
<mgrwt>
<rscale>  0 0.19361621E+04</rscale>
<asrwt>0</asrwt>
<pdfrwt beam="1">  1        2 0.28435666E+00 0.19361621E+04</pdfrwt>
<pdfrwt beam="2">  1       -2 0.78006949E-01 0.19361621E+04</pdfrwt>
<totfact> 0.11080669E+01</totfact>
</mgrwt>
</event>
<event>
 6    1  0.5320723E-004  0.4833214E+04  0.7818608E-02  0.7854764E-01
          2   -1    0    0  501    0  0.00000000000E+00  0.00000000000E+00  0.28986690979E+04  0.28986690979E+04  0.00000000000E+00 0.  1.
         -2   -1    0    0    0  501 -0.00000000000E+00 -0.00000000000E+00 -0.20147136800E+04  0.20147136800E+04  0.00000000000E+00 0. -1.
         23    2    1    2    0    0  0.42428349771E+01 -0.23922040915E+04  0.78383665500E+03  0.25190807535E+04  0.93324827536E+02 0.  0.
         13    1    3    3    0    0 -0.81234372592E+01 -0.16461838392E+04  0.49517470631E+03  0.17190652147E+04  0.00000000000E+00 0. -1.
        -13    1    3    3    0    0  0.12366272236E+02 -0.74602025236E+03  0.28866194869E+03  0.80001553875E+03  0.00000000000E+00 0.  1.
         22    1    1    2    0    0 -0.42428349771E+01  0.23922040915E+04  0.10011876287E+03  0.23943020244E+04  0.00000000000E+00 0.  1.
<mgrwt>
<rscale>  0 0.48332135E+04</rscale>
<asrwt>0</asrwt>
<pdfrwt beam="1">  1        2 0.44594909E+00 0.48332135E+04</pdfrwt>
<pdfrwt beam="2">  1       -2 0.30995595E+00 0.48332135E+04</pdfrwt>
<totfact> 0.40988833E-02</totfact>
</mgrwt>
</event>
<event>
 6    1  0.4630212E-004  0.1248224E+04  0.7818608E-02  0.9071663E-01
         -2   -1    0    0    0  501 -0.00000000000E+00  0.00000000000E+00  0.13811060265E+03  0.13811060265E+03  0.00000000000E+00 0. -1.
          2   -1    0    0  501    0  0.00000000000E+00 -0.00000000000E+00 -0.28203168278E+04  0.28203168278E+04  0.00000000000E+00 0.  1.
         23    2    1    2    0    0 -0.56704128643E+03  0.21052424734E+03 -0.16689606747E+04  0.17783753872E+04  0.10645658726E+03 0.  0.
         13    1    3    3    0    0 -0.11907992873E+03  0.82562602436E+02 -0.32137606780E+03  0.35253253708E+03  0.00000000000E+00 0.  1.
        -13    1    3    3    0    0 -0.44796135770E+03  0.12796164490E+03 -0.13475846069E+04  0.14258428501E+04  0.00000000000E+00 0. -1.
         22    1    1    2    0    0  0.56704128643E+03 -0.21052424734E+03 -0.10132455505E+04  0.11800520433E+04  0.00000000000E+00 0.  1.
<mgrwt>
<rscale>  0 0.12482238E+04</rscale>
<asrwt>0</asrwt>
<pdfrwt beam="1">  1        2 0.43389486E+00 0.12482238E+04</pdfrwt>
<pdfrwt beam="2">  1       -2 0.21247787E-01 0.12482238E+04</pdfrwt>
<totfact> 0.42889240E+01</totfact>
</mgrwt>
</event>
<event>
 6    1  0.5004793E-004  0.2640164E+04  0.7818608E-02  0.8354685E-01
          2   -1    0    0  501    0  0.00000000000E+00  0.00000000000E+00  0.16531642798E+04  0.16531642798E+04  0.00000000000E+00 0.  1.
         -2   -1    0    0    0  501 -0.00000000000E+00 -0.00000000000E+00 -0.10541094636E+04  0.10541094636E+04  0.00000000000E+00 0. -1.
         23    2    1    2    0    0 -0.70851603941E+03 -0.66066199053E+03 -0.61709175402E+03  0.11524484400E+04  0.94159067985E+02 0.  0.
         13    1    3    3    0    0 -0.30715239458E+03 -0.22488953384E+03 -0.25242839488E+03  0.45676907784E+03  0.00000000000E+00 0. -1.
        -13    1    3    3    0    0 -0.40136364483E+03 -0.43577245669E+03 -0.36466335914E+03  0.69567936213E+03  0.00000000000E+00 0.  1.
         22    1    1    2    0    0  0.70851603941E+03  0.66066199053E+03  0.12161465703E+04  0.15548253034E+04  0.00000000000E+00 0.  1.
<mgrwt>
<rscale>  0 0.26401637E+04</rscale>
<asrwt>0</asrwt>
<pdfrwt beam="1">  1        2 0.25433297E+00 0.26401637E+04</pdfrwt>
<pdfrwt beam="2">  1       -2 0.16217069E+00 0.26401637E+04</pdfrwt>
<totfact> 0.22295538E+00</totfact>
</mgrwt>
</event>
<event>
 6    1  0.4630212E-004  0.4440350E+04  0.7818608E-02  0.7921164E-01
          2   -1    0    0  501    0  0.00000000000E+00  0.00000000000E+00  0.19729518661E+04  0.19729518661E+04  0.00000000000E+00 0.  1.
         -2   -1    0    0    0  501 -0.00000000000E+00 -0.00000000000E+00 -0.24983764960E+04  0.24983764960E+04  0.00000000000E+00 0. -1.
         23    2    1    2    0    0  0.46461145514E+03  0.13771665590E+04  0.14257372020E+04  0.20383293835E+04  0.98023317191E+02 0.  0.
         11    1    3    3    0    0  0.10189841225E+03  0.25300958833E+03  0.22023354010E+03  0.35057089211E+03  0.00000000000E+00 0.  1.
        -11    1    3    3    0    0  0.36271304289E+03  0.11241569707E+04  0.12055036619E+04  0.16877584913E+04  0.00000000000E+00 0. -1.
         22    1    1    2    0    0 -0.46461145514E+03 -0.13771665590E+04 -0.19511618319E+04  0.24329989786E+04  0.00000000000E+00 0. -1.
<mgrwt>
<rscale>  0 0.44403498E+04</rscale>
<asrwt>0</asrwt>
<pdfrwt beam="1">  1        2 0.30353106E+00 0.44403498E+04</pdfrwt>
<pdfrwt beam="2">  1       -2 0.38436561E+00 0.44403498E+04</pdfrwt>
<totfact> 0.49406699E-02</totfact>
</mgrwt>
</event>
<event>
 6    1  0.4630212E-004  0.1572710E+04  0.7818608E-02  0.8837491E-01
         -2   -1    0    0    0  501 -0.00000000000E+00  0.00000000000E+00  0.10550742965E+04  0.10550742965E+04  0.00000000000E+00 0. -1.
          2   -1    0    0  501    0  0.00000000000E+00 -0.00000000000E+00 -0.58607624157E+03  0.58607624157E+03  0.00000000000E+00 0.  1.
         23    2    1    2    0    0 -0.33125063826E+03 -0.56354296943E+03  0.68671172744E+03  0.95216076529E+03  0.87917362361E+02 0.  0.
         11    1    3    3    0    0 -0.19878608698E+03 -0.27148639389E+03  0.31100084896E+03  0.45819460767E+03  0.00000000000E+00 0.  1.
        -11    1    3    3    0    0 -0.13246455128E+03 -0.29205657554E+03  0.37571087848E+03  0.49396615762E+03  0.00000000000E+00 0. -1.
         22    1    1    2    0    0  0.33125063826E+03  0.56354296943E+03 -0.21771367255E+03  0.68898977275E+03  0.00000000000E+00 0.  1.
<mgrwt>
<rscale>  0 0.15727097E+04</rscale>
<asrwt>0</asrwt>
<pdfrwt beam="1">  1        2 0.90165576E-01 0.15727097E+04</pdfrwt>
<pdfrwt beam="2">  1       -2 0.16231912E+00 0.15727097E+04</pdfrwt>
<totfact> 0.11863651E+01</totfact>
</mgrwt>
</event>
<event>
 6    1  0.4630212E-004  0.1054448E+04  0.7818608E-02  0.9250764E-01
         -2   -1    0    0    0  501 -0.00000000000E+00  0.00000000000E+00  0.52082687221E+03  0.52082687221E+03  0.00000000000E+00 0. -1.
          2   -1    0    0  501    0  0.00000000000E+00 -0.00000000000E+00 -0.53369932939E+03  0.53369932939E+03  0.00000000000E+00 0.  1.
         23    2    1    2    0    0  0.39148481011E+03 -0.29821559146E+03 -0.17690881166E+03  0.53577691618E+03  0.11647867072E+03 0.  0.
         11    1    3    3    0    0  0.63038235975E+02 -0.11078458949E+03 -0.49243460315E+02  0.13664539087E+03  0.00000000000E+00 0. -1.
        -11    1    3    3    0    0  0.32844657413E+03 -0.18743100197E+03 -0.12766535134E+03  0.39913152531E+03  0.00000000000E+00 0.  1.
         22    1    1    2    0    0 -0.39148481011E+03  0.29821559146E+03  0.16403635447E+03  0.51874928542E+03  0.00000000000E+00 0. -1.
<mgrwt>
<rscale>  0 0.10544476E+04</rscale>
<asrwt>0</asrwt>
<pdfrwt beam="1">  1        2 0.82107589E-01 0.10544476E+04</pdfrwt>
<pdfrwt beam="2">  1       -2 0.80127211E-01 0.10544476E+04</pdfrwt>
<totfact> 0.78271217E+01</totfact>
</mgrwt>
</event>
<event>
 6    1  0.4630212E-004  0.1551048E+04  0.7818608E-02  0.8851198E-01
          2   -1    0    0  501    0  0.00000000000E+00  0.00000000000E+00  0.18863521680E+04  0.18863521680E+04  0.00000000000E+00 0. -1.
         -2   -1    0    0    0  501 -0.00000000000E+00 -0.00000000000E+00 -0.31883643904E+03  0.31883643904E+03  0.00000000000E+00 0.  1.
         23    2    1    2    0    0 -0.18833676722E+03  0.11760581261E+03  0.18388942567E+04  0.18545489482E+04  0.92292192946E+02 0.  0.
         11    1    3    3    0    0 -0.96362787525E+02  0.11099412742E+03  0.10355686967E+04  0.10459483777E+04  0.00000000000E+00 0.  1.
        -11    1    3    3    0    0 -0.91973979694E+02  0.66116851888E+01  0.80332556001E+03  0.80860057055E+03  0.00000000000E+00 0. -1.
         22    1    1    2    0    0  0.18833676722E+03 -0.11760581261E+03 -0.27137852773E+03  0.35063965885E+03  0.00000000000E+00 0.  1.
<mgrwt>
<rscale>  0 0.15510484E+04</rscale>
<asrwt>0</asrwt>
<pdfrwt beam="1">  1        2 0.29020802E+00 0.15510484E+04</pdfrwt>
<pdfrwt beam="2">  1       -2 0.49051761E-01 0.15510484E+04</pdfrwt>
<totfact> 0.29267369E+01</totfact>
</mgrwt>
</event>
<event>
 6    1  0.4630212E-004  0.1428353E+04  0.7818608E-02  0.8933547E-01
          2   -1    0    0  501    0  0.00000000000E+00  0.00000000000E+00  0.76072573443E+03  0.76072573443E+03  0.00000000000E+00 0.  1.
         -2   -1    0    0    0  501 -0.00000000000E+00 -0.00000000000E+00 -0.67047582519E+03  0.67047582519E+03  0.00000000000E+00 0. -1.
         23    2    1    2    0    0  0.41276319993E+03 -0.35678870865E+02 -0.53397638602E+03  0.68199871077E+03  0.91351078929E+02 0.  0.
         13    1    3    3    0    0  0.23600543767E+03  0.22325195976E+01 -0.36426432636E+03  0.43404153052E+03  0.00000000000E+00 0. -1.
        -13    1    3    3    0    0  0.17675776226E+03 -0.37911390463E+02 -0.16971205966E+03  0.24795718025E+03  0.00000000000E+00 0.  1.
         22    1    1    2    0    0 -0.41276319993E+03  0.35678870865E+02  0.62422629526E+03  0.74920284885E+03  0.00000000000E+00 0.  1.
<mgrwt>
<rscale>  0 0.14283532E+04</rscale>
<asrwt>0</asrwt>
<pdfrwt beam="1">  1        2 0.11703473E+00 0.14283532E+04</pdfrwt>
<pdfrwt beam="2">  1       -2 0.10315013E+00 0.14283532E+04</pdfrwt>
<totfact> 0.27433709E+01</totfact>
</mgrwt>
</event>
<event>
 6    1  0.4630212E-004  0.1939445E+04  0.7818608E-02  0.8635468E-01
          2   -1    0    0  501    0  0.00000000000E+00  0.00000000000E+00  0.13783513416E+04  0.13783513416E+04  0.00000000000E+00 0.  1.
         -2   -1    0    0    0  501 -0.00000000000E+00 -0.00000000000E+00 -0.68223635652E+03  0.68223635652E+03  0.00000000000E+00 0. -1.
         23    2    1    2    0    0  0.39723243158E+03  0.60013090065E+03  0.10362745823E+04  0.12645605288E+04  0.85426098744E+02 0.  0.
         13    1    3    3    0    0  0.21826781842E+03  0.39988301031E+03  0.67659389073E+03  0.81567552094E+03  0.00000000000E+00 0. -1.
        -13    1    3    3    0    0  0.17896461317E+03  0.20024789034E+03  0.35968069162E+03  0.44888500785E+03  0.00000000000E+00 0.  1.
         22    1    1    2    0    0 -0.39723243158E+03 -0.60013090065E+03 -0.34015959730E+03  0.79602716929E+03  0.00000000000E+00 0. -1.
<mgrwt>
<rscale>  0 0.19394447E+04</rscale>
<asrwt>0</asrwt>
<pdfrwt beam="1">  1        2 0.21205405E+00 0.19394447E+04</pdfrwt>
<pdfrwt beam="2">  1       -2 0.10495944E+00 0.19394447E+04</pdfrwt>
<totfact> 0.10230278E+01</totfact>
</mgrwt>
</event>
<event>
 6    1  0.4630212E-004  0.4389946E+04  0.7818608E-02  0.7930192E-01
          2   -1    0    0  501    0  0.00000000000E+00  0.00000000000E+00  0.35800474922E+04  0.35800474922E+04  0.00000000000E+00 0.  1.
         -2   -1    0    0    0  501 -0.00000000000E+00 -0.00000000000E+00 -0.13457660107E+04  0.13457660107E+04  0.00000000000E+00 0. -1.
         23    2    1    2    0    0 -0.80781537356E+03 -0.71104901318E+03 -0.10277397427E+04  0.14908551561E+04  0.90795048844E+02 0.  0.
         13    1    3    3    0    0 -0.22646389157E+03 -0.16879456898E+03 -0.31573497543E+03  0.42363436524E+03  0.00000000000E+00 0.  1.
        -13    1    3    3    0    0 -0.58135148199E+03 -0.54225444421E+03 -0.71200476728E+03  0.10672207909E+04  0.00000000000E+00 0. -1.
         22    1    1    2    0    0  0.80781537356E+03  0.71104901318E+03  0.32620212242E+04  0.34349583468E+04  0.00000000000E+00 0.  1.
<mgrwt>
<rscale>  0 0.43899459E+04</rscale>
<asrwt>0</asrwt>
<pdfrwt beam="1">  1        2 0.55077653E+00 0.43899459E+04</pdfrwt>
<pdfrwt beam="2">  1       -2 0.20704093E+00 0.43899459E+04</pdfrwt>
<totfact> 0.65126777E-02</totfact>
</mgrwt>
</event>
<event>
 6    1  0.4630212E-004  0.2644523E+04  0.7818608E-02  0.8353233E-01
          2   -1    0    0  501    0  0.00000000000E+00  0.00000000000E+00  0.17442380952E+04  0.17442380952E+04  0.00000000000E+00 0.  1.
         -2   -1    0    0    0  501 -0.00000000000E+00 -0.00000000000E+00 -0.10023722674E+04  0.10023722674E+04  0.00000000000E+00 0. -1.
         23    2    1    2    0    0 -0.37342291140E+03 -0.12102163541E+04 -0.17324710079E+02  0.12699795463E+04  0.92084787158E+02 0.  0.
         11    1    3    3    0    0 -0.18732359160E+03 -0.74713242450E+03  0.73213172190E+01  0.77029253495E+03  0.00000000000E+00 0.  1.
        -11    1    3    3    0    0 -0.18609931979E+03 -0.46308392961E+03 -0.24646027298E+02  0.49968701139E+03  0.00000000000E+00 0. -1.
         22    1    1    2    0    0  0.37342291140E+03  0.12102163541E+04  0.75919053788E+03  0.14766308162E+04  0.00000000000E+00 0.  1.
<mgrwt>
<rscale>  0 0.26445233E+04</rscale>
<asrwt>0</asrwt>
<pdfrwt beam="1">  1        2 0.26834432E+00 0.26445233E+04</pdfrwt>
<pdfrwt beam="2">  1       -2 0.15421112E+00 0.26445233E+04</pdfrwt>
<totfact> 0.22732236E+00</totfact>
</mgrwt>
</event>
<event>
 6    1  0.4630212E-004  0.1393361E+04  0.7818608E-02  0.8958638E-01
          2   -1    0    0  501    0  0.00000000000E+00  0.00000000000E+00  0.12095916417E+04  0.12095916417E+04  0.00000000000E+00 0.  1.
         -2   -1    0    0    0  501 -0.00000000000E+00 -0.00000000000E+00 -0.40126250905E+03  0.40126250905E+03  0.00000000000E+00 0. -1.
         23    2    1    2    0    0  0.38559018543E+03 -0.27371840245E+03 -0.18087401530E+03  0.51443980259E+03  0.91276207972E+02 0.  0.
         11    1    3    3    0    0  0.31544076599E+03 -0.24856832566E+03 -0.17952201739E+03  0.43990594915E+03  0.00000000000E+00 0. -1.
        -11    1    3    3    0    0  0.70149419442E+02 -0.25150076783E+02 -0.13519979074E+01  0.74533853440E+02  0.00000000000E+00 0.  1.
         22    1    1    2    0    0 -0.38559018543E+03  0.27371840245E+03  0.98920314793E+03  0.10964143481E+04  0.00000000000E+00 0.  1.
<mgrwt>
<rscale>  0 0.13933611E+04</rscale>
<asrwt>0</asrwt>
<pdfrwt beam="1">  1        2 0.18609102E+00 0.13933611E+04</pdfrwt>
<pdfrwt beam="2">  1       -2 0.61732694E-01 0.13933611E+04</pdfrwt>
<totfact> 0.44377424E+01</totfact>
</mgrwt>
</event>
<event>
 6    1  0.4630212E-004  0.2608407E+04  0.7818608E-02  0.8365351E-01
          2   -1    0    0  501    0  0.00000000000E+00  0.00000000000E+00  0.20878052720E+04  0.20878052720E+04  0.00000000000E+00 0.  1.
         -2   -1    0    0    0  501 -0.00000000000E+00 -0.00000000000E+00 -0.81470584684E+03  0.81470584684E+03  0.00000000000E+00 0. -1.
         23    2    1    2    0    0 -0.95098612995E+03  0.68850694463E+03  0.12652545106E+04  0.17284251020E+04  0.90376570738E+02 0.  0.
         13    1    3    3    0    0 -0.73172858336E+03  0.48144615747E+03  0.93436749346E+03  0.12807262530E+04  0.00000000000E+00 0.  1.
        -13    1    3    3    0    0 -0.21925754659E+03  0.20706078715E+03  0.33088701718E+03  0.44769884906E+03  0.00000000000E+00 0. -1.
         22    1    1    2    0    0  0.95098612995E+03 -0.68850694463E+03  0.78449145332E+01  0.11740860168E+04  0.00000000000E+00 0.  1.
<mgrwt>
<rscale>  0 0.26084073E+04</rscale>
<asrwt>0</asrwt>
<pdfrwt beam="1">  1        2 0.32120081E+00 0.26084073E+04</pdfrwt>
<pdfrwt beam="2">  1       -2 0.12533936E+00 0.26084073E+04</pdfrwt>
<totfact> 0.25125676E+00</totfact>
</mgrwt>
</event>
<event>
 6    1  0.4630212E-004  0.1918048E+04  0.7818608E-02  0.8645925E-01
          2   -1    0    0  501    0  0.00000000000E+00  0.00000000000E+00  0.13460989848E+04  0.13460989848E+04  0.00000000000E+00 0. -1.
         -2   -1    0    0    0  501 -0.00000000000E+00 -0.00000000000E+00 -0.68325346665E+03  0.68325346665E+03  0.00000000000E+00 0.  1.
         23    2    1    2    0    0 -0.18630404662E+03 -0.86057700882E+03  0.72840814832E+03  0.11464025976E+04  0.91424829051E+02 0.  0.
         11    1    3    3    0    0 -0.10892456721E+03 -0.66901501884E+03  0.53698999139E+03  0.86475655975E+03  0.00000000000E+00 0.  1.
        -11    1    3    3    0    0 -0.77379479413E+02 -0.19156198998E+03  0.19141815693E+03  0.28164603786E+03  0.00000000000E+00 0. -1.
         22    1    1    2    0    0  0.18630404662E+03  0.86057700882E+03 -0.65562630193E+02  0.88294985383E+03  0.00000000000E+00 0.  1.
<mgrwt>
<rscale>  0 0.19180478E+04</rscale>
<asrwt>0</asrwt>
<pdfrwt beam="1">  1        2 0.20709215E+00 0.19180478E+04</pdfrwt>
<pdfrwt beam="2">  1       -2 0.10511592E+00 0.19180478E+04</pdfrwt>
<totfact> 0.10658223E+01</totfact>
</mgrwt>
</event>
<event>
 6    1  0.4630212E-004  0.1047186E+04  0.7818608E-02  0.9258255E-01
         -2   -1    0    0    0  501 -0.00000000000E+00  0.00000000000E+00  0.22140603436E+03  0.22140603436E+03  0.00000000000E+00 0. -1.
          2   -1    0    0  501    0  0.00000000000E+00 -0.00000000000E+00 -0.12382200094E+04  0.12382200094E+04  0.00000000000E+00 0.  1.
         23    2    1    2    0    0  0.17839285089E+03 -0.48117112484E+03 -0.39876152740E+03  0.65629641736E+03  0.91458029019E+02 0.  0.
         13    1    3    3    0    0  0.75935095497E+02 -0.15840341223E+03 -0.18863750817E+03  0.25776324257E+03  0.00000000000E+00 0. -1.
        -13    1    3    3    0    0  0.10245775540E+03 -0.32276771261E+03 -0.21012401923E+03  0.39853317478E+03  0.00000000000E+00 0.  1.
         22    1    1    2    0    0 -0.17839285089E+03  0.48117112484E+03 -0.61805244767E+03  0.80332962643E+03  0.00000000000E+00 0.  1.
<mgrwt>
<rscale>  0 0.10471855E+04</rscale>
<asrwt>0</asrwt>
<pdfrwt beam="1">  1        2 0.19049539E+00 0.10471855E+04</pdfrwt>
<pdfrwt beam="2">  1       -2 0.34062467E-01 0.10471855E+04</pdfrwt>
<totfact> 0.14425927E+02</totfact>
</mgrwt>
</event>
<event>
 6    1  0.4630212E-004  0.3918796E+03  0.7818608E-02  0.1046628E+00
          4   -1    0    0  501    0  0.00000000000E+00  0.00000000000E+00  0.27249793833E+03  0.27249793833E+03  0.00000000000E+00 0.  1.
         -4   -1    0    0    0  501 -0.00000000000E+00 -0.00000000000E+00 -0.14089064048E+03  0.14089064048E+03  0.00000000000E+00 0. -1.
         23    2    1    2    0    0 -0.18508998049E+03 -0.55943350947E+01  0.69682095984E+02  0.21813405751E+03  0.91854641045E+02 0.  0.
         11    1    3    3    0    0 -0.14016695025E+03  0.33949797481E+02  0.64733330219E+02  0.15808151926E+03  0.00000000000E+00 0. -1.
        -11    1    3    3    0    0 -0.44923030241E+02 -0.39544132576E+02  0.49487657655E+01  0.60052538246E+02  0.00000000000E+00 0.  1.
         22    1    1    2    0    0  0.18508998049E+03  0.55943350947E+01  0.61925201864E+02  0.19525452130E+03  0.00000000000E+00 0.  1.
<mgrwt>
<rscale>  0 0.39187962E+03</rscale>
<asrwt>0</asrwt>
<pdfrwt beam="1">  1        4 0.41922760E-01 0.39187962E+03</pdfrwt>
<pdfrwt beam="2">  1       -4 0.21675483E-01 0.39187962E+03</pdfrwt>
<totfact> 0.20945580E+02</totfact>
</mgrwt>
</event>
<event>
 6    1  0.4630212E-004  0.4394646E+04  0.7818608E-02  0.7929345E-01
         -2   -1    0    0    0  501 -0.00000000000E+00  0.00000000000E+00  0.13447783696E+04  0.13447783696E+04  0.00000000000E+00 0. -1.
          2   -1    0    0  501    0  0.00000000000E+00 -0.00000000000E+00 -0.35903532605E+04  0.35903532605E+04  0.00000000000E+00 0.  1.
         23    2    1    2    0    0  0.22994987091E+03  0.20826660752E+04 -0.38367166443E+03  0.21320871160E+04  0.90645464313E+02 0.  0.
         11    1    3    3    0    0  0.12108295006E+03  0.98787244306E+03 -0.22663451880E+03  0.10207429890E+04  0.00000000000E+00 0. -1.
        -11    1    3    3    0    0  0.10886692085E+03  0.10947936321E+04 -0.15703714563E+03  0.11113441269E+04  0.00000000000E+00 0.  1.
         22    1    1    2    0    0 -0.22994987091E+03 -0.20826660752E+04 -0.18619032264E+04  0.28030445142E+04  0.00000000000E+00 0.  1.
<mgrwt>
<rscale>  0 0.43946465E+04</rscale>
<asrwt>0</asrwt>
<pdfrwt beam="1">  1        2 0.55236203E+00 0.43946465E+04</pdfrwt>
<pdfrwt beam="2">  1       -2 0.20688899E+00 0.43946465E+04</pdfrwt>
<totfact> 0.64147298E-02</totfact>
</mgrwt>
</event>
<event>
 6    1  0.4630212E-004  0.2342863E+04  0.7818608E-02  0.8461210E-01
         -2   -1    0    0    0  501 -0.00000000000E+00  0.00000000000E+00  0.15326504460E+04  0.15326504460E+04  0.00000000000E+00 0. -1.
          2   -1    0    0  501    0  0.00000000000E+00 -0.00000000000E+00 -0.89534525749E+03  0.89534525749E+03  0.00000000000E+00 0.  1.
         23    2    1    2    0    0  0.18861472888E+03  0.52432846527E+03 -0.74658767136E+03  0.93613267256E+03  0.91953108542E+02 0.  0.
         13    1    3    3    0    0  0.87995401935E+02  0.17431570777E+03 -0.20162861456E+03  0.28068354948E+03  0.00000000000E+00 0. -1.
        -13    1    3    3    0    0  0.10061932695E+03  0.35001275749E+03 -0.54495905680E+03  0.65544912308E+03  0.00000000000E+00 0.  1.
         22    1    1    2    0    0 -0.18861472888E+03 -0.52432846527E+03  0.13838928599E+04  0.14918630309E+04  0.00000000000E+00 0. -1.
<mgrwt>
<rscale>  0 0.23428626E+04</rscale>
<asrwt>0</asrwt>
<pdfrwt beam="1">  1        2 0.13774542E+00 0.23428626E+04</pdfrwt>
<pdfrwt beam="2">  1       -2 0.23579238E+00 0.23428626E+04</pdfrwt>
<totfact> 0.20986865E+00</totfact>
</mgrwt>
</event>
<event>
 6    1  0.4630212E-004  0.1995487E+04  0.7818608E-02  0.8608734E-01
         -2   -1    0    0    0  501 -0.00000000000E+00  0.00000000000E+00  0.12272442568E+04  0.12272442568E+04  0.00000000000E+00 0. -1.
          2   -1    0    0  501    0  0.00000000000E+00 -0.00000000000E+00 -0.81116056899E+03  0.81116056899E+03  0.00000000000E+00 0.  1.
         23    2    1    2    0    0 -0.18512275288E+03 -0.81740520325E+03 -0.34079518961E+03  0.90911861980E+03  0.89070778992E+02 0.  0.
         13    1    3    3    0    0 -0.58627168753E+02 -0.12389645675E+03 -0.40995315807E+02  0.14306674257E+03  0.00000000000E+00 0. -1.
        -13    1    3    3    0    0 -0.12649558412E+03 -0.69350874650E+03 -0.29979987380E+03  0.76605187723E+03  0.00000000000E+00 0.  1.
         22    1    1    2    0    0  0.18512275288E+03  0.81740520325E+03  0.75687887738E+03  0.11292862060E+04  0.00000000000E+00 0. -1.
<mgrwt>
<rscale>  0 0.19954871E+04</rscale>
<asrwt>0</asrwt>
<pdfrwt beam="1">  1        2 0.12479393E+00 0.19954871E+04</pdfrwt>
<pdfrwt beam="2">  1       -2 0.18880681E+00 0.19954871E+04</pdfrwt>
<totfact> 0.49595176E+00</totfact>
</mgrwt>
</event>
<event>
 6    1  0.4630212E-004  0.4903485E+04  0.7818608E-02  0.7843570E-01
         -1   -1    0    0    0  501 -0.00000000000E+00  0.00000000000E+00  0.15571095261E+04  0.15571095261E+04  0.00000000000E+00 0. -1.
          1   -1    0    0  501    0  0.00000000000E+00 -0.00000000000E+00 -0.38603846999E+04  0.38603846999E+04  0.00000000000E+00 0.  1.
         23    2    1    2    0    0 -0.14965783634E+04 -0.16317555670E+04  0.89894765395E+01  0.22160975244E+04  0.92921465729E+02 0.  0.
         13    1    3    3    0    0 -0.93772718818E+03 -0.10157686923E+04 -0.39167271535E+02  0.13829867645E+04  0.00000000000E+00 0.  1.
        -13    1    3    3    0    0 -0.55885117522E+03 -0.61598687470E+03  0.48156748075E+02  0.83311075989E+03  0.00000000000E+00 0. -1.
         22    1    1    2    0    0  0.14965783634E+04  0.16317555670E+04 -0.23122646503E+04  0.32013967016E+04  0.00000000000E+00 0. -1.
<mgrwt>
<rscale>  0 0.49034852E+04</rscale>
<asrwt>0</asrwt>
<pdfrwt beam="1">  1        1 0.59390533E+00 0.49034852E+04</pdfrwt>
<pdfrwt beam="2">  1       -1 0.23955532E+00 0.49034852E+04</pdfrwt>
<totfact> 0.75049209E-03</totfact>
</mgrwt>
</event>
<event>
 6    1  0.4630212E-004  0.1835597E+04  0.7818608E-02  0.8687595E-01
         -2   -1    0    0    0  501 -0.00000000000E+00  0.00000000000E+00  0.47354344493E+03  0.47354344493E+03  0.00000000000E+00 0. -1.
          2   -1    0    0  501    0  0.00000000000E+00 -0.00000000000E+00 -0.17788309558E+04  0.17788309558E+04  0.00000000000E+00 0.  1.
         23    2    1    2    0    0 -0.60798360206E+03  0.52554428598E+03 -0.11924526253E+04  0.14408495592E+04  0.90902870311E+02 0.  0.
         11    1    3    3    0    0 -0.77161675268E+02  0.10525810555E+03 -0.16505519331E+03  0.21041960401E+03  0.00000000000E+00 0.  1.
        -11    1    3    3    0    0 -0.53082192679E+03  0.42028618043E+03 -0.10273974320E+04  0.12304299552E+04  0.00000000000E+00 0. -1.
         22    1    1    2    0    0  0.60798360206E+03 -0.52554428598E+03 -0.11283488550E+03  0.81152484145E+03  0.00000000000E+00 0. -1.
<mgrwt>
<rscale>  0 0.18355966E+04</rscale>
<asrwt>0</asrwt>
<pdfrwt beam="1">  1        2 0.27366630E+00 0.18355966E+04</pdfrwt>
<pdfrwt beam="2">  1       -2 0.72852838E-01 0.18355966E+04</pdfrwt>
<totfact> 0.14209879E+01</totfact>
</mgrwt>
</event>
<event>
 6    1  0.4630212E-004  0.1990054E+04  0.7818608E-02  0.8611285E-01
          2   -1    0    0  501    0  0.00000000000E+00  0.00000000000E+00  0.17406346090E+04  0.17406346090E+04  0.00000000000E+00 0.  1.
         -2   -1    0    0    0  501 -0.00000000000E+00 -0.00000000000E+00 -0.56880350867E+03  0.56880350867E+03  0.00000000000E+00 0. -1.
         23    2    1    2    0    0 -0.86409281436E+01  0.98395523559E+03  0.74127492411E+03  0.12353705257E+04  0.91701970598E+02 0.  0.
         13    1    3    3    0    0 -0.48558634735E+02  0.46700770528E+03  0.36601866987E+03  0.59533503550E+03  0.00000000000E+00 0.  1.
        -13    1    3    3    0    0  0.39917706591E+02  0.51694753030E+03  0.37525625423E+03  0.64003549021E+03  0.00000000000E+00 0. -1.
         22    1    1    2    0    0  0.86409281436E+01 -0.98395523559E+03  0.43055617627E+03  0.10740675920E+04  0.00000000000E+00 0. -1.
<mgrwt>
<rscale>  0 0.19900543E+04</rscale>
<asrwt>0</asrwt>
<pdfrwt beam="1">  1        2 0.26778994E+00 0.19900543E+04</pdfrwt>
<pdfrwt beam="2">  1       -2 0.87508233E-01 0.19900543E+04</pdfrwt>
<totfact> 0.97583267E+00</totfact>
</mgrwt>
</event>
<event>
 6    1  0.4630212E-004  0.1370128E+04  0.7818608E-02  0.8975730E-01
         -2   -1    0    0    0  501 -0.00000000000E+00  0.00000000000E+00  0.21242372872E+04  0.21242372872E+04  0.00000000000E+00 0. -1.
          2   -1    0    0  501    0  0.00000000000E+00 -0.00000000000E+00 -0.22093242296E+03  0.22093242296E+03  0.00000000000E+00 0.  1.
         23    2    1    2    0    0  0.35376902227E+02  0.57347446871E+03  0.32736833411E+03  0.66776086362E+03  0.92790373003E+02 0.  0.
         13    1    3    3    0    0  0.47481829603E+02  0.33451019973E+03  0.23368111503E+03  0.41080221688E+03  0.00000000000E+00 0. -1.
        -13    1    3    3    0    0 -0.12104927376E+02  0.23896426898E+03  0.93687219082E+02  0.25695864674E+03  0.00000000000E+00 0.  1.
         22    1    1    2    0    0 -0.35376902227E+02 -0.57347446871E+03  0.15759365301E+04  0.16774088465E+04  0.00000000000E+00 0. -1.
<mgrwt>
<rscale>  0 0.13701283E+04</rscale>
<asrwt>0</asrwt>
<pdfrwt beam="1">  1        2 0.33989605E-01 0.13701283E+04</pdfrwt>
<pdfrwt beam="2">  1       -2 0.32680572E+00 0.13701283E+04</pdfrwt>
<totfact> 0.33026719E+00</totfact>
</mgrwt>
</event>
<event>
 6    1  0.4630212E-004  0.1778095E+04  0.7818608E-02  0.8718036E-01
          2   -1    0    0  501    0  0.00000000000E+00  0.00000000000E+00  0.17299583957E+04  0.17299583957E+04  0.00000000000E+00 0.  1.
         -2   -1    0    0    0  501 -0.00000000000E+00 -0.00000000000E+00 -0.45689291196E+03  0.45689291196E+03  0.00000000000E+00 0. -1.
         23    2    1    2    0    0 -0.34663042462E+03  0.41028934910E+03  0.15058458901E+04  0.16014653505E+04  0.92894687812E+02 0.  0.
         11    1    3    3    0    0 -0.19056821087E+03  0.17792000417E+03  0.82878401958E+03  0.86882375772E+03  0.00000000000E+00 0.  1.
        -11    1    3    3    0    0 -0.15606221375E+03  0.23236934492E+03  0.67706187049E+03  0.73264159279E+03  0.00000000000E+00 0. -1.
         22    1    1    2    0    0  0.34663042462E+03 -0.41028934910E+03 -0.23278040632E+03  0.58538595714E+03  0.00000000000E+00 0. -1.
<mgrwt>
<rscale>  0 0.17780953E+04</rscale>
<asrwt>0</asrwt>
<pdfrwt beam="1">  1        2 0.26614744E+00 0.17780953E+04</pdfrwt>
<pdfrwt beam="2">  1       -2 0.70291218E-01 0.17780953E+04</pdfrwt>
<totfact> 0.16439708E+01</totfact>
</mgrwt>
</event>
<event>
 6    1  0.4630212E-004  0.2098959E+04  0.7818608E-02  0.8561702E-01
          2   -1    0    0  501    0  0.00000000000E+00  0.00000000000E+00  0.10578926223E+04  0.10578926223E+04  0.00000000000E+00 0.  1.
         -2   -1    0    0    0  501 -0.00000000000E+00 -0.00000000000E+00 -0.10411337805E+04  0.10411337805E+04  0.00000000000E+00 0. -1.
         23    2    1    2    0    0 -0.47521954408E+03 -0.66719129296E+03  0.65981926927E+03  0.10576309208E+04  0.11065197709E+03 0.  0.
         13    1    3    3    0    0 -0.22523646326E+03 -0.38681325142E+03  0.31132669248E+03  0.54523413807E+03  0.00000000000E+00 0. -1.
        -13    1    3    3    0    0 -0.24998308082E+03 -0.28037804154E+03  0.34849257679E+03  0.51239678273E+03  0.00000000000E+00 0.  1.
         22    1    1    2    0    0  0.47521954408E+03  0.66719129296E+03 -0.64306042750E+03  0.10413954820E+04  0.00000000000E+00 0. -1.
<mgrwt>
<rscale>  0 0.20989595E+04</rscale>
<asrwt>0</asrwt>
<pdfrwt beam="1">  1        2 0.16275271E+00 0.20989595E+04</pdfrwt>
<pdfrwt beam="2">  1       -2 0.16017443E+00 0.20989595E+04</pdfrwt>
<totfact> 0.53561359E+00</totfact>
</mgrwt>
</event>
<event>
 6    1  0.4630212E-004  0.7254036E+03  0.7818608E-02  0.9674749E-01
         -2   -1    0    0    0  501 -0.00000000000E+00  0.00000000000E+00  0.91296196102E+02  0.91296196102E+02  0.00000000000E+00 0. -1.
          2   -1    0    0  501    0  0.00000000000E+00 -0.00000000000E+00 -0.14409426534E+04  0.14409426534E+04  0.00000000000E+00 0.  1.
         23    2    1    2    0    0 -0.24105020555E+03 -0.17275385164E+02 -0.13069278939E+03  0.28955961292E+03  0.91435899449E+02 0.  0.
         11    1    3    3    0    0 -0.12377804007E+03 -0.39900892074E+02 -0.30293951869E+02  0.13353204826E+03  0.00000000000E+00 0. -1.
        -11    1    3    3    0    0 -0.11727216548E+03  0.22625506909E+02 -0.10039883752E+03  0.15602756466E+03  0.00000000000E+00 0.  1.
         22    1    1    2    0    0  0.24105020555E+03  0.17275385164E+02 -0.12189536679E+04  0.12426792366E+04  0.00000000000E+00 0.  1.
<mgrwt>
<rscale>  0 0.72540357E+03</rscale>
<asrwt>0</asrwt>
<pdfrwt beam="1">  1        2 0.22168347E+00 0.72540357E+03</pdfrwt>
<pdfrwt beam="2">  1       -2 0.14045569E-01 0.72540357E+03</pdfrwt>
<totfact> 0.54349634E+02</totfact>
</mgrwt>
</event>
<event>
 6    1  0.4765026E-004  0.2230814E+04  0.7818608E-02  0.8505711E-01
         -2   -1    0    0    0  501 -0.00000000000E+00  0.00000000000E+00  0.71915789691E+03  0.71915789691E+03  0.00000000000E+00 0. -1.
          2   -1    0    0  501    0  0.00000000000E+00 -0.00000000000E+00 -0.17299855525E+04  0.17299855525E+04  0.00000000000E+00 0.  1.
         23    2    1    2    0    0  0.34345768146E+02  0.10215967835E+04 -0.99131172856E+03  0.14267831943E+04  0.90397568899E+02 0.  0.
         13    1    3    3    0    0  0.99282433417E+01  0.61530729334E+03 -0.53624058618E+03  0.81624481715E+03  0.00000000000E+00 0. -1.
        -13    1    3    3    0    0  0.24417524804E+02  0.40628949019E+03 -0.45507114237E+03  0.61053837716E+03  0.00000000000E+00 0.  1.
         22    1    1    2    0    0 -0.34345768146E+02 -0.10215967835E+04 -0.19515927084E+02  0.10223602552E+04  0.00000000000E+00 0. -1.
<mgrwt>
<rscale>  0 0.22308140E+04</rscale>
<asrwt>0</asrwt>
<pdfrwt beam="1">  1        2 0.26615162E+00 0.22308140E+04</pdfrwt>
<pdfrwt beam="2">  1       -2 0.11063968E+00 0.22308140E+04</pdfrwt>
<totfact> 0.55746654E+00</totfact>
</mgrwt>
</event>
<event>
 6    1  0.4630212E-004  0.2619485E+04  0.7818608E-02  0.8361613E-01
          2   -1    0    0  501    0  0.00000000000E+00  0.00000000000E+00  0.15250202415E+04  0.15250202415E+04  0.00000000000E+00 0.  1.
         -2   -1    0    0    0  501 -0.00000000000E+00 -0.00000000000E+00 -0.11248540471E+04  0.11248540471E+04  0.00000000000E+00 0. -1.
         23    2    1    2    0    0  0.12270403969E+04  0.45066848248E+03  0.26529573565E+03  0.13357509087E+04  0.71543314276E+02 0.  0.
         13    1    3    3    0    0  0.93489538899E+03  0.37540804323E+03  0.20564433466E+03  0.10282267161E+04  0.00000000000E+00 0.  1.
        -13    1    3    3    0    0  0.29214500795E+03  0.75260439255E+02  0.59651400982E+02  0.30752419259E+03  0.00000000000E+00 0. -1.
         22    1    1    2    0    0 -0.12270403969E+04 -0.45066848248E+03  0.13487045877E+03  0.13141233799E+04  0.00000000000E+00 0.  1.
<mgrwt>
<rscale>  0 0.26194848E+04</rscale>
<asrwt>0</asrwt>
<pdfrwt beam="1">  1        2 0.23461850E+00 0.26194848E+04</pdfrwt>
<pdfrwt beam="2">  1       -2 0.17305447E+00 0.26194848E+04</pdfrwt>
<totfact> 0.22008109E+00</totfact>
</mgrwt>
</event>
<event>
 6    1  0.4630212E-004  0.8498858E+03  0.7818608E-02  0.9490490E-01
          2   -1    0    0  501    0  0.00000000000E+00  0.00000000000E+00  0.11916459213E+04  0.11916459213E+04  0.00000000000E+00 0.  1.
         -2   -1    0    0    0  501 -0.00000000000E+00 -0.00000000000E+00 -0.15153532740E+03  0.15153532740E+03  0.00000000000E+00 0. -1.
         23    2    1    2    0    0  0.36334879065E+03 -0.70465476720E+02  0.21227400228E+03  0.43637302780E+03  0.91506503991E+02 0.  0.
         11    1    3    3    0    0  0.98659329935E+02  0.70731908163E+01  0.93373210980E+02  0.13602297578E+03  0.00000000000E+00 0.  1.
        -11    1    3    3    0    0  0.26468946072E+03 -0.77538667537E+02  0.11890079130E+03  0.30035005202E+03  0.00000000000E+00 0. -1.
         22    1    1    2    0    0 -0.36334879065E+03  0.70465476720E+02  0.82783659166E+03  0.90680822094E+03  0.00000000000E+00 0.  1.
<mgrwt>
<rscale>  0 0.84988577E+03</rscale>
<asrwt>0</asrwt>
<pdfrwt beam="1">  1        2 0.18333014E+00 0.84988577E+03</pdfrwt>
<pdfrwt beam="2">  1       -2 0.23313128E-01 0.84988577E+03</pdfrwt>
<totfact> 0.31272642E+02</totfact>
</mgrwt>
</event>
<event>
 6    1  0.4630212E-004  0.1501210E+04  0.7818608E-02  0.8883649E-01
          2   -1    0    0  501    0  0.00000000000E+00  0.00000000000E+00  0.43150286645E+04  0.43150286645E+04  0.00000000000E+00 0.  1.
         -2   -1    0    0    0  501 -0.00000000000E+00 -0.00000000000E+00 -0.13056876558E+03  0.13056876558E+03  0.00000000000E+00 0. -1.
         23    2    1    2    0    0 -0.11231136506E+02  0.62887981807E+03  0.90169402149E+03  0.11031181452E+04  0.90562518884E+02 0.  0.
         13    1    3    3    0    0  0.20386789839E+02  0.54714263061E+03  0.76517952264E+03  0.94089339529E+03  0.00000000000E+00 0.  1.
        -13    1    3    3    0    0 -0.31617926346E+02  0.81737187463E+02  0.13651449885E+03  0.16222474989E+03  0.00000000000E+00 0. -1.
         22    1    1    2    0    0  0.11231136506E+02 -0.62887981807E+03  0.32827658774E+04  0.33424792849E+04  0.00000000000E+00 0.  1.
<mgrwt>
<rscale>  0 0.15012101E+04</rscale>
<asrwt>0</asrwt>
<pdfrwt beam="1">  1        2 0.66385045E+00 0.15012101E+04</pdfrwt>
<pdfrwt beam="2">  1       -2 0.20087506E-01 0.15012101E+04</pdfrwt>
<totfact> 0.38853949E+00</totfact>
</mgrwt>
</event>
<event>
 6    1  0.4630212E-004  0.2814984E+04  0.7818608E-02  0.8298631E-01
         -2   -1    0    0    0  501 -0.00000000000E+00  0.00000000000E+00  0.16935564036E+04  0.16935564036E+04  0.00000000000E+00 0. -1.
          2   -1    0    0  501    0  0.00000000000E+00 -0.00000000000E+00 -0.11697478394E+04  0.11697478394E+04  0.00000000000E+00 0.  1.
         23    2    1    2    0    0  0.38649558683E+03 -0.34421060577E+03 -0.10675660655E+04  0.11898846926E+04  0.90931279913E+02 0.  0.
         13    1    3    3    0    0  0.25350390528E+03 -0.21868354105E+03 -0.58798521689E+03  0.67661904821E+03  0.00000000000E+00 0.  1.
        -13    1    3    3    0    0  0.13299168155E+03 -0.12552706472E+03 -0.47958084860E+03  0.51326564436E+03  0.00000000000E+00 0. -1.
         22    1    1    2    0    0 -0.38649558683E+03  0.34421060577E+03  0.15913746297E+04  0.16734195504E+04  0.00000000000E+00 0. -1.
<mgrwt>
<rscale>  0 0.28149842E+04</rscale>
<asrwt>0</asrwt>
<pdfrwt beam="1">  1        2 0.17996121E+00 0.28149842E+04</pdfrwt>
<pdfrwt beam="2">  1       -2 0.26054714E+00 0.28149842E+04</pdfrwt>
<totfact> 0.95032053E-01</totfact>
</mgrwt>
</event>
<event>
 6    1  0.4630212E-004  0.3773041E+04  0.7818608E-02  0.8051965E-01
          2   -1    0    0  501    0  0.00000000000E+00  0.00000000000E+00  0.15835623879E+04  0.15835623879E+04  0.00000000000E+00 0. -1.
         -2   -1    0    0    0  501 -0.00000000000E+00 -0.00000000000E+00 -0.22474385217E+04  0.22474385217E+04  0.00000000000E+00 0.  1.
         23    2    1    2    0    0 -0.61938801121E+03  0.73885273313E+03 -0.19772930592E+04  0.22017038558E+04  0.90923907609E+02 0.  0.
         13    1    3    3    0    0 -0.31255313691E+03  0.39455564240E+03 -0.93325908890E+03  0.10603471815E+04  0.00000000000E+00 0.  1.
        -13    1    3    3    0    0 -0.30683487430E+03  0.34429709072E+03 -0.10440339703E+04  0.11413566742E+04  0.00000000000E+00 0. -1.
         22    1    1    2    0    0  0.61938801121E+03 -0.73885273313E+03  0.13134169254E+04  0.16292970538E+04  0.00000000000E+00 0. -1.
<mgrwt>
<rscale>  0 0.37730407E+04</rscale>
<asrwt>0</asrwt>
<pdfrwt beam="1">  1        2 0.24362498E+00 0.37730407E+04</pdfrwt>
<pdfrwt beam="2">  1       -2 0.34575977E+00 0.37730407E+04</pdfrwt>
<totfact> 0.15139557E-01</totfact>
</mgrwt>
</event>
<event>
 6    1  0.4630212E-004  0.1588090E+04  0.7818608E-02  0.8827898E-01
          2   -1    0    0  501    0  0.00000000000E+00  0.00000000000E+00  0.14581387671E+04  0.14581387671E+04  0.00000000000E+00 0.  1.
         -2   -1    0    0    0  501 -0.00000000000E+00 -0.00000000000E+00 -0.43240559500E+03  0.43240559500E+03  0.00000000000E+00 0. -1.
         23    2    1    2    0    0 -0.28844815750E+03  0.71578526570E+03  0.72350299134E+03  0.10617536960E+04  0.91178101754E+02 0.  0.
         11    1    3    3    0    0 -0.19177485472E+03  0.45800294728E+03  0.52304765304E+03  0.72119563363E+03  0.00000000000E+00 0. -1.
        -11    1    3    3    0    0 -0.96673302777E+02  0.25778231842E+03  0.20045533830E+03  0.34055806232E+03  0.00000000000E+00 0.  1.
         22    1    1    2    0    0  0.28844815750E+03 -0.71578526570E+03  0.30223018081E+03  0.82879066618E+03  0.00000000000E+00 0. -1.
<mgrwt>
<rscale>  0 0.15880899E+04</rscale>
<asrwt>0</asrwt>
<pdfrwt beam="1">  1        2 0.22432904E+00 0.15880899E+04</pdfrwt>
<pdfrwt beam="2">  1       -2 0.66523938E-01 0.15880899E+04</pdfrwt>
<totfact> 0.26719720E+01</totfact>
</mgrwt>
</event>
<event>
 6    1  0.4630212E-004  0.2381481E+04  0.7818608E-02  0.8446469E-01
          2   -1    0    0  501    0  0.00000000000E+00  0.00000000000E+00  0.15669705775E+04  0.15669705775E+04  0.00000000000E+00 0.  1.
         -2   -1    0    0    0  501 -0.00000000000E+00 -0.00000000000E+00 -0.90484367403E+03  0.90484367403E+03  0.00000000000E+00 0. -1.
         23    2    1    2    0    0 -0.83235346062E+03 -0.55753413625E+03  0.99731279574E+03  0.14154023154E+04  0.71234158896E+02 0.  0.
         13    1    3    3    0    0 -0.71607691674E+03 -0.44881445544E+03  0.84511509555E+03  0.11951652985E+04  0.00000000000E+00 0.  1.
        -13    1    3    3    0    0 -0.11627654388E+03 -0.10871968081E+03  0.15219770019E+03  0.22023701686E+03  0.00000000000E+00 0. -1.
         22    1    1    2    0    0  0.83235346062E+03  0.55753413625E+03 -0.33518589225E+03  0.10564119362E+04  0.00000000000E+00 0. -1.
<mgrwt>
<rscale>  0 0.23814814E+04</rscale>
<asrwt>0</asrwt>
<pdfrwt beam="1">  1        2 0.24107240E+00 0.23814814E+04</pdfrwt>
<pdfrwt beam="2">  1       -2 0.13920672E+00 0.23814814E+04</pdfrwt>
<totfact> 0.38209907E+00</totfact>
</mgrwt>
</event>
<event>
 6    1  0.4630212E-004  0.1825608E+04  0.7818608E-02  0.8692799E-01
         -2   -1    0    0    0  501 -0.00000000000E+00  0.00000000000E+00  0.49121666756E+03  0.49121666756E+03  0.00000000000E+00 0. -1.
          2   -1    0    0  501    0  0.00000000000E+00 -0.00000000000E+00 -0.16962182756E+04  0.16962182756E+04  0.00000000000E+00 0.  1.
         23    2    1    2    0    0  0.67843175192E+03  0.35887895721E+03 -0.17272353030E+02  0.77330463405E+03  0.92940706539E+02 0.  0.
         11    1    3    3    0    0  0.17502035147E+03  0.75306824284E+02  0.32865166411E+02  0.19334777055E+03  0.00000000000E+00 0. -1.
        -11    1    3    3    0    0  0.50341140045E+03  0.28357213292E+03 -0.50137519440E+02  0.57995686350E+03  0.00000000000E+00 0.  1.
         22    1    1    2    0    0 -0.67843175192E+03 -0.35887895721E+03 -0.11877292550E+04  0.14141303091E+04  0.00000000000E+00 0.  1.
<mgrwt>
<rscale>  0 0.18256075E+04</rscale>
<asrwt>0</asrwt>
<pdfrwt beam="1">  1        2 0.26095665E+00 0.18256075E+04</pdfrwt>
<pdfrwt beam="2">  1       -2 0.75571796E-01 0.18256075E+04</pdfrwt>
<totfact> 0.14576069E+01</totfact>
</mgrwt>
</event>
<event>
 6    1  0.4630212E-004  0.1891377E+04  0.7818608E-02  0.8659160E-01
          2   -1    0    0  501    0  0.00000000000E+00  0.00000000000E+00  0.61992929818E+03  0.61992929818E+03  0.00000000000E+00 0.  1.
         -2   -1    0    0    0  501 -0.00000000000E+00 -0.00000000000E+00 -0.14426271732E+04  0.14426271732E+04  0.00000000000E+00 0. -1.
         23    2    1    2    0    0 -0.16067923237E+03  0.55961081332E+03  0.39725726757E+03  0.71078998709E+03  0.91798643885E+02 0.  0.
         11    1    3    3    0    0 -0.52841529247E+02  0.33702660134E+03  0.21039403907E+03  0.40080520069E+03  0.00000000000E+00 0.  1.
        -11    1    3    3    0    0 -0.10783770312E+03  0.22258421197E+03  0.18686322850E+03  0.30998478640E+03  0.00000000000E+00 0. -1.
         22    1    1    2    0    0  0.16067923237E+03 -0.55961081332E+03 -0.12199551426E+04  0.13517664843E+04  0.00000000000E+00 0. -1.
<mgrwt>
<rscale>  0 0.18913771E+04</rscale>
<asrwt>0</asrwt>
<pdfrwt beam="1">  1        2 0.95373740E-01 0.18913771E+04</pdfrwt>
<pdfrwt beam="2">  1       -2 0.22194264E+00 0.18913771E+04</pdfrwt>
<totfact> 0.42890476E+00</totfact>
</mgrwt>
</event>
<event>
 6    1  0.4630212E-004  0.2740965E+04  0.7818608E-02  0.8321834E-01
         -2   -1    0    0    0  501 -0.00000000000E+00  0.00000000000E+00  0.12019891745E+04  0.12019891745E+04  0.00000000000E+00 0. -1.
          2   -1    0    0  501    0  0.00000000000E+00 -0.00000000000E+00 -0.15625950753E+04  0.15625950753E+04  0.00000000000E+00 0.  1.
         23    2    1    2    0    0 -0.11517746282E+04  0.19193216130E+03  0.54037652745E+03  0.12897310080E+04  0.89311437415E+02 0.  0.
         13    1    3    3    0    0 -0.46378782392E+03  0.44924535400E+02  0.24836179775E+03  0.52801604339E+03  0.00000000000E+00 0.  1.
        -13    1    3    3    0    0 -0.68798680431E+03  0.14700762590E+03  0.29201472971E+03  0.76171496464E+03  0.00000000000E+00 0. -1.
         22    1    1    2    0    0  0.11517746282E+04 -0.19193216130E+03 -0.90098242829E+03  0.14748532418E+04  0.00000000000E+00 0.  1.
<mgrwt>
<rscale>  0 0.27409651E+04</rscale>
<asrwt>0</asrwt>
<pdfrwt beam="1">  1        2 0.24039924E+00 0.27409651E+04</pdfrwt>
<pdfrwt beam="2">  1       -2 0.18492141E+00 0.27409651E+04</pdfrwt>
<totfact> 0.17169839E+00</totfact>
</mgrwt>
</event>
<event>
 6    1  0.4630212E-004  0.1933519E+04  0.7818608E-02  0.8638349E-01
          2   -1    0    0  501    0  0.00000000000E+00  0.00000000000E+00  0.28307856561E+04  0.28307856561E+04  0.00000000000E+00 0.  1.
         -2   -1    0    0    0  501 -0.00000000000E+00 -0.00000000000E+00 -0.33016423859E+03  0.33016423859E+03  0.00000000000E+00 0. -1.
         23    2    1    2    0    0 -0.71486567865E+03 -0.56906518355E+03  0.17586026926E+04  0.19838942844E+04  0.91021862856E+02 0.  0.
         13    1    3    3    0    0 -0.35901910975E+03 -0.34138639261E+03  0.97701767793E+03  0.10954464538E+04  0.00000000000E+00 0. -1.
        -13    1    3    3    0    0 -0.35584656890E+03 -0.22767879094E+03  0.78158501469E+03  0.88844783056E+03  0.00000000000E+00 0.  1.
         22    1    1    2    0    0  0.71486567865E+03  0.56906518355E+03  0.74201872486E+03  0.11770556103E+04  0.00000000000E+00 0.  1.
<mgrwt>
<rscale>  0 0.19335193E+04</rscale>
<asrwt>0</asrwt>
<pdfrwt beam="1">  1        2 0.43550547E+00 0.19335193E+04</pdfrwt>
<pdfrwt beam="2">  1       -2 0.50794500E-01 0.19335193E+04</pdfrwt>
<totfact> 0.75957294E+00</totfact>
</mgrwt>
</event>
<event>
 6    1  0.4630212E-004  0.2490800E+04  0.7818608E-02  0.8406270E-01
         -2   -1    0    0    0  501 -0.00000000000E+00  0.00000000000E+00  0.68716824536E+03  0.68716824536E+03  0.00000000000E+00 0. -1.
          2   -1    0    0  501    0  0.00000000000E+00 -0.00000000000E+00 -0.22571206661E+04  0.22571206661E+04  0.00000000000E+00 0.  1.
         23    2    1    2    0    0 -0.69411645128E+03 -0.10269119054E+04 -0.89490627156E+03  0.15328949151E+04  0.11208869936E+03 0.  0.
         11    1    3    3    0    0 -0.24855815994E+03 -0.35092814332E+03 -0.24681131660E+03  0.49583015907E+03  0.00000000000E+00 0. -1.
        -11    1    3    3    0    0 -0.44555829134E+03 -0.67598376208E+03 -0.64809495497E+03  0.10370647560E+04  0.00000000000E+00 0.  1.
         22    1    1    2    0    0  0.69411645128E+03  0.10269119054E+04 -0.67504614917E+03  0.14113939963E+04  0.00000000000E+00 0.  1.
<mgrwt>
<rscale>  0 0.24908004E+04</rscale>
<asrwt>0</asrwt>
<pdfrwt beam="1">  1        2 0.34724933E+00 0.24908004E+04</pdfrwt>
<pdfrwt beam="2">  1       -2 0.10571819E+00 0.24908004E+04</pdfrwt>
<totfact> 0.30940858E+00</totfact>
</mgrwt>
</event>
<event>
 6    1  0.4630212E-004  0.2767817E+04  0.7818608E-02  0.8313330E-01
          2   -1    0    0  501    0  0.00000000000E+00  0.00000000000E+00  0.15040295880E+04  0.15040295880E+04  0.00000000000E+00 0.  1.
         -2   -1    0    0    0  501 -0.00000000000E+00 -0.00000000000E+00 -0.12733814297E+04  0.12733814297E+04  0.00000000000E+00 0. -1.
         23    2    1    2    0    0 -0.92148945778E+03 -0.90283928211E+03  0.61391168413E+03  0.14316203504E+04  0.91584286792E+02 0.  0.
         11    1    3    3    0    0 -0.51834586445E+03 -0.48709682472E+03  0.29058202393E+03  0.76836427850E+03  0.00000000000E+00 0. -1.
        -11    1    3    3    0    0 -0.40314359334E+03 -0.41574245739E+03  0.32332966019E+03  0.66325607188E+03  0.00000000000E+00 0.  1.
         22    1    1    2    0    0  0.92148945778E+03  0.90283928211E+03 -0.38326352580E+03  0.13457906674E+04  0.00000000000E+00 0. -1.
<mgrwt>
<rscale>  0 0.27678174E+04</rscale>
<asrwt>0</asrwt>
<pdfrwt beam="1">  1        2 0.23138917E+00 0.27678174E+04</pdfrwt>
<pdfrwt beam="2">  1       -2 0.19590483E+00 0.27678174E+04</pdfrwt>
<totfact> 0.15595545E+00</totfact>
</mgrwt>
</event>
<event>
 6    1  0.4630212E-004  0.2126344E+04  0.7818608E-02  0.8549727E-01
          2   -1    0    0  501    0  0.00000000000E+00  0.00000000000E+00  0.18826022245E+04  0.18826022245E+04  0.00000000000E+00 0.  1.
         -2   -1    0    0    0  501 -0.00000000000E+00 -0.00000000000E+00 -0.60041079981E+03  0.60041079981E+03  0.00000000000E+00 0. -1.
         23    2    1    2    0    0 -0.75782018570E+03 -0.16876672673E+03 -0.20223528846E+03  0.80781264567E+03  0.94278930257E+02 0.  0.
         11    1    3    3    0    0 -0.16982002907E+03 -0.78130222051E+02 -0.56415633556E+02  0.19525854035E+03  0.00000000000E+00 0.  1.
        -11    1    3    3    0    0 -0.58800015664E+03 -0.90636504684E+02 -0.14581965491E+03  0.61255410532E+03  0.00000000000E+00 0. -1.
         22    1    1    2    0    0  0.75782018570E+03  0.16876672673E+03  0.14844267132E+04  0.16752003787E+04  0.00000000000E+00 0.  1.
<mgrwt>
<rscale>  0 0.21263440E+04</rscale>
<asrwt>0</asrwt>
<pdfrwt beam="1">  1        2 0.28963111E+00 0.21263440E+04</pdfrwt>
<pdfrwt beam="2">  1       -2 0.92370893E-01 0.21263440E+04</pdfrwt>
<totfact> 0.71039080E+00</totfact>
</mgrwt>
</event>
<event>
 6    1  0.4630212E-004  0.7886655E+03  0.7818608E-02  0.9576570E-01
         -2   -1    0    0    0  501 -0.00000000000E+00  0.00000000000E+00  0.31819515637E+02  0.31819515637E+02  0.00000000000E+00 0. -1.
          2   -1    0    0  501    0  0.00000000000E+00 -0.00000000000E+00 -0.48868853536E+04  0.48868853536E+04  0.00000000000E+00 0.  1.
         23    2    1    2    0    0  0.14667299662E+03  0.20850708137E+03 -0.42925886008E+04  0.43011542128E+04  0.92857394892E+02 0.  0.
         11    1    3    3    0    0  0.82993906008E+02  0.17904056167E+03 -0.28211762105E+04  0.28280697873E+04  0.00000000000E+00 0. -1.
        -11    1    3    3    0    0  0.63679090613E+02  0.29466519704E+02 -0.14714123903E+04  0.14730844255E+04  0.00000000000E+00 0.  1.
         22    1    1    2    0    0 -0.14667299662E+03 -0.20850708137E+03 -0.56247723718E+03  0.61755065644E+03  0.00000000000E+00 0. -1.
<mgrwt>
<rscale>  0 0.78866552E+03</rscale>
<asrwt>0</asrwt>
<pdfrwt beam="1">  1        2 0.75182719E+00 0.78866552E+03</pdfrwt>
<pdfrwt beam="2">  1       -2 0.48953187E-02 0.78866552E+03</pdfrwt>
<totfact> 0.11617425E+01</totfact>
</mgrwt>
</event>
<event>
 6    1  0.4630212E-004  0.1220526E+04  0.7818608E-02  0.9095077E-01
         -2   -1    0    0    0  501 -0.00000000000E+00  0.00000000000E+00  0.63997708366E+03  0.63997708366E+03  0.00000000000E+00 0. -1.
          2   -1    0    0  501    0  0.00000000000E+00 -0.00000000000E+00 -0.58192860494E+03  0.58192860494E+03  0.00000000000E+00 0.  1.
         23    2    1    2    0    0 -0.17613069449E+03  0.14214120100E+03 -0.53440976831E+03  0.58768733736E+03  0.92501153864E+02 0.  0.
         13    1    3    3    0    0 -0.41562704348E+02  0.13483176862E+02 -0.20218891229E+03  0.20685649785E+03  0.00000000000E+00 0.  1.
        -13    1    3    3    0    0 -0.13456799014E+03  0.12865802414E+03 -0.33222085603E+03  0.38083083951E+03  0.00000000000E+00 0. -1.
         22    1    1    2    0    0  0.17613069449E+03 -0.14214120100E+03  0.59245824704E+03  0.63421835124E+03  0.00000000000E+00 0. -1.
<mgrwt>
<rscale>  0 0.12205261E+04</rscale>
<asrwt>0</asrwt>
<pdfrwt beam="1">  1        2 0.89527478E-01 0.12205261E+04</pdfrwt>
<pdfrwt beam="2">  1       -2 0.98458013E-01 0.12205261E+04</pdfrwt>
<totfact> 0.43468196E+01</totfact>
</mgrwt>
</event>
<event>
 6    1  0.4630212E-004  0.1610893E+04  0.7818608E-02  0.8813884E-01
         -2   -1    0    0    0  501 -0.00000000000E+00  0.00000000000E+00  0.23163264666E+03  0.23163264666E+03  0.00000000000E+00 0. -1.
          2   -1    0    0  501    0  0.00000000000E+00 -0.00000000000E+00 -0.28007443843E+04  0.28007443843E+04  0.00000000000E+00 0.  1.
         23    2    1    2    0    0 -0.52660744316E+03  0.33440418863E+03 -0.22401238913E+04  0.23271291571E+04  0.90738661514E+02 0.  0.
         13    1    3    3    0    0 -0.44578824939E+03  0.24611340793E+03 -0.18729380272E+04  0.19409265382E+04  0.00000000000E+00 0. -1.
        -13    1    3    3    0    0 -0.80819193772E+02  0.88290780699E+02 -0.36718586410E+03  0.38620261889E+03  0.00000000000E+00 0.  1.
         22    1    1    2    0    0  0.52660744316E+03 -0.33440418863E+03 -0.32898784630E+03  0.70524787385E+03  0.00000000000E+00 0. -1.
<mgrwt>
<rscale>  0 0.16108927E+04</rscale>
<asrwt>0</asrwt>
<pdfrwt beam="1">  1        2 0.43088377E+00 0.16108927E+04</pdfrwt>
<pdfrwt beam="2">  1       -2 0.35635790E-01 0.16108927E+04</pdfrwt>
<totfact> 0.16447589E+01</totfact>
</mgrwt>
</event>
<event>
 6    1  0.4630212E-004  0.1320904E+04  0.7818608E-02  0.9013151E-01
          2   -1    0    0  501    0  0.00000000000E+00  0.00000000000E+00  0.25748343453E+04  0.25748343453E+04  0.00000000000E+00 0.  1.
         -2   -1    0    0    0  501 -0.00000000000E+00 -0.00000000000E+00 -0.16940765771E+03  0.16940765771E+03  0.00000000000E+00 0. -1.
         23    2    1    2    0    0  0.60076928843E+03  0.26650589145E+03  0.11951036648E+04  0.13669871437E+04  0.91825667555E+02 0.  0.
         13    1    3    3    0    0  0.39412467592E+03  0.12672293452E+03  0.75895609190E+03  0.86452721862E+03  0.00000000000E+00 0.  1.
        -13    1    3    3    0    0  0.20664461251E+03  0.13978295693E+03  0.43614757293E+03  0.50245992507E+03  0.00000000000E+00 0. -1.
         22    1    1    2    0    0 -0.60076928843E+03 -0.26650589145E+03  0.12103230227E+04  0.13772548593E+04  0.00000000000E+00 0. -1.
<mgrwt>
<rscale>  0 0.13209037E+04</rscale>
<asrwt>0</asrwt>
<pdfrwt beam="1">  1        2 0.39612833E+00 0.13209037E+04</pdfrwt>
<pdfrwt beam="2">  1       -2 0.26062718E-01 0.13209037E+04</pdfrwt>
<totfact> 0.41199010E+01</totfact>
</mgrwt>
</event>
