<event>
 6    1  0.5040916E-004  0.3920440E+04  0.7818608E-02  0.8020791E-01
         -2   -1    0    0    0  501 -0.00000000000E+00  0.00000000000E+00  0.15019911588E+04  0.15019911588E+04  0.00000000000E+00 0. -1.
          2   -1    0    0  501    0  0.00000000000E+00 -0.00000000000E+00 -0.25582454697E+04  0.25582454697E+04  0.00000000000E+00 0.  1.
         23    2    1    2    0    0 -0.76870247403E+03  0.15180662389E+04 -0.15340150247E+04  0.22928419644E+04  0.92160611773E+02 0.  0.
         11    1    3    3    0    0 -0.64338493064E+03  0.12233119530E+04 -0.12835535488E+04  0.18862518432E+04  0.00000000000E+00 0. -1.
        -11    1    3    3    0    0 -0.12531754339E+03  0.29475428589E+03 -0.25046147593E+03  0.40659012120E+03  0.00000000000E+00 0.  1.
         22    1    1    2    0    0  0.76870247403E+03 -0.15180662389E+04  0.47776071381E+03  0.17673946641E+04  0.00000000000E+00 0.  1.
<mgrwt>
<rscale>  0 0.39204398E+04</rscale>
<asrwt>0</asrwt>
<pdfrwt beam="1">  1        2 0.39357622E+00 0.39204398E+04</pdfrwt>
<pdfrwt beam="2">  1       -2 0.23107556E+00 0.39204398E+04</pdfrwt>
<totfact> 0.21518386E-01</totfact>
</mgrwt>
</event>
<event>
 6    1  0.5040916E-004  0.3698194E+04  0.7818608E-02  0.8068362E-01
         -2   -1    0    0    0  501 -0.00000000000E+00  0.00000000000E+00  0.10756991042E+04  0.10756991042E+04  0.00000000000E+00 0. -1.
          2   -1    0    0  501    0  0.00000000000E+00 -0.00000000000E+00 -0.31785472351E+04  0.31785472351E+04  0.00000000000E+00 0.  1.
         23    2    1    2    0    0 -0.59639000881E+03  0.36319429554E+02 -0.30637047552E+04  0.31227669555E+04  0.91577770412E+02 0.  0.
         11    1    3    3    0    0 -0.34062435749E+03  0.66000296524E+02 -0.17430901828E+04  0.17772856769E+04  0.00000000000E+00 0.  1.
        -11    1    3    3    0    0 -0.25576565133E+03 -0.29680866970E+02 -0.13206145724E+04  0.13454812786E+04  0.00000000000E+00 0. -1.
         22    1    1    2    0    0  0.59639000881E+03 -0.36319429554E+02  0.96085662426E+03  0.11314793838E+04  0.00000000000E+00 0. -1.
<mgrwt>
<rscale>  0 0.36981944E+04</rscale>
<asrwt>0</asrwt>
<pdfrwt beam="1">  1        2 0.48900726E+00 0.36981944E+04</pdfrwt>
<pdfrwt beam="2">  1       -2 0.16549217E+00 0.36981944E+04</pdfrwt>
<totfact> 0.24837731E-01</totfact>
</mgrwt>
</event>
<event>
 6    1  0.5040916E-004  0.3619785E+03  0.7818608E-02  0.1057803E+00
         -4   -1    0    0    0  501 -0.00000000000E+00  0.00000000000E+00  0.14318943512E+03  0.14318943512E+03  0.00000000000E+00 0. -1.
          4   -1    0    0  501    0  0.00000000000E+00 -0.00000000000E+00 -0.22876768629E+03  0.22876768629E+03  0.00000000000E+00 0.  1.
         23    2    1    2    0    0 -0.15268309431E+02  0.97103351153E+02  0.93665963842E+02  0.16752945525E+03  0.98135740254E+02 0.  0.
         13    1    3    3    0    0  0.32803389768E+02  0.71280459599E+02  0.30828132929E+02  0.84305041847E+02  0.00000000000E+00 0. -1.
        -13    1    3    3    0    0 -0.48071699199E+02  0.25822891554E+02  0.62837830913E+02  0.83224413402E+02  0.00000000000E+00 0.  1.
         22    1    1    2    0    0  0.15268309431E+02 -0.97103351153E+02 -0.17924421501E+03  0.20442766616E+03  0.00000000000E+00 0.  1.
<mgrwt>
<rscale>  0 0.36197854E+03</rscale>
<asrwt>0</asrwt>
<pdfrwt beam="1">  1        4 0.35195028E-01 0.36197854E+03</pdfrwt>
<pdfrwt beam="2">  1       -4 0.22029144E-01 0.36197854E+03</pdfrwt>
<totfact> 0.28545035E+02</totfact>
</mgrwt>
</event>
<event>
 6    1  0.5040916E-004  0.5665174E+04  0.7818608E-02  0.7733361E-01
         -2   -1    0    0    0  501 -0.00000000000E+00  0.00000000000E+00  0.20445997389E+04  0.20445997389E+04  0.00000000000E+00 0. -1.
          2   -1    0    0  501    0  0.00000000000E+00 -0.00000000000E+00 -0.39242635903E+04  0.39242635903E+04  0.00000000000E+00 0.  1.
         23    2    1    2    0    0  0.18952760214E+04  0.19927190512E+04 -0.16519212865E+04  0.32093584660E+04  0.90207605366E+02 0.  0.
         11    1    3    3    0    0  0.10684898711E+04  0.10791158416E+04 -0.95024485796E+03  0.17914036101E+04  0.00000000000E+00 0. -1.
        -11    1    3    3    0    0  0.82678615027E+03  0.91360320959E+03 -0.70167642850E+03  0.14179548558E+04  0.00000000000E+00 0.  1.
         22    1    1    2    0    0 -0.18952760214E+04 -0.19927190512E+04 -0.22774256490E+03  0.27595048632E+04  0.00000000000E+00 0. -1.
<mgrwt>
<rscale>  0 0.56651737E+04</rscale>
<asrwt>0</asrwt>
<pdfrwt beam="1">  1        2 0.60373286E+00 0.56651737E+04</pdfrwt>
<pdfrwt beam="2">  1       -2 0.31455380E+00 0.56651737E+04</pdfrwt>
<totfact> 0.69970889E-03</totfact>
</mgrwt>
</event>
<event>
 6    1  0.5040916E-004  0.3412760E+04  0.7818608E-02  0.8134782E-01
          1   -1    0    0  501    0  0.00000000000E+00  0.00000000000E+00  0.21278589314E+04  0.21278589314E+04  0.00000000000E+00 0.  1.
         -1   -1    0    0    0  501 -0.00000000000E+00 -0.00000000000E+00 -0.13683864303E+04  0.13683864303E+04  0.00000000000E+00 0. -1.
         23    2    1    2    0    0  0.15315117938E+04  0.12610814681E+03 -0.37692971442E+03  0.15850044991E+04  0.93443101373E+02 0.  0.
         11    1    3    3    0    0  0.24903018401E+03  0.27357502264E+02 -0.96780800557E+02  0.26857212967E+03  0.00000000000E+00 0.  1.
        -11    1    3    3    0    0  0.12824816098E+04  0.98750644545E+02 -0.28014891386E+03  0.13164323694E+04  0.00000000000E+00 0. -1.
         22    1    1    2    0    0 -0.15315117938E+04 -0.12610814681E+03  0.11364022156E+04  0.19112408626E+04  0.00000000000E+00 0.  1.
<mgrwt>
<rscale>  0 0.34127603E+04</rscale>
<asrwt>0</asrwt>
<pdfrwt beam="1">  1        1 0.32736291E+00 0.34127603E+04</pdfrwt>
<pdfrwt beam="2">  1       -1 0.21052099E+00 0.34127603E+04</pdfrwt>
<totfact> 0.25567375E-01</totfact>
</mgrwt>
</event>
<event>
 6    1  0.5040916E-004  0.3847729E+04  0.7818608E-02  0.8035989E-01
          2   -1    0    0  501    0  0.00000000000E+00  0.00000000000E+00  0.16433548711E+04  0.16433548711E+04  0.00000000000E+00 0.  1.
         -2   -1    0    0    0  501 -0.00000000000E+00 -0.00000000000E+00 -0.22522555327E+04  0.22522555327E+04  0.00000000000E+00 0. -1.
         23    2    1    2    0    0 -0.12155518073E+04  0.63700557658E+03  0.10590986861E+04  0.17356187083E+04  0.85673641658E+02 0.  0.
         11    1    3    3    0    0 -0.54357045553E+03  0.31493778023E+03  0.44247172292E+03  0.76839825034E+03  0.00000000000E+00 0. -1.
        -11    1    3    3    0    0 -0.67198135174E+03  0.32206779635E+03  0.61662696322E+03  0.96722045797E+03  0.00000000000E+00 0.  1.
         22    1    1    2    0    0  0.12155518073E+04 -0.63700557658E+03 -0.16679993477E+04  0.21599916955E+04  0.00000000000E+00 0. -1.
<mgrwt>
<rscale>  0 0.38477293E+04</rscale>
<asrwt>0</asrwt>
<pdfrwt beam="1">  1        2 0.25282383E+00 0.38477293E+04</pdfrwt>
<pdfrwt beam="2">  1       -2 0.34650085E+00 0.38477293E+04</pdfrwt>
<totfact> 0.13783440E-01</totfact>
</mgrwt>
</event>
<event>
 6    1  0.5040916E-004  0.4122411E+04  0.7818608E-02  0.7980298E-01
         -2   -1    0    0    0  501 -0.00000000000E+00  0.00000000000E+00  0.11341711484E+04  0.11341711484E+04  0.00000000000E+00 0. -1.
          2   -1    0    0  501    0  0.00000000000E+00 -0.00000000000E+00 -0.37459678248E+04  0.37459678248E+04  0.00000000000E+00 0.  1.
         23    2    1    2    0    0 -0.18499382595E+04  0.85333901274E+03 -0.16693034972E+04  0.26354224147E+04  0.91750223331E+02 0.  0.
         11    1    3    3    0    0 -0.10610296421E+04  0.53332147345E+03 -0.94452833711E+03  0.15173494901E+04  0.00000000000E+00 0. -1.
        -11    1    3    3    0    0 -0.78890861741E+03  0.32001753929E+03 -0.72477516007E+03  0.11180729246E+04  0.00000000000E+00 0.  1.
         22    1    1    2    0    0  0.18499382595E+04 -0.85333901274E+03 -0.94249317924E+03  0.22447165584E+04  0.00000000000E+00 0. -1.
<mgrwt>
<rscale>  0 0.41224113E+04</rscale>
<asrwt>0</asrwt>
<pdfrwt beam="1">  1        2 0.57630273E+00 0.41224113E+04</pdfrwt>
<pdfrwt beam="2">  1       -2 0.17448787E+00 0.41224113E+04</pdfrwt>
<totfact> 0.83263032E-02</totfact>
</mgrwt>
</event>
<event>
 6    1  0.5040916E-004  0.2370933E+04  0.7818608E-02  0.8450467E-01
         -2   -1    0    0    0  501 -0.00000000000E+00  0.00000000000E+00  0.54499288812E+03  0.54499288812E+03  0.00000000000E+00 0. -1.
          2   -1    0    0  501    0  0.00000000000E+00 -0.00000000000E+00 -0.25786217167E+04  0.25786217167E+04  0.00000000000E+00 0.  1.
         23    2    1    2    0    0 -0.81873004483E+02  0.57967608569E+03  0.33671694808E+03  0.68204407459E+03  0.95279921149E+02 0.  0.
         13    1    3    3    0    0 -0.85646123390E+02  0.55343184640E+03  0.29594129803E+03  0.63340612481E+03  0.00000000000E+00 0.  1.
        -13    1    3    3    0    0  0.37731189068E+01  0.26244239287E+02  0.40775650047E+02  0.48637949780E+02  0.00000000000E+00 0. -1.
         22    1    1    2    0    0  0.81873004483E+02 -0.57967608569E+03 -0.23703457766E+04  0.24415705302E+04  0.00000000000E+00 0.  1.
<mgrwt>
<rscale>  0 0.23709327E+04</rscale>
<asrwt>0</asrwt>
<pdfrwt beam="1">  1        2 0.39671104E+00 0.23709327E+04</pdfrwt>
<pdfrwt beam="2">  1       -2 0.83845059E-01 0.23709327E+04</pdfrwt>
<totfact> 0.35095070E+00</totfact>
</mgrwt>
</event>
<event>
 6    1  0.5040916E-004  0.4086404E+04  0.7818608E-02  0.7987339E-01
          2   -1    0    0  501    0  0.00000000000E+00  0.00000000000E+00  0.22314305403E+04  0.22314305403E+04  0.00000000000E+00 0.  1.
         -2   -1    0    0    0  501 -0.00000000000E+00 -0.00000000000E+00 -0.18708507583E+04  0.18708507583E+04  0.00000000000E+00 0. -1.
         23    2    1    2    0    0  0.99478195324E+03  0.16713007526E+04 -0.44488521255E+03  0.19971420639E+04  0.88409451486E+02 0.  0.
         11    1    3    3    0    0  0.39842504184E+03  0.58790842827E+03 -0.15344306744E+03  0.72658351821E+03  0.00000000000E+00 0. -1.
        -11    1    3    3    0    0  0.59635691141E+03  0.10833923243E+04 -0.29144214512E+03  0.12705585457E+04  0.00000000000E+00 0.  1.
         22    1    1    2    0    0 -0.99478195324E+03 -0.16713007526E+04  0.80546499454E+03  0.21051392347E+04  0.00000000000E+00 0.  1.
<mgrwt>
<rscale>  0 0.40864036E+04</rscale>
<asrwt>0</asrwt>
<pdfrwt beam="1">  1        2 0.34329701E+00 0.40864036E+04</pdfrwt>
<pdfrwt beam="2">  1       -2 0.28782319E+00 0.40864036E+04</pdfrwt>
<totfact> 0.14652939E-01</totfact>
</mgrwt>
</event>
<event>
 6    1  0.5040916E-004  0.2260814E+04  0.7818608E-02  0.8493534E-01
         -2   -1    0    0    0  501 -0.00000000000E+00  0.00000000000E+00  0.60718901572E+03  0.60718901572E+03  0.00000000000E+00 0. -1.
          2   -1    0    0  501    0  0.00000000000E+00 -0.00000000000E+00 -0.21044843760E+04  0.21044843760E+04  0.00000000000E+00 0.  1.
         23    2    1    2    0    0  0.11620413391E+03  0.59294796462E+03 -0.18930468944E+04  0.19893784616E+04  0.94389774690E+02 0.  0.
         13    1    3    3    0    0  0.11854143630E+03  0.37557501523E+03 -0.12508358075E+04  0.13113728995E+04  0.00000000000E+00 0.  1.
        -13    1    3    3    0    0 -0.23373023859E+01  0.21737294939E+03 -0.64221108685E+03  0.67800556205E+03  0.00000000000E+00 0. -1.
         22    1    1    2    0    0 -0.11620413391E+03 -0.59294796462E+03  0.39575153405E+03  0.72229493020E+03  0.00000000000E+00 0. -1.
<mgrwt>
<rscale>  0 0.22608138E+04</rscale>
<asrwt>0</asrwt>
<pdfrwt beam="1">  1        2 0.32376683E+00 0.22608138E+04</pdfrwt>
<pdfrwt beam="2">  1       -2 0.93413694E-01 0.22608138E+04</pdfrwt>
<totfact> 0.51501005E+00</totfact>
</mgrwt>
</event>
<event>
 6    1  0.5040916E-004  0.1448564E+04  0.7818608E-02  0.8919397E-01
          2   -1    0    0  501    0  0.00000000000E+00  0.00000000000E+00  0.22595851469E+04  0.22595851469E+04  0.00000000000E+00 0.  1.
         -2   -1    0    0    0  501 -0.00000000000E+00 -0.00000000000E+00 -0.23215957170E+03  0.23215957170E+03  0.00000000000E+00 0. -1.
         23    2    1    2    0    0 -0.44341615779E+03 -0.55860073568E+03  0.83073932685E+03  0.10986508065E+04  0.90846544047E+02 0.  0.
         13    1    3    3    0    0 -0.18334168820E+03 -0.22189152391E+03  0.26890987364E+03  0.39390676963E+03  0.00000000000E+00 0.  1.
        -13    1    3    3    0    0 -0.26007446959E+03 -0.33670921177E+03  0.56182945321E+03  0.70474403688E+03  0.00000000000E+00 0. -1.
         22    1    1    2    0    0  0.44341615779E+03  0.55860073568E+03  0.11966862483E+04  0.13930939121E+04  0.00000000000E+00 0. -1.
<mgrwt>
<rscale>  0 0.14485639E+04</rscale>
<asrwt>0</asrwt>
<pdfrwt beam="1">  1        2 0.34762847E+00 0.14485639E+04</pdfrwt>
<pdfrwt beam="2">  1       -2 0.35716859E-01 0.14485639E+04</pdfrwt>
<totfact> 0.34209669E+01</totfact>
</mgrwt>
</event>
<event>
 6    1  0.5040916E-004  0.4742649E+04  0.7818608E-02  0.7869481E-01
         -1   -1    0    0    0  501 -0.00000000000E+00  0.00000000000E+00  0.17372627196E+04  0.17372627196E+04  0.00000000000E+00 0. -1.
          1   -1    0    0  501    0  0.00000000000E+00 -0.00000000000E+00 -0.32368049598E+04  0.32368049598E+04  0.00000000000E+00 0.  1.
         23    2    1    2    0    0 -0.18412871302E+04 -0.34461252530E+03  0.77336576350E+03  0.20286972644E+04  0.91770899797E+02 0.  0.
         11    1    3    3    0    0 -0.17008542279E+04 -0.34105459472E+03  0.72511826402E+03  0.18801648433E+04  0.00000000000E+00 0. -1.
        -11    1    3    3    0    0 -0.14043290225E+03 -0.35579305888E+01  0.48247499485E+02  0.14853242108E+03  0.00000000000E+00 0.  1.
         22    1    1    2    0    0  0.18412871302E+04  0.34461252530E+03 -0.22729080037E+04  0.29453704150E+04  0.00000000000E+00 0.  1.
<mgrwt>
<rscale>  0 0.47426493E+04</rscale>
<asrwt>0</asrwt>
<pdfrwt beam="1">  1        1 0.49796999E+00 0.47426493E+04</pdfrwt>
<pdfrwt beam="2">  1       -1 0.26727119E+00 0.47426493E+04</pdfrwt>
<totfact> 0.15806029E-02</totfact>
</mgrwt>
</event>
<event>
 6    1  0.5040916E-004  0.3653343E+04  0.7818608E-02  0.8078381E-01
         -1   -1    0    0    0  501 -0.00000000000E+00  0.00000000000E+00  0.19757928809E+04  0.19757928809E+04  0.00000000000E+00 0.  1.
          1   -1    0    0  501    0  0.00000000000E+00 -0.00000000000E+00 -0.16888047563E+04  0.16888047563E+04  0.00000000000E+00 0. -1.
         23    2    1    2    0    0  0.13744510136E+04 -0.94313577071E+03  0.89002708402E+03  0.18919508429E+04  0.93322617354E+02 0.  0.
         13    1    3    3    0    0  0.46864502399E+03 -0.37299491650E+03  0.33566250724E+03  0.68660227571E+03  0.00000000000E+00 0. -1.
        -13    1    3    3    0    0  0.90580598959E+03 -0.57014085420E+03  0.55436457678E+03  0.12053485672E+04  0.00000000000E+00 0.  1.
         22    1    1    2    0    0 -0.13744510136E+04  0.94313577071E+03 -0.60303895940E+03  0.17726467943E+04  0.00000000000E+00 0. -1.
<mgrwt>
<rscale>  0 0.36533428E+04</rscale>
<asrwt>0</asrwt>
<pdfrwt beam="1">  1        1 0.25981612E+00 0.36533428E+04</pdfrwt>
<pdfrwt beam="2">  1       -1 0.30396813E+00 0.36533428E+04</pdfrwt>
<totfact> 0.12158488E-01</totfact>
</mgrwt>
</event>
<event>
 6    1  0.5040916E-004  0.1187207E+04  0.7818608E-02  0.9124128E-01
          2   -1    0    0  501    0  0.00000000000E+00  0.00000000000E+00  0.15632465740E+04  0.15632465740E+04  0.00000000000E+00 0.  1.
         -2   -1    0    0    0  501 -0.00000000000E+00 -0.00000000000E+00 -0.22540605066E+03  0.22540605066E+03  0.00000000000E+00 0. -1.
         23    2    1    2    0    0 -0.40184620668E+03  0.40621834585E+03  0.45078946775E+03  0.73349704678E+03  0.91175956602E+02 0.  0.
         13    1    3    3    0    0 -0.21891160292E+02  0.17924802291E+02  0.53298193718E+02  0.60342513121E+02  0.00000000000E+00 0. -1.
        -13    1    3    3    0    0 -0.37995504639E+03  0.38829354356E+03  0.39749127404E+03  0.67315453365E+03  0.00000000000E+00 0.  1.
         22    1    1    2    0    0  0.40184620668E+03 -0.40621834585E+03  0.88705105555E+03  0.10551555779E+04  0.00000000000E+00 0.  1.
<mgrwt>
<rscale>  0 0.11872072E+04</rscale>
<asrwt>0</asrwt>
<pdfrwt beam="1">  1        2 0.24049947E+00 0.11872072E+04</pdfrwt>
<pdfrwt beam="2">  1       -2 0.34677855E-01 0.11872072E+04</pdfrwt>
<totfact> 0.90004746E+01</totfact>
</mgrwt>
</event>
<event>
 6    1  0.5040916E-004  0.1911893E+04  0.7818608E-02  0.8648959E-01
          4   -1    0    0  501    0  0.00000000000E+00  0.00000000000E+00  0.13778252228E+04  0.13778252228E+04  0.00000000000E+00 0.  1.
         -4   -1    0    0    0  501 -0.00000000000E+00 -0.00000000000E+00 -0.66324330614E+03  0.66324330614E+03  0.00000000000E+00 0. -1.
         23    2    1    2    0    0  0.34977038398E+03 -0.65627458005E+03  0.99602032792E+03  0.12459312922E+04  0.85162464081E+02 0.  0.
         13    1    3    3    0    0  0.54179243977E+02 -0.13093509023E+03  0.14202056898E+03  0.20062210832E+03  0.00000000000E+00 0. -1.
        -13    1    3    3    0    0  0.29559114001E+03 -0.52533948981E+03  0.85399975894E+03  0.10453091839E+04  0.00000000000E+00 0.  1.
         22    1    1    2    0    0 -0.34977038398E+03  0.65627458005E+03 -0.28143841127E+03  0.79513723675E+03  0.00000000000E+00 0. -1.
<mgrwt>
<rscale>  0 0.19118926E+04</rscale>
<asrwt>0</asrwt>
<pdfrwt beam="1">  1        4 0.21197311E+00 0.19118926E+04</pdfrwt>
<pdfrwt beam="2">  1       -4 0.10203743E+00 0.19118926E+04</pdfrwt>
<totfact> 0.16180080E-01</totfact>
</mgrwt>
</event>
<event>
 6    1  0.5040916E-004  0.2519692E+04  0.7818608E-02  0.8396003E-01
          2   -1    0    0  501    0  0.00000000000E+00  0.00000000000E+00  0.13544535558E+04  0.13544535558E+04  0.00000000000E+00 0.  1.
         -2   -1    0    0    0  501 -0.00000000000E+00 -0.00000000000E+00 -0.11718469816E+04  0.11718469816E+04  0.00000000000E+00 0. -1.
         23    2    1    2    0    0 -0.36562944338E+03  0.66696956750E+03  0.10963293773E+04  0.13374260046E+04  0.90757480660E+02 0.  0.
         11    1    3    3    0    0 -0.28097143252E+03  0.42449898892E+03  0.71735717949E+03  0.87962813759E+03  0.00000000000E+00 0.  1.
        -11    1    3    3    0    0 -0.84658010859E+02  0.24247057858E+03  0.37897219781E+03  0.45779786696E+03  0.00000000000E+00 0. -1.
         22    1    1    2    0    0  0.36562944338E+03 -0.66696956750E+03 -0.91372280313E+03  0.11888745328E+04  0.00000000000E+00 0. -1.
<mgrwt>
<rscale>  0 0.25196923E+04</rscale>
<asrwt>0</asrwt>
<pdfrwt beam="1">  1        2 0.20837747E+00 0.25196923E+04</pdfrwt>
<pdfrwt beam="2">  1       -2 0.18028415E+00 0.25196923E+04</pdfrwt>
<totfact> 0.24707686E+00</totfact>
</mgrwt>
</event>
<event>
 6    1  0.5040916E-004  0.1073711E+04  0.7818608E-02  0.9231201E-01
         -4   -1    0    0    0  501 -0.00000000000E+00  0.00000000000E+00  0.54888416252E+03  0.54888416252E+03  0.00000000000E+00 0. -1.
          4   -1    0    0  501    0  0.00000000000E+00 -0.00000000000E+00 -0.52509025901E+03  0.52509025901E+03  0.00000000000E+00 0.  1.
         23    2    1    2    0    0  0.17744788316E+03 -0.49895559691E+03  0.73254400086E+02  0.54209964336E+03  0.89785172889E+02 0.  0.
         11    1    3    3    0    0  0.72008949998E+02 -0.10401156182E+03  0.36543473712E+02  0.13167808984E+03  0.00000000000E+00 0.  1.
        -11    1    3    3    0    0  0.10543893317E+03 -0.39494403509E+03  0.36710926374E+02  0.41042155353E+03  0.00000000000E+00 0. -1.
         22    1    1    2    0    0 -0.17744788316E+03  0.49895559691E+03 -0.49460496583E+02  0.53187477817E+03  0.00000000000E+00 0.  1.
<mgrwt>
<rscale>  0 0.10737108E+04</rscale>
<asrwt>0</asrwt>
<pdfrwt beam="1">  1        4 0.80783117E-01 0.10737108E+04</pdfrwt>
<pdfrwt beam="2">  1       -4 0.84443717E-01 0.10737108E+04</pdfrwt>
<totfact> 0.32938731E+00</totfact>
</mgrwt>
</event>
<event>
 6    1  0.5040916E-004  0.2409264E+04  0.7818608E-02  0.8436043E-01
         -2   -1    0    0    0  501 -0.00000000000E+00  0.00000000000E+00  0.18098496388E+04  0.18098496388E+04  0.00000000000E+00 0. -1.
          2   -1    0    0  501    0  0.00000000000E+00 -0.00000000000E+00 -0.80180045755E+03  0.80180045755E+03  0.00000000000E+00 0.  1.
         23    2    1    2    0    0 -0.65160888972E+03  0.85747636719E+03 -0.76474929464E+02  0.10832350964E+04  0.87692609163E+02 0.  0.
         13    1    3    3    0    0 -0.35188332259E+03  0.50337470605E+03 -0.75337084567E+01  0.61421879177E+03  0.00000000000E+00 0. -1.
        -13    1    3    3    0    0 -0.29972556713E+03  0.35410166115E+03 -0.68941221007E+02  0.46901630459E+03  0.00000000000E+00 0.  1.
         22    1    1    2    0    0  0.65160888972E+03 -0.85747636719E+03  0.10845241107E+04  0.15284150000E+04  0.00000000000E+00 0. -1.
<mgrwt>
<rscale>  0 0.24092640E+04</rscale>
<asrwt>0</asrwt>
<pdfrwt beam="1">  1        2 0.12335392E+00 0.24092640E+04</pdfrwt>
<pdfrwt beam="2">  1       -2 0.27843840E+00 0.24092640E+04</pdfrwt>
<totfact> 0.13284305E+00</totfact>
</mgrwt>
</event>
<event>
 6    1  0.5040916E-004  0.2432627E+04  0.7818608E-02  0.8427388E-01
         -2   -1    0    0    0  501 -0.00000000000E+00  0.00000000000E+00  0.92008682721E+03  0.92008682721E+03  0.00000000000E+00 0. -1.
          2   -1    0    0  501    0  0.00000000000E+00 -0.00000000000E+00 -0.16079123450E+04  0.16079123450E+04  0.00000000000E+00 0.  1.
         23    2    1    2    0    0 -0.11610346414E+04  0.25425948899E+03 -0.60408734160E+03  0.13365037217E+04  0.93120114234E+02 0.  0.
         13    1    3    3    0    0 -0.80302357497E+03  0.19000889429E+03 -0.37307583450E+03  0.90561350484E+03  0.00000000000E+00 0. -1.
        -13    1    3    3    0    0 -0.35801106643E+03  0.64250594699E+02 -0.23101150710E+03  0.43089021690E+03  0.00000000000E+00 0.  1.
         22    1    1    2    0    0  0.11610346414E+04 -0.25425948899E+03 -0.83738176156E+02  0.11914954504E+04  0.00000000000E+00 0. -1.
<mgrwt>
<rscale>  0 0.24326274E+04</rscale>
<asrwt>0</asrwt>
<pdfrwt beam="1">  1        2 0.24737113E+00 0.24326274E+04</pdfrwt>
<pdfrwt beam="2">  1       -2 0.14155182E+00 0.24326274E+04</pdfrwt>
<totfact> 0.34555559E+00</totfact>
</mgrwt>
</event>
<event>
 6    1  0.5851447E-004  0.2603036E+04  0.7818608E-02  0.8367171E-01
         -2   -1    0    0    0  501 -0.00000000000E+00  0.00000000000E+00  0.87180833110E+03  0.87180833110E+03  0.00000000000E+00 0. -1.
          2   -1    0    0  501    0  0.00000000000E+00 -0.00000000000E+00 -0.19430293671E+04  0.19430293671E+04  0.00000000000E+00 0.  1.
         23    2    1    2    0    0  0.22140916011E+03  0.97820585676E+03 -0.14303898615E+04  0.17495157001E+04  0.94240727735E+02 0.  0.
         11    1    3    3    0    0  0.96404616035E+02  0.35008455653E+03 -0.44595224251E+03  0.57508821003E+03  0.00000000000E+00 0.  1.
        -11    1    3    3    0    0  0.12500454407E+03  0.62812130023E+03 -0.98443761897E+03  0.11744274901E+04  0.00000000000E+00 0. -1.
         22    1    1    2    0    0 -0.22140916011E+03 -0.97820585676E+03  0.35916882549E+03  0.10653219981E+04  0.00000000000E+00 0. -1.
<mgrwt>
<rscale>  0 0.26030361E+04</rscale>
<asrwt>0</asrwt>
<pdfrwt beam="1">  1        2 0.29892759E+00 0.26030361E+04</pdfrwt>
<pdfrwt beam="2">  1       -2 0.13412436E+00 0.26030361E+04</pdfrwt>
<totfact> 0.25495931E+00</totfact>
</mgrwt>
</event>
<event>
 6    1  0.5040916E-004  0.1044383E+04  0.7818608E-02  0.9261162E-01
          2   -1    0    0  501    0  0.00000000000E+00  0.00000000000E+00  0.10003543213E+03  0.10003543213E+03  0.00000000000E+00 0.  1.
         -2   -1    0    0    0  501 -0.00000000000E+00 -0.00000000000E+00 -0.27258741327E+04  0.27258741327E+04  0.00000000000E+00 0. -1.
         23    2    1    2    0    0 -0.16210463189E+02  0.39970470064E+03 -0.43111811810E+03  0.59502967969E+03  0.90392815657E+02 0.  0.
         11    1    3    3    0    0  0.16110594047E+02  0.35265385756E+03 -0.36936593991E+03  0.51093589819E+03  0.00000000000E+00 0. -1.
        -11    1    3    3    0    0 -0.32321057236E+02  0.47050843088E+02 -0.61752178186E+02  0.84093781500E+02  0.00000000000E+00 0.  1.
         22    1    1    2    0    0  0.16210463189E+02 -0.39970470064E+03 -0.21947205824E+04  0.22308798851E+04  0.00000000000E+00 0. -1.
<mgrwt>
<rscale>  0 0.10443831E+04</rscale>
<asrwt>0</asrwt>
<pdfrwt beam="1">  1        2 0.15390066E-01 0.10443831E+04</pdfrwt>
<pdfrwt beam="2">  1       -2 0.41936526E+00 0.10443831E+04</pdfrwt>
<totfact> 0.22097002E+00</totfact>
</mgrwt>
</event>
<event>
 6    1  0.5040916E-004  0.8214135E+03  0.7818608E-02  0.9529529E-01
          2   -1    0    0  501    0  0.00000000000E+00  0.00000000000E+00  0.84595916835E+03  0.84595916835E+03  0.00000000000E+00 0.  1.
         -2   -1    0    0    0  501 -0.00000000000E+00 -0.00000000000E+00 -0.19939498762E+03  0.19939498762E+03  0.00000000000E+00 0. -1.
         23    2    1    2    0    0  0.18387450051E+03  0.36133667583E+03  0.33301860730E+03  0.53282625249E+03  0.92889166743E+02 0.  0.
         11    1    3    3    0    0  0.65065825369E+02  0.22622224961E+03  0.17425367037E+03  0.29287268478E+03  0.00000000000E+00 0.  1.
        -11    1    3    3    0    0  0.11880867514E+03  0.13511442622E+03  0.15876493692E+03  0.23995356771E+03  0.00000000000E+00 0. -1.
         22    1    1    2    0    0 -0.18387450051E+03 -0.36133667583E+03  0.31354557343E+03  0.51252790349E+03  0.00000000000E+00 0. -1.
<mgrwt>
<rscale>  0 0.82141346E+03</rscale>
<asrwt>0</asrwt>
<pdfrwt beam="1">  1        2 0.13014756E+00 0.82141346E+03</pdfrwt>
<pdfrwt beam="2">  1       -2 0.30676152E-01 0.82141346E+03</pdfrwt>
<totfact> 0.31540409E+02</totfact>
</mgrwt>
</event>
<event>
 6    1  0.5040916E-004  0.2732210E+04  0.7818608E-02  0.8324629E-01
         -2   -1    0    0    0  501 -0.00000000000E+00  0.00000000000E+00  0.57661695345E+03  0.57661695345E+03  0.00000000000E+00 0. -1.
          2   -1    0    0  501    0  0.00000000000E+00 -0.00000000000E+00 -0.32365384921E+04  0.32365384921E+04  0.00000000000E+00 0.  1.
         23    2    1    2    0    0 -0.42323849738E+03  0.47927978579E+03 -0.30138825411E+04  0.30823146079E+04  0.91298585592E+02 0.  0.
         11    1    3    3    0    0 -0.30877419521E+03  0.36217342561E+03 -0.20417456558E+04  0.20964819142E+04  0.00000000000E+00 0.  1.
        -11    1    3    3    0    0 -0.11446430217E+03  0.11710636018E+03 -0.97213688530E+03  0.98583269363E+03  0.00000000000E+00 0. -1.
         22    1    1    2    0    0  0.42323849738E+03 -0.47927978579E+03  0.35396100245E+03  0.73084083766E+03  0.00000000000E+00 0. -1.
<mgrwt>
<rscale>  0 0.27322101E+04</rscale>
<asrwt>0</asrwt>
<pdfrwt beam="1">  1        2 0.49792900E+00 0.27322101E+04</pdfrwt>
<pdfrwt beam="2">  1       -2 0.88710300E-01 0.27322101E+04</pdfrwt>
<totfact> 0.11729106E+00</totfact>
</mgrwt>
</event>
<event>
 6    1  0.5040916E-004  0.1121214E+04  0.7818608E-02  0.9184758E-01
          2   -1    0    0  501    0  0.00000000000E+00  0.00000000000E+00  0.58173036991E+03  0.58173036991E+03  0.00000000000E+00 0.  1.
         -2   -1    0    0    0  501 -0.00000000000E+00 -0.00000000000E+00 -0.54025097953E+03  0.54025097953E+03  0.00000000000E+00 0. -1.
         23    2    1    2    0    0 -0.20640337928E+03  0.46988502716E+03 -0.19368744024E+03  0.55744815117E+03  0.99193361741E+02 0.  0.
         13    1    3    3    0    0 -0.60023069334E+02  0.25937720383E+03 -0.10372842159E+03  0.28572519693E+03  0.00000000000E+00 0. -1.
        -13    1    3    3    0    0 -0.14638030995E+03  0.21050782333E+03 -0.89959018651E+02  0.27172295424E+03  0.00000000000E+00 0.  1.
         22    1    1    2    0    0  0.20640337928E+03 -0.46988502716E+03  0.23516683062E+03  0.56453319827E+03  0.00000000000E+00 0.  1.
<mgrwt>
<rscale>  0 0.11212143E+04</rscale>
<asrwt>0</asrwt>
<pdfrwt beam="1">  1        2 0.89496980E-01 0.11212143E+04</pdfrwt>
<pdfrwt beam="2">  1       -2 0.83115536E-01 0.11212143E+04</pdfrwt>
<totfact> 0.64766293E+01</totfact>
</mgrwt>
</event>
<event>
 6    1  0.5040916E-004  0.2873043E+04  0.7818608E-02  0.8280943E-01
          2   -1    0    0  501    0  0.00000000000E+00  0.00000000000E+00  0.13805705792E+04  0.13805705792E+04  0.00000000000E+00 0.  1.
         -2   -1    0    0    0  501 -0.00000000000E+00 -0.00000000000E+00 -0.14947399310E+04  0.14947399310E+04  0.00000000000E+00 0. -1.
         23    2    1    2    0    0 -0.10444784965E+04  0.97475913728E+03 -0.19340055735E+03  0.14444477322E+04  0.89077327415E+02 0.  0.
         11    1    3    3    0    0 -0.39781457457E+03  0.37740441615E+03 -0.30833525438E+02  0.54921875001E+03  0.00000000000E+00 0. -1.
        -11    1    3    3    0    0 -0.64666392193E+03  0.59735472113E+03 -0.16256703191E+03  0.89522898224E+03  0.00000000000E+00 0.  1.
         22    1    1    2    0    0  0.10444784965E+04 -0.97475913728E+03  0.79231205485E+02  0.14308627779E+04  0.00000000000E+00 0. -1.
<mgrwt>
<rscale>  0 0.28730430E+04</rscale>
<asrwt>0</asrwt>
<pdfrwt beam="1">  1        2 0.21239547E+00 0.28730430E+04</pdfrwt>
<pdfrwt beam="2">  1       -2 0.22995999E+00 0.28730430E+04</pdfrwt>
<totfact> 0.10986717E+00</totfact>
</mgrwt>
</event>
<event>
 6    1  0.5040916E-004  0.3519241E+04  0.7818608E-02  0.8109245E-01
          2   -1    0    0  501    0  0.00000000000E+00  0.00000000000E+00  0.34696974403E+04  0.34696974403E+04  0.00000000000E+00 0.  1.
         -2   -1    0    0    0  501 -0.00000000000E+00 -0.00000000000E+00 -0.89237292659E+03  0.89237292659E+03  0.00000000000E+00 0. -1.
         23    2    1    2    0    0  0.60089229800E+03 -0.86718618925E+03  0.30331945043E+04  0.32127658428E+04  0.92260605047E+02 0.  0.
         11    1    3    3    0    0  0.21901716959E+03 -0.37185019876E+03  0.13376522464E+04  0.14055442445E+04  0.00000000000E+00 0. -1.
        -11    1    3    3    0    0  0.38187512841E+03 -0.49533599049E+03  0.16955422579E+04  0.18072215983E+04  0.00000000000E+00 0.  1.
         22    1    1    2    0    0 -0.60089229800E+03  0.86718618925E+03 -0.45586999062E+03  0.11493045240E+04  0.00000000000E+00 0. -1.
<mgrwt>
<rscale>  0 0.35192409E+04</rscale>
<asrwt>0</asrwt>
<pdfrwt beam="1">  1        2 0.53379960E+00 0.35192409E+04</pdfrwt>
<pdfrwt beam="2">  1       -2 0.13728814E+00 0.35192409E+04</pdfrwt>
<totfact> 0.26418796E-01</totfact>
</mgrwt>
</event>
<event>
 6    1  0.5040916E-004  0.1778751E+04  0.7818608E-02  0.8717682E-01
         -2   -1    0    0    0  501 -0.00000000000E+00  0.00000000000E+00  0.23240141722E+03  0.23240141722E+03  0.00000000000E+00 0. -1.
          2   -1    0    0  501    0  0.00000000000E+00 -0.00000000000E+00 -0.34035470521E+04  0.34035470521E+04  0.00000000000E+00 0.  1.
         23    2    1    2    0    0 -0.24512603905E+03  0.55284307313E+03 -0.26306144763E+03  0.66564951491E+03  0.90364334412E+02 0.  0.
         13    1    3    3    0    0 -0.60457913944E+02  0.10964263981E+03 -0.17689932425E+02  0.12644999617E+03  0.00000000000E+00 0. -1.
        -13    1    3    3    0    0 -0.18466812511E+03  0.44320043332E+03 -0.24537151521E+03  0.53919951874E+03  0.00000000000E+00 0.  1.
         22    1    1    2    0    0  0.24512603905E+03 -0.55284307313E+03 -0.29080841873E+04  0.29702989545E+04  0.00000000000E+00 0.  1.
<mgrwt>
<rscale>  0 0.17787514E+04</rscale>
<asrwt>0</asrwt>
<pdfrwt beam="1">  1        2 0.52362256E+00 0.17787514E+04</pdfrwt>
<pdfrwt beam="2">  1       -2 0.35754069E-01 0.17787514E+04</pdfrwt>
<totfact> 0.66433270E+00</totfact>
</mgrwt>
</event>
<event>
 6    1  0.5040916E-004  0.5588334E+04  0.7818608E-02  0.7743650E-01
         -2   -1    0    0    0  501 -0.00000000000E+00  0.00000000000E+00  0.27249415954E+04  0.27249415954E+04  0.00000000000E+00 0. -1.
          2   -1    0    0  501    0  0.00000000000E+00 -0.00000000000E+00 -0.28651506745E+04  0.28651506745E+04  0.00000000000E+00 0.  1.
         23    2    1    2    0    0 -0.13842404249E+04  0.10936584147E+04 -0.22366419590E+04  0.28501577630E+04  0.92853322661E+02 0.  0.
         11    1    3    3    0    0 -0.36087885375E+03  0.24552635199E+03 -0.59432707972E+03  0.73738823851E+03  0.00000000000E+00 0.  1.
        -11    1    3    3    0    0 -0.10233615711E+04  0.84813206274E+03 -0.16423148793E+04  0.21127695245E+04  0.00000000000E+00 0. -1.
         22    1    1    2    0    0  0.13842404249E+04 -0.10936584147E+04  0.20964328799E+04  0.27399345068E+04  0.00000000000E+00 0. -1.
<mgrwt>
<rscale>  0 0.55883337E+04</rscale>
<asrwt>0</asrwt>
<pdfrwt beam="1">  1        2 0.44079241E+00 0.55883337E+04</pdfrwt>
<pdfrwt beam="2">  1       -2 0.41922178E+00 0.55883337E+04</pdfrwt>
<totfact> 0.81515845E-03</totfact>
</mgrwt>
</event>
<event>
 6    1  0.5040916E-004  0.4554223E+04  0.7818608E-02  0.7901212E-01
         -2   -1    0    0    0  501 -0.00000000000E+00  0.00000000000E+00  0.15733490783E+04  0.15733490783E+04  0.00000000000E+00 0. -1.
          2   -1    0    0  501    0  0.00000000000E+00 -0.00000000000E+00 -0.32956687262E+04  0.32956687262E+04  0.00000000000E+00 0.  1.
         23    2    1    2    0    0 -0.17841222981E+03 -0.55323017981E+03  0.14913341720E+04  0.16032153870E+04  0.91254636648E+02 0.  0.
         11    1    3    3    0    0 -0.81491229578E+02 -0.37710286278E+03  0.92372710158E+03  0.10010590132E+04  0.00000000000E+00 0.  1.
        -11    1    3    3    0    0 -0.96921000234E+02 -0.17612731703E+03  0.56760707046E+03  0.60215637381E+03  0.00000000000E+00 0. -1.
         22    1    1    2    0    0  0.17841222981E+03  0.55323017981E+03 -0.32136538200E+04  0.32658024175E+04  0.00000000000E+00 0.  1.
<mgrwt>
<rscale>  0 0.45542232E+04</rscale>
<asrwt>0</asrwt>
<pdfrwt beam="1">  1        2 0.50702595E+00 0.45542232E+04</pdfrwt>
<pdfrwt beam="2">  1       -2 0.24205371E+00 0.45542232E+04</pdfrwt>
<totfact> 0.60777480E-02</totfact>
</mgrwt>
</event>
<event>
 6    1  0.5040916E-004  0.1956813E+04  0.7818608E-02  0.8627082E-01
          2   -1    0    0  501    0  0.00000000000E+00  0.00000000000E+00  0.81848919475E+03  0.81848919475E+03  0.00000000000E+00 0.  1.
         -2   -1    0    0    0  501 -0.00000000000E+00 -0.00000000000E+00 -0.11695689176E+04  0.11695689176E+04  0.00000000000E+00 0. -1.
         23    2    1    2    0    0 -0.46258442069E+03  0.85818514389E+03 -0.12300323185E+03  0.98681639671E+03  0.90613014023E+02 0.  0.
         11    1    3    3    0    0 -0.30203914013E+03  0.49825524446E+03 -0.10687080980E+03  0.59237429113E+03  0.00000000000E+00 0. -1.
        -11    1    3    3    0    0 -0.16054528056E+03  0.35992989943E+03 -0.16132422050E+02  0.39444210558E+03  0.00000000000E+00 0.  1.
         22    1    1    2    0    0  0.46258442069E+03 -0.85818514389E+03 -0.22807649104E+03  0.10012417157E+04  0.00000000000E+00 0. -1.
<mgrwt>
<rscale>  0 0.19568132E+04</rscale>
<asrwt>0</asrwt>
<pdfrwt beam="1">  1        2 0.12592142E+00 0.19568132E+04</pdfrwt>
<pdfrwt beam="2">  1       -2 0.17993368E+00 0.19568132E+04</pdfrwt>
<totfact> 0.56508865E+00</totfact>
</mgrwt>
</event>
<event>
 6    1  0.5040916E-004  0.4481174E+03  0.7818608E-02  0.1028285E+00
         -4   -1    0    0    0  501 -0.00000000000E+00  0.00000000000E+00  0.15316598366E+03  0.15316598366E+03  0.00000000000E+00 0. -1.
          4   -1    0    0  501    0  0.00000000000E+00 -0.00000000000E+00 -0.32776409083E+03  0.32776409083E+03  0.00000000000E+00 0.  1.
         23    2    1    2    0    0 -0.36974255592E+02 -0.15644058289E+03 -0.24403817230E+03  0.30582246701E+03  0.90177603846E+02 0.  0.
         13    1    3    3    0    0  0.14212259032E+02 -0.92704785843E+02 -0.17615335407E+03  0.19956495127E+03  0.00000000000E+00 0. -1.
        -13    1    3    3    0    0 -0.51186514625E+02 -0.63735797051E+02 -0.67884818229E+02  0.10625751574E+03  0.00000000000E+00 0.  1.
         22    1    1    2    0    0  0.36974255592E+02  0.15644058289E+03  0.69440065123E+02  0.17510760748E+03  0.00000000000E+00 0. -1.
<mgrwt>
<rscale>  0 0.44811744E+03</rscale>
<asrwt>0</asrwt>
<pdfrwt beam="1">  1        4 0.50425245E-01 0.44811744E+03</pdfrwt>
<pdfrwt beam="2">  1       -4 0.23563998E-01 0.44811744E+03</pdfrwt>
<totfact> 0.12442340E+02</totfact>
</mgrwt>
</event>
<event>
 6    1  0.5040916E-004  0.1921795E+04  0.7818608E-02  0.8644083E-01
          2   -1    0    0  501    0  0.00000000000E+00  0.00000000000E+00  0.81336978313E+03  0.81336978313E+03  0.00000000000E+00 0.  1.
         -2   -1    0    0    0  501 -0.00000000000E+00 -0.00000000000E+00 -0.11351834623E+04  0.11351834623E+04  0.00000000000E+00 0. -1.
         23    2    1    2    0    0  0.13426849266E+03 -0.64379742923E+03 -0.86864379074E+03  0.10932601209E+04  0.90401873497E+02 0.  0.
         11    1    3    3    0    0  0.12763397117E+03 -0.42265416343E+03 -0.60767912907E+03  0.75113307501E+03  0.00000000000E+00 0.  1.
        -11    1    3    3    0    0  0.66345214873E+01 -0.22114326580E+03 -0.26096466166E+03  0.34212704588E+03  0.00000000000E+00 0. -1.
         22    1    1    2    0    0 -0.13426849266E+03  0.64379742923E+03  0.54683011156E+03  0.85529312455E+03  0.00000000000E+00 0.  1.
<mgrwt>
<rscale>  0 0.19217949E+04</rscale>
<asrwt>0</asrwt>
<pdfrwt beam="1">  1        2 0.12513381E+00 0.19217949E+04</pdfrwt>
<pdfrwt beam="2">  1       -2 0.17464361E+00 0.19217949E+04</pdfrwt>
<totfact> 0.62215606E+00</totfact>
</mgrwt>
</event>
<event>
 6    1  0.5040916E-004  0.1678380E+04  0.7818608E-02  0.8773792E-01
         -2   -1    0    0    0  501 -0.00000000000E+00  0.00000000000E+00  0.15421952829E+03  0.15421952829E+03  0.00000000000E+00 0. -1.
          2   -1    0    0  501    0  0.00000000000E+00 -0.00000000000E+00 -0.45664785289E+04  0.45664785289E+04  0.00000000000E+00 0.  1.
         23    2    1    2    0    0 -0.10279120729E+03  0.79073220396E+03 -0.14992458479E+04  0.17005210627E+04  0.90610823357E+02 0.  0.
         13    1    3    3    0    0  0.55435211288E+01  0.29261953773E+03 -0.53476872168E+03  0.60961833156E+03  0.00000000000E+00 0. -1.
        -13    1    3    3    0    0 -0.10833472842E+03  0.49811266623E+03 -0.96447712627E+03  0.10909027311E+04  0.00000000000E+00 0.  1.
         22    1    1    2    0    0  0.10279120729E+03 -0.79073220396E+03 -0.29130131527E+04  0.30201769946E+04  0.00000000000E+00 0. -1.
<mgrwt>
<rscale>  0 0.16783804E+04</rscale>
<asrwt>0</asrwt>
<pdfrwt beam="1">  1        2 0.70253506E+00 0.16783804E+04</pdfrwt>
<pdfrwt beam="2">  1       -2 0.23726085E-01 0.16783804E+04</pdfrwt>
<totfact> 0.16352294E+00</totfact>
</mgrwt>
</event>
<event>
 6    1  0.5040916E-004  0.2527953E+04  0.7818608E-02  0.8393094E-01
          2   -1    0    0  501    0  0.00000000000E+00  0.00000000000E+00  0.20478803601E+04  0.20478803601E+04  0.00000000000E+00 0.  1.
         -2   -1    0    0    0  501 -0.00000000000E+00 -0.00000000000E+00 -0.78014169725E+03  0.78014169725E+03  0.00000000000E+00 0. -1.
         23    2    1    2    0    0  0.11083892004E+04  0.47310499962E+03  0.21449195303E+03  0.12274960213E+04  0.91568140125E+02 0.  0.
         13    1    3    3    0    0  0.30311136988E+03  0.87141848186E+02  0.66444289449E+02  0.32231203492E+03  0.00000000000E+00 0. -1.
        -13    1    3    3    0    0  0.80527783052E+03  0.38596315143E+03  0.14804766358E+03  0.90518398642E+03  0.00000000000E+00 0.  1.
         22    1    1    2    0    0 -0.11083892004E+04 -0.47310499962E+03  0.10532467099E+04  0.16005260361E+04  0.00000000000E+00 0.  1.
<mgrwt>
<rscale>  0 0.25279532E+04</rscale>
<asrwt>0</asrwt>
<pdfrwt beam="1">  1        2 0.31505851E+00 0.25279532E+04</pdfrwt>
<pdfrwt beam="2">  1       -2 0.12002180E+00 0.25279532E+04</pdfrwt>
<totfact> 0.29674120E+00</totfact>
</mgrwt>
</event>
<event>
 6    1  0.5040916E-004  0.2874684E+04  0.7818608E-02  0.8280450E-01
         -2   -1    0    0    0  501 -0.00000000000E+00  0.00000000000E+00  0.22619613900E+04  0.22619613900E+04  0.00000000000E+00 0. -1.
          2   -1    0    0  501    0  0.00000000000E+00 -0.00000000000E+00 -0.91334536738E+03  0.91334536738E+03  0.00000000000E+00 0.  1.
         23    2    1    2    0    0 -0.82121414246E+03 -0.60036465522E+03  0.17942868000E+04  0.20646975422E+04  0.93168840943E+02 0.  0.
         11    1    3    3    0    0 -0.40651101120E+03 -0.35345838163E+03  0.92614343512E+03  0.10714129420E+04  0.00000000000E+00 0. -1.
        -11    1    3    3    0    0 -0.41470313126E+03 -0.24690627359E+03  0.86814336488E+03  0.99328460020E+03  0.00000000000E+00 0.  1.
         22    1    1    2    0    0  0.82121414246E+03  0.60036465522E+03 -0.44567077742E+03  0.11106092152E+04  0.00000000000E+00 0.  1.
<mgrwt>
<rscale>  0 0.28746840E+04</rscale>
<asrwt>0</asrwt>
<pdfrwt beam="1">  1        2 0.14051467E+00 0.28746840E+04</pdfrwt>
<pdfrwt beam="2">  1       -2 0.34799406E+00 0.28746840E+04</pdfrwt>
<totfact> 0.39780227E-01</totfact>
</mgrwt>
</event>
<event>
 6    1  0.5040916E-004  0.3397338E+04  0.7818608E-02  0.8138560E-01
          2   -1    0    0  501    0  0.00000000000E+00  0.00000000000E+00  0.17423779875E+04  0.17423779875E+04  0.00000000000E+00 0.  1.
         -2   -1    0    0    0  501 -0.00000000000E+00 -0.00000000000E+00 -0.16560564562E+04  0.16560564562E+04  0.00000000000E+00 0. -1.
         23    2    1    2    0    0  0.15278290396E+04  0.71059216048E+03 -0.16219935579E+03  0.16952123725E+04  0.90738989255E+02 0.  0.
         13    1    3    3    0    0  0.12714783448E+04  0.55459661605E+03 -0.14289307950E+03  0.13945081642E+04  0.00000000000E+00 0. -1.
        -13    1    3    3    0    0  0.25635069478E+03  0.15599554442E+03 -0.19306276286E+02  0.30070420832E+03  0.00000000000E+00 0.  1.
         22    1    1    2    0    0 -0.15278290396E+04 -0.71059216048E+03  0.24852088711E+03  0.17032220712E+04  0.00000000000E+00 0.  1.
<mgrwt>
<rscale>  0 0.33973380E+04</rscale>
<asrwt>0</asrwt>
<pdfrwt beam="1">  1        2 0.26805815E+00 0.33973380E+04</pdfrwt>
<pdfrwt beam="2">  1       -2 0.25477792E+00 0.33973380E+04</pdfrwt>
<totfact> 0.46228969E-01</totfact>
</mgrwt>
</event>
<event>
 6    1  0.5040916E-004  0.3281961E+04  0.7818608E-02  0.8167501E-01
          2   -1    0    0  501    0  0.00000000000E+00  0.00000000000E+00  0.42478772282E+04  0.42478772282E+04  0.00000000000E+00 0.  1.
         -2   -1    0    0    0  501 -0.00000000000E+00 -0.00000000000E+00 -0.63392060444E+03  0.63392060444E+03  0.00000000000E+00 0. -1.
         23    2    1    2    0    0 -0.10502345163E+04 -0.26823403782E+03  0.36384509532E+04  0.37975736812E+04  0.91096031872E+02 0.  0.
         11    1    3    3    0    0 -0.69071221197E+03 -0.21623144423E+03  0.23557864196E+04  0.24644612092E+04  0.00000000000E+00 0.  1.
        -11    1    3    3    0    0 -0.35952230433E+03 -0.52002593598E+02  0.12826645337E+04  0.13331124720E+04  0.00000000000E+00 0. -1.
         22    1    1    2    0    0  0.10502345163E+04  0.26823403782E+03 -0.24494329487E+02  0.10842241514E+04  0.00000000000E+00 0. -1.
<mgrwt>
<rscale>  0 0.32819609E+04</rscale>
<asrwt>0</asrwt>
<pdfrwt beam="1">  1        2 0.65351956E+00 0.32819609E+04</pdfrwt>
<pdfrwt beam="2">  1       -2 0.97526249E-01 0.32819609E+04</pdfrwt>
<totfact> 0.15435841E-01</totfact>
</mgrwt>
</event>
<event>
 6    1  0.5040916E-004  0.1050731E+04  0.7818608E-02  0.9254590E-01
         -2   -1    0    0    0  501 -0.00000000000E+00  0.00000000000E+00  0.10436412447E+04  0.10436412447E+04  0.00000000000E+00 0. -1.
          2   -1    0    0  501    0  0.00000000000E+00 -0.00000000000E+00 -0.26446722056E+03  0.26446722056E+03  0.00000000000E+00 0.  1.
         23    2    1    2    0    0 -0.45369225338E+03 -0.23957432803E+03  0.27674406092E+03  0.59000792399E+03  0.91046997106E+02 0.  0.
         11    1    3    3    0    0 -0.39678562003E+03 -0.19365236537E+03  0.26767418704E+03  0.51632309388E+03  0.00000000000E+00 0.  1.
        -11    1    3    3    0    0 -0.56906633357E+02 -0.45921962665E+02  0.90698738795E+01  0.73684830102E+02  0.00000000000E+00 0. -1.
         22    1    1    2    0    0  0.45369225338E+03  0.23957432803E+03  0.50242996323E+03  0.71810054128E+03  0.00000000000E+00 0.  1.
<mgrwt>
<rscale>  0 0.10507310E+04</rscale>
<asrwt>0</asrwt>
<pdfrwt beam="1">  1        2 0.40687265E-01 0.10507310E+04</pdfrwt>
<pdfrwt beam="2">  1       -2 0.16056019E+00 0.10507310E+04</pdfrwt>
<totfact> 0.31363916E+01</totfact>
</mgrwt>
</event>
<event>
 6    1  0.5040916E-004  0.3144555E+04  0.7818608E-02  0.8203615E-01
         -2   -1    0    0    0  501 -0.00000000000E+00  0.00000000000E+00  0.18792301085E+04  0.18792301085E+04  0.00000000000E+00 0. -1.
          2   -1    0    0  501    0  0.00000000000E+00 -0.00000000000E+00 -0.13154624313E+04  0.13154624313E+04  0.00000000000E+00 0.  1.
         23    2    1    2    0    0 -0.76803038628E+03 -0.13646603152E+04  0.15485239520E+03  0.15762426153E+04  0.91613688237E+02 0.  0.
         13    1    3    3    0    0 -0.57429355024E+03 -0.10451208940E+04  0.80457689555E+02  0.11952255874E+04  0.00000000000E+00 0.  1.
        -13    1    3    3    0    0 -0.19373683604E+03 -0.31953942121E+03  0.74394705646E+02  0.38101702794E+03  0.00000000000E+00 0. -1.
         22    1    1    2    0    0  0.76803038628E+03  0.13646603152E+04  0.40891528196E+03  0.16184499245E+04  0.00000000000E+00 0. -1.
<mgrwt>
<rscale>  0 0.31445550E+04</rscale>
<asrwt>0</asrwt>
<pdfrwt beam="1">  1        2 0.20237884E+00 0.31445550E+04</pdfrwt>
<pdfrwt beam="2">  1       -2 0.28911232E+00 0.31445550E+04</pdfrwt>
<totfact> 0.50742931E-01</totfact>
</mgrwt>
</event>
<event>
 6    1  0.5040916E-004  0.2544360E+04  0.7818608E-02  0.8387350E-01
          2   -1    0    0  501    0  0.00000000000E+00  0.00000000000E+00  0.14914269471E+04  0.14914269471E+04  0.00000000000E+00 0. -1.
         -2   -1    0    0    0  501 -0.00000000000E+00 -0.00000000000E+00 -0.10851635537E+04  0.10851635537E+04  0.00000000000E+00 0.  1.
         23    2    1    2    0    0 -0.12700902819E+04  0.11848964948E+02  0.17202950901E+03  0.12850274032E+04  0.91823487666E+02 0.  0.
         11    1    3    3    0    0 -0.13723128526E+03  0.63786144144E+00 -0.99386022786E+01  0.13759218124E+03  0.00000000000E+00 0. -1.
        -11    1    3    3    0    0 -0.11328589967E+04  0.11211103506E+02  0.18196811128E+03  0.11474352220E+04  0.00000000000E+00 0.  1.
         22    1    1    2    0    0  0.12700902819E+04 -0.11848964948E+02  0.23423388437E+03  0.12915630975E+04  0.00000000000E+00 0. -1.
<mgrwt>
<rscale>  0 0.25443602E+04</rscale>
<asrwt>0</asrwt>
<pdfrwt beam="1">  1        2 0.22945030E+00 0.25443602E+04</pdfrwt>
<pdfrwt beam="2">  1       -2 0.16694824E+00 0.25443602E+04</pdfrwt>
<totfact> 0.25569997E+00</totfact>
</mgrwt>
</event>
<event>
 6    1  0.5040916E-004  0.2633524E+04  0.7818608E-02  0.8356902E-01
          2   -1    0    0  501    0  0.00000000000E+00  0.00000000000E+00  0.12205299649E+04  0.12205299649E+04  0.00000000000E+00 0.  1.
         -2   -1    0    0    0  501 -0.00000000000E+00 -0.00000000000E+00 -0.14205810121E+04  0.14205810121E+04  0.00000000000E+00 0. -1.
         23    2    1    2    0    0  0.24017559121E+03  0.54476518324E+03  0.10760586103E+04  0.12329528618E+04  0.88414970934E+02 0.  0.
         13    1    3    3    0    0  0.22561443332E+03  0.42644361848E+03  0.84910032055E+03  0.97658967158E+03  0.00000000000E+00 0. -1.
        -13    1    3    3    0    0  0.14561157890E+02  0.11832156476E+03  0.22695828979E+03  0.25636319024E+03  0.00000000000E+00 0.  1.
         22    1    1    2    0    0 -0.24017559121E+03 -0.54476518324E+03 -0.12761096575E+04  0.14081581152E+04  0.00000000000E+00 0. -1.
<mgrwt>
<rscale>  0 0.26335236E+04</rscale>
<asrwt>0</asrwt>
<pdfrwt beam="1">  1        2 0.18777384E+00 0.26335236E+04</pdfrwt>
<pdfrwt beam="2">  1       -2 0.21855092E+00 0.26335236E+04</pdfrwt>
<totfact> 0.16397309E+00</totfact>
</mgrwt>
</event>
<event>
 6    1  0.5040916E-004  0.2172139E+04  0.7818608E-02  0.8530115E-01
          2   -1    0    0  501    0  0.00000000000E+00  0.00000000000E+00  0.25745052196E+04  0.25745052196E+04  0.00000000000E+00 0.  1.
         -2   -1    0    0    0  501 -0.00000000000E+00 -0.00000000000E+00 -0.45816465869E+03  0.45816465869E+03  0.00000000000E+00 0. -1.
         23    2    1    2    0    0  0.88125894404E+03  0.35566025713E+03  0.17883614682E+04  0.20273431502E+04  0.93658757067E+02 0.  0.
         11    1    3    3    0    0  0.56114560909E+03  0.23467605265E+03  0.12362258406E+04  0.13777559920E+04  0.00000000000E+00 0.  1.
        -11    1    3    3    0    0  0.32011333494E+03  0.12098420447E+03  0.55213562759E+03  0.64958715828E+03  0.00000000000E+00 0. -1.
         22    1    1    2    0    0 -0.88125894404E+03 -0.35566025713E+03  0.32797909268E+03  0.10053267281E+04  0.00000000000E+00 0. -1.
<mgrwt>
<rscale>  0 0.21721393E+04</rscale>
<asrwt>0</asrwt>
<pdfrwt beam="1">  1        2 0.39607772E+00 0.21721393E+04</pdfrwt>
<pdfrwt beam="2">  1       -2 0.70486872E-01 0.21721393E+04</pdfrwt>
<totfact> 0.52849549E+00</totfact>
</mgrwt>
</event>
<event>
 6    1  0.5040916E-004  0.5119453E+04  0.7818608E-02  0.7810340E-01
         -2   -1    0    0    0  501 -0.00000000000E+00  0.00000000000E+00  0.15273165584E+04  0.15273165584E+04  0.00000000000E+00 0. -1.
          2   -1    0    0  501    0  0.00000000000E+00 -0.00000000000E+00 -0.42900073310E+04  0.42900073310E+04  0.00000000000E+00 0.  1.
         23    2    1    2    0    0  0.21016963489E+04 -0.83710976122E+03 -0.27407343446E+04  0.35549440849E+04  0.90124377153E+02 0.  0.
         11    1    3    3    0    0  0.15056001401E+04 -0.61343376666E+03 -0.19082034575E+04  0.25068652144E+04  0.00000000000E+00 0. -1.
        -11    1    3    3    0    0  0.59609620879E+03 -0.22367599457E+03 -0.83253088712E+03  0.10480788704E+04  0.00000000000E+00 0.  1.
         22    1    1    2    0    0 -0.21016963489E+04  0.83710976122E+03 -0.21956427916E+02  0.22623798045E+04  0.00000000000E+00 0. -1.
<mgrwt>
<rscale>  0 0.51194528E+04</rscale>
<asrwt>0</asrwt>
<pdfrwt beam="1">  1        2 0.66000112E+00 0.51194528E+04</pdfrwt>
<pdfrwt beam="2">  1       -2 0.23497178E+00 0.51194528E+04</pdfrwt>
<totfact> 0.11033754E-02</totfact>
</mgrwt>
</event>
<event>
 6    1  0.5520868E-004  0.2249581E+04  0.7818608E-02  0.8498070E-01
         -2   -1    0    0    0  501 -0.00000000000E+00  0.00000000000E+00  0.74693422332E+03  0.74693422332E+03  0.00000000000E+00 0. -1.
          2   -1    0    0  501    0  0.00000000000E+00 -0.00000000000E+00 -0.16937958953E+04  0.16937958953E+04  0.00000000000E+00 0.  1.
         23    2    1    2    0    0  0.19150187039E+03 -0.94336702650E+03 -0.11016259689E+04  0.14657602213E+04  0.90878698229E+02 0.  0.
         11    1    3    3    0    0  0.65872978032E+02 -0.53862372299E+03 -0.64090321911E+03  0.83976883752E+03  0.00000000000E+00 0. -1.
        -11    1    3    3    0    0  0.12562889236E+03 -0.40474330351E+03 -0.46072274984E+03  0.62599138377E+03  0.00000000000E+00 0.  1.
         22    1    1    2    0    0 -0.19150187039E+03  0.94336702650E+03  0.15476429699E+03  0.97496989732E+03  0.00000000000E+00 0.  1.
<mgrwt>
<rscale>  0 0.22495814E+04</rscale>
<asrwt>0</asrwt>
<pdfrwt beam="1">  1        2 0.26058398E+00 0.22495814E+04</pdfrwt>
<pdfrwt beam="2">  1       -2 0.11491296E+00 0.22495814E+04</pdfrwt>
<totfact> 0.53165917E+00</totfact>
</mgrwt>
</event>
<event>
 6    1  0.5040916E-004  0.1565713E+04  0.7818608E-02  0.8841893E-01
          2   -1    0    0  501    0  0.00000000000E+00  0.00000000000E+00  0.15977021253E+04  0.15977021253E+04  0.00000000000E+00 0.  1.
         -2   -1    0    0    0  501 -0.00000000000E+00 -0.00000000000E+00 -0.38359126005E+03  0.38359126005E+03  0.00000000000E+00 0. -1.
         23    2    1    2    0    0  0.69320961086E+02 -0.49349303485E+03 -0.15051560393E+03  0.52852149290E+03  0.91319495908E+02 0.  0.
         13    1    3    3    0    0 -0.12060776868E+02 -0.54519726239E+02 -0.39724672535E+02  0.68526728332E+02  0.00000000000E+00 0. -1.
        -13    1    3    3    0    0  0.81381737954E+02 -0.43897330861E+03 -0.11079093140E+03  0.45999476456E+03  0.00000000000E+00 0.  1.
         22    1    1    2    0    0 -0.69320961086E+02  0.49349303485E+03  0.13646264691E+04  0.14527718924E+04  0.00000000000E+00 0.  1.
<mgrwt>
<rscale>  0 0.15657133E+04</rscale>
<asrwt>0</asrwt>
<pdfrwt beam="1">  1        2 0.24580032E+00 0.15657133E+04</pdfrwt>
<pdfrwt beam="2">  1       -2 0.59014041E-01 0.15657133E+04</pdfrwt>
<totfact> 0.28839953E+01</totfact>
</mgrwt>
</event>
<event>
 6    1  0.5354040E-004  0.2787192E+04  0.7818608E-02  0.8307256E-01
          2   -1    0    0  501    0  0.00000000000E+00  0.00000000000E+00  0.14376203292E+04  0.14376203292E+04  0.00000000000E+00 0.  1.
         -2   -1    0    0    0  501 -0.00000000000E+00 -0.00000000000E+00 -0.13509200202E+04  0.13509200202E+04  0.00000000000E+00 0. -1.
         23    2    1    2    0    0 -0.41124997878E+03 -0.28634454694E+03  0.13432262471E+04  0.14357738590E+04  0.77910709891E+02 0.  0.
         13    1    3    3    0    0 -0.24965301651E+03 -0.12813374798E+03  0.77104843284E+03  0.82052457111E+03  0.00000000000E+00 0.  1.
        -13    1    3    3    0    0 -0.16159696227E+03 -0.15821079896E+03  0.57217781426E+03  0.61524928789E+03  0.00000000000E+00 0. -1.
         22    1    1    2    0    0  0.41124997878E+03  0.28634454694E+03 -0.12565259380E+04  0.13527664904E+04  0.00000000000E+00 0. -1.
<mgrwt>
<rscale>  0 0.27871922E+04</rscale>
<asrwt>0</asrwt>
<pdfrwt beam="1">  1        2 0.22117236E+00 0.27871922E+04</pdfrwt>
<pdfrwt beam="2">  1       -2 0.20783385E+00 0.27871922E+04</pdfrwt>
<totfact> 0.14186893E+00</totfact>
</mgrwt>
</event>
<event>
 6    1  0.5040916E-004  0.2452606E+04  0.7818608E-02  0.8420067E-01
          2   -1    0    0  501    0  0.00000000000E+00  0.00000000000E+00  0.22423867690E+04  0.22423867690E+04  0.00000000000E+00 0.  1.
         -2   -1    0    0    0  501 -0.00000000000E+00 -0.00000000000E+00 -0.67063341064E+03  0.67063341064E+03  0.00000000000E+00 0. -1.
         23    2    1    2    0    0 -0.46857806628E+03 -0.90401659060E+03 -0.21066457852E+02  0.10225476548E+04  0.91370183464E+02 0.  0.
         13    1    3    3    0    0 -0.13435491314E+03 -0.32124550835E+03  0.25392390188E+02  0.34913420456E+03  0.00000000000E+00 0. -1.
        -13    1    3    3    0    0 -0.33422315314E+03 -0.58277108225E+03 -0.46458848040E+02  0.67341345024E+03  0.00000000000E+00 0.  1.
         22    1    1    2    0    0  0.46857806628E+03  0.90401659060E+03  0.15928198162E+04  0.18904725249E+04  0.00000000000E+00 0.  1.
<mgrwt>
<rscale>  0 0.24526064E+04</rscale>
<asrwt>0</asrwt>
<pdfrwt beam="1">  1        2 0.34498258E+00 0.24526064E+04</pdfrwt>
<pdfrwt beam="2">  1       -2 0.10317437E+00 0.24526064E+04</pdfrwt>
<totfact> 0.33543856E+00</totfact>
</mgrwt>
</event>
<event>
 6    1  0.5040916E-004  0.3169361E+04  0.7818608E-02  0.8196956E-01
          2   -1    0    0  501    0  0.00000000000E+00  0.00000000000E+00  0.29055858770E+04  0.29055858770E+04  0.00000000000E+00 0.  1.
         -2   -1    0    0    0  501 -0.00000000000E+00 -0.00000000000E+00 -0.86427045711E+03  0.86427045711E+03  0.00000000000E+00 0. -1.
         23    2    1    2    0    0 -0.72004915568E+03 -0.57043742218E+03  0.25554973817E+04  0.27171205034E+04  0.91144516492E+02 0.  0.
         11    1    3    3    0    0 -0.52146333550E+02 -0.75837707626E+02  0.25360925819E+03  0.26979298331E+03  0.00000000000E+00 0. -1.
        -11    1    3    3    0    0 -0.66790282213E+03 -0.49459971455E+03  0.23018881235E+04  0.24473275201E+04  0.00000000000E+00 0.  1.
         22    1    1    2    0    0  0.72004915568E+03  0.57043742218E+03 -0.51418196187E+03  0.10527358306E+04  0.00000000000E+00 0. -1.
<mgrwt>
<rscale>  0 0.31693608E+04</rscale>
<asrwt>0</asrwt>
<pdfrwt beam="1">  1        2 0.44701321E+00 0.31693608E+04</pdfrwt>
<pdfrwt beam="2">  1       -2 0.13296469E+00 0.31693608E+04</pdfrwt>
<totfact> 0.68966225E-01</totfact>
</mgrwt>
</event>
<event>
 6    1  0.5040916E-004  0.7167549E+04  0.7818608E-02  0.7560399E-01
         -2   -1    0    0    0  501 -0.00000000000E+00  0.00000000000E+00  0.26959162931E+04  0.26959162931E+04  0.00000000000E+00 0. -1.
          2   -1    0    0  501    0  0.00000000000E+00 -0.00000000000E+00 -0.47640350775E+04  0.47640350775E+04  0.00000000000E+00 0.  1.
         23    2    1    2    0    0 -0.27398467441E+04  0.20766449031E+04 -0.20855784996E+04  0.40219986257E+04  0.87298523777E+02 0.  0.
         11    1    3    3    0    0 -0.11942024584E+04  0.86930907280E+03 -0.85805918882E+03  0.17082398389E+04  0.00000000000E+00 0.  1.
        -11    1    3    3    0    0 -0.15456442857E+04  0.12073358303E+04 -0.12275193108E+04  0.23137587868E+04  0.00000000000E+00 0. -1.
         22    1    1    2    0    0  0.27398467441E+04 -0.20766449031E+04  0.17459715198E+02  0.34379527449E+04  0.00000000000E+00 0. -1.
<mgrwt>
<rscale>  0 0.71675490E+04</rscale>
<asrwt>0</asrwt>
<pdfrwt beam="1">  1        2 0.73292847E+00 0.71675490E+04</pdfrwt>
<pdfrwt beam="2">  1       -2 0.41475635E+00 0.71675490E+04</pdfrwt>
<totfact> 0.23500750E-04</totfact>
</mgrwt>
</event>
<event>
 6    1  0.5040916E-004  0.2155726E+04  0.7818608E-02  0.8537085E-01
          2   -1    0    0  501    0  0.00000000000E+00  0.00000000000E+00  0.20055002759E+04  0.20055002759E+04  0.00000000000E+00 0.  1.
         -2   -1    0    0    0  501 -0.00000000000E+00 -0.00000000000E+00 -0.57930133319E+03  0.57930133319E+03  0.00000000000E+00 0. -1.
         23    2    1    2    0    0  0.61869024425E+03  0.24526355245E+03 -0.29932299852E+03  0.73538067319E+03  0.90877106973E+02 0.  0.
         13    1    3    3    0    0  0.56131051554E+03  0.19837529440E+03 -0.24634192952E+03  0.64428766752E+03  0.00000000000E+00 0.  1.
        -13    1    3    3    0    0  0.57379728717E+02  0.46888258049E+02 -0.52981068996E+02  0.91093005673E+02  0.00000000000E+00 0. -1.
         22    1    1    2    0    0 -0.61869024425E+03 -0.24526355245E+03  0.17255219412E+04  0.18494209359E+04  0.00000000000E+00 0.  1.
<mgrwt>
<rscale>  0 0.21557263E+04</rscale>
<asrwt>0</asrwt>
<pdfrwt beam="1">  1        2 0.30853850E+00 0.21557263E+04</pdfrwt>
<pdfrwt beam="2">  1       -2 0.89123283E-01 0.21557263E+04</pdfrwt>
<totfact> 0.65781023E+00</totfact>
</mgrwt>
</event>
<event>
 6    1  0.5040916E-004  0.9734811E+04  0.7818608E-02  0.7346706E-01
          2   -1    0    0  501    0  0.00000000000E+00  0.00000000000E+00  0.46047125092E+04  0.46047125092E+04  0.00000000000E+00 0.  1.
         -2   -1    0    0    0  501 -0.00000000000E+00 -0.00000000000E+00 -0.51450850665E+04  0.51450850665E+04  0.00000000000E+00 0. -1.
         23    2    1    2    0    0  0.46562038858E+04  0.14164473863E+04 -0.23934506100E+03  0.48736130654E+04  0.90886900245E+02 0.  0.
         13    1    3    3    0    0  0.29978815659E+04  0.94793527870E+03 -0.18119713512E+03  0.31493979707E+04  0.00000000000E+00 0.  1.
        -13    1    3    3    0    0  0.16583223199E+04  0.46851210761E+03 -0.58147925880E+02  0.17242150948E+04  0.00000000000E+00 0. -1.
         22    1    1    2    0    0 -0.46562038858E+04 -0.14164473863E+04 -0.30102749625E+03  0.48761845103E+04  0.00000000000E+00 0.  1.
<mgrwt>
<rscale>  0 0.97348113E+04</rscale>
<asrwt>0</asrwt>
<pdfrwt beam="1">  1        2 0.70841731E+00 0.97348113E+04</pdfrwt>
<pdfrwt beam="2">  1       -2 0.79155155E+00 0.97348113E+04</pdfrwt>
<totfact> 0.43446324E-06</totfact>
</mgrwt>
</event>
<event>
 6    1  0.5040916E-004  0.2969275E+04  0.7818608E-02  0.8252559E-01
          2   -1    0    0  501    0  0.00000000000E+00  0.00000000000E+00  0.22523858823E+04  0.22523858823E+04  0.00000000000E+00 0.  1.
         -2   -1    0    0    0  501 -0.00000000000E+00 -0.00000000000E+00 -0.97858369926E+03  0.97858369926E+03  0.00000000000E+00 0. -1.
         23    2    1    2    0    0  0.70504618334E+03  0.13045597010E+04  0.67276838303E+03  0.16309046570E+04  0.90920673804E+02 0.  0.
         11    1    3    3    0    0  0.39129697410E+03  0.74108377182E+03  0.42870102178E+03  0.94133046528E+03  0.00000000000E+00 0.  1.
        -11    1    3    3    0    0  0.31374920924E+03  0.56347592915E+03  0.24406736125E+03  0.68957419170E+03  0.00000000000E+00 0. -1.
         22    1    1    2    0    0 -0.70504618334E+03 -0.13045597010E+04  0.60103379997E+03  0.16000649245E+04  0.00000000000E+00 0.  1.
<mgrwt>
<rscale>  0 0.29692747E+04</rscale>
<asrwt>0</asrwt>
<pdfrwt beam="1">  1        2 0.34652090E+00 0.29692747E+04</pdfrwt>
<pdfrwt beam="2">  1       -2 0.15055134E+00 0.29692747E+04</pdfrwt>
<totfact> 0.12283134E+00</totfact>
</mgrwt>
</event>
<event>
 6    1  0.5040916E-004  0.4975276E+04  0.7818608E-02  0.7832332E-01
         -2   -1    0    0    0  501 -0.00000000000E+00  0.00000000000E+00  0.20061723122E+04  0.20061723122E+04  0.00000000000E+00 0. -1.
          2   -1    0    0  501    0  0.00000000000E+00 -0.00000000000E+00 -0.30846516345E+04  0.30846516345E+04  0.00000000000E+00 0.  1.
         23    2    1    2    0    0 -0.11730907742E+04  0.17115920698E+04 -0.19420723549E+04  0.28432736572E+04  0.82889567897E+02 0.  0.
         13    1    3    3    0    0 -0.70237017152E+03  0.10948919272E+04 -0.12081802609E+04  0.17753342595E+04  0.00000000000E+00 0.  1.
        -13    1    3    3    0    0 -0.47072060263E+03  0.61670014258E+03 -0.73389209392E+03  0.10679393977E+04  0.00000000000E+00 0. -1.
         22    1    1    2    0    0  0.11730907742E+04 -0.17115920698E+04  0.86359303256E+03  0.22475502895E+04  0.00000000000E+00 0. -1.
<mgrwt>
<rscale>  0 0.49752760E+04</rscale>
<asrwt>0</asrwt>
<pdfrwt beam="1">  1        2 0.47456179E+00 0.49752760E+04</pdfrwt>
<pdfrwt beam="2">  1       -2 0.30864190E+00 0.49752760E+04</pdfrwt>
<totfact> 0.31563528E-02</totfact>
</mgrwt>
</event>
<event>
 6    1  0.5040916E-004  0.1215002E+04  0.7818608E-02  0.9099825E-01
          2   -1    0    0  501    0  0.00000000000E+00  0.00000000000E+00  0.95981295055E+03  0.95981295055E+03  0.00000000000E+00 0.  1.
         -2   -1    0    0    0  501 -0.00000000000E+00 -0.00000000000E+00 -0.38451004488E+03  0.38451004488E+03  0.00000000000E+00 0. -1.
         23    2    1    2    0    0 -0.21618293508E+03  0.22848798300E+03  0.86001988948E+03  0.92005234989E+03  0.88996047349E+02 0.  0.
         11    1    3    3    0    0 -0.84380995371E+02  0.38482224183E+02  0.30493422895E+03  0.31872545858E+03  0.00000000000E+00 0. -1.
        -11    1    3    3    0    0 -0.13180193971E+03  0.19000575882E+03  0.55508566053E+03  0.60132689131E+03  0.00000000000E+00 0.  1.
         22    1    1    2    0    0  0.21618293508E+03 -0.22848798300E+03 -0.28471698381E+03  0.42427064554E+03  0.00000000000E+00 0. -1.
<mgrwt>
<rscale>  0 0.12150024E+04</rscale>
<asrwt>0</asrwt>
<pdfrwt beam="1">  1        2 0.14766353E+00 0.12150024E+04</pdfrwt>
<pdfrwt beam="2">  1       -2 0.59155392E-01 0.12150024E+04</pdfrwt>
<totfact> 0.70381874E+01</totfact>
</mgrwt>
</event>
<event>
 6    1  0.5040916E-004  0.2290061E+04  0.7818608E-02  0.8481850E-01
          2   -1    0    0  501    0  0.00000000000E+00  0.00000000000E+00  0.14957461084E+04  0.14957461084E+04  0.00000000000E+00 0.  1.
         -2   -1    0    0    0  501 -0.00000000000E+00 -0.00000000000E+00 -0.87654871580E+03  0.87654871580E+03  0.00000000000E+00 0. -1.
         23    2    1    2    0    0  0.43887538362E+03  0.13634360762E+03  0.13944378349E+04  0.14710740271E+04  0.91655530131E+02 0.  0.
         13    1    3    3    0    0  0.12179727219E+03  0.82191840818E+02  0.43228483808E+03  0.45657447963E+03  0.00000000000E+00 0. -1.
        -13    1    3    3    0    0  0.31707811143E+03  0.54151766799E+02  0.96215299681E+03  0.10144995475E+04  0.00000000000E+00 0.  1.
         22    1    1    2    0    0 -0.43887538362E+03 -0.13634360762E+03 -0.77524044230E+03  0.90122079706E+03  0.00000000000E+00 0. -1.
<mgrwt>
<rscale>  0 0.22900605E+04</rscale>
<asrwt>0</asrwt>
<pdfrwt beam="1">  1        2 0.23011479E+00 0.22900605E+04</pdfrwt>
<pdfrwt beam="2">  1       -2 0.13485365E+00 0.22900605E+04</pdfrwt>
<totfact> 0.45826417E+00</totfact>
</mgrwt>
</event>
<event>
 6    1  0.5040916E-004  0.2434038E+04  0.7818608E-02  0.8426869E-01
          2   -1    0    0  501    0  0.00000000000E+00  0.00000000000E+00  0.40135159808E+04  0.40135159808E+04  0.00000000000E+00 0.  1.
         -2   -1    0    0    0  501 -0.00000000000E+00 -0.00000000000E+00 -0.36903695674E+03  0.36903695674E+03  0.00000000000E+00 0. -1.
         23    2    1    2    0    0  0.34745334011E+03 -0.11407079933E+04  0.14004301386E+04  0.18413536242E+04  0.86255706345E+02 0.  0.
         11    1    3    3    0    0  0.13816500099E+03 -0.56648058327E+03  0.72671806453E+03  0.93172365218E+03  0.00000000000E+00 0. -1.
        -11    1    3    3    0    0  0.20928833911E+03 -0.57422741004E+03  0.67371207402E+03  0.90962997203E+03  0.00000000000E+00 0.  1.
         22    1    1    2    0    0 -0.34745334011E+03  0.11407079933E+04  0.22440488855E+04  0.25411993134E+04  0.00000000000E+00 0.  1.
<mgrwt>
<rscale>  0 0.24340384E+04</rscale>
<asrwt>0</asrwt>
<pdfrwt beam="1">  1        2 0.61746397E+00 0.24340384E+04</pdfrwt>
<pdfrwt beam="2">  1       -2 0.56774919E-01 0.24340384E+04</pdfrwt>
<totfact> 0.87403789E-01</totfact>
</mgrwt>
</event>
<event>
 6    1  0.5040916E-004  0.6404981E+03  0.7818608E-02  0.9824774E-01
         -2   -1    0    0    0  501 -0.00000000000E+00  0.00000000000E+00  0.14214474723E+03  0.14214474723E+03  0.00000000000E+00 0. -1.
          2   -1    0    0  501    0  0.00000000000E+00 -0.00000000000E+00 -0.72151428731E+03  0.72151428731E+03  0.00000000000E+00 0.  1.
         23    2    1    2    0    0 -0.26822542874E+01  0.16026526347E+03  0.67948567161E+02  0.19679107075E+03  0.91747308321E+02 0.  0.
         11    1    3    3    0    0 -0.39172177860E+02  0.13384990207E+03  0.55021211308E+02  0.14992527971E+03  0.00000000000E+00 0.  1.
        -11    1    3    3    0    0  0.36489923572E+02  0.26415361396E+02  0.12927355854E+02  0.46865791036E+02  0.00000000000E+00 0. -1.
         22    1    1    2    0    0  0.26822542874E+01 -0.16026526347E+03 -0.64731810724E+03  0.66686796379E+03  0.00000000000E+00 0.  1.
<mgrwt>
<rscale>  0 0.64049814E+03</rscale>
<asrwt>0</asrwt>
<pdfrwt beam="1">  1        2 0.11100220E+00 0.64049814E+03</pdfrwt>
<pdfrwt beam="2">  1       -2 0.21868423E-01 0.64049814E+03</pdfrwt>
<totfact> 0.72244769E+02</totfact>
</mgrwt>
</event>
<event>
 6    1  0.5040916E-004  0.2019002E+04  0.7818608E-02  0.8597788E-01
         -2   -1    0    0    0  501 -0.00000000000E+00  0.00000000000E+00  0.71641028984E+03  0.71641028984E+03  0.00000000000E+00 0. -1.
          2   -1    0    0  501    0  0.00000000000E+00 -0.00000000000E+00 -0.14224979284E+04  0.14224979284E+04  0.00000000000E+00 0.  1.
         23    2    1    2    0    0 -0.50518381608E+03  0.86402459004E+03 -0.23128312422E+03  0.10311228117E+04  0.89292714949E+02 0.  0.
         13    1    3    3    0    0 -0.16328247265E+03  0.24218820792E+03 -0.30764537305E+02  0.29370521051E+03  0.00000000000E+00 0.  1.
        -13    1    3    3    0    0 -0.34190134343E+03  0.62183638212E+03 -0.20051858691E+03  0.73741760114E+03  0.00000000000E+00 0. -1.
         22    1    1    2    0    0  0.50518381608E+03 -0.86402459004E+03 -0.47480451434E+03  0.11077854066E+04  0.00000000000E+00 0. -1.
<mgrwt>
<rscale>  0 0.20190019E+04</rscale>
<asrwt>0</asrwt>
<pdfrwt beam="1">  1        2 0.21884583E+00 0.20190019E+04</pdfrwt>
<pdfrwt beam="2">  1       -2 0.11021697E+00 0.20190019E+04</pdfrwt>
<totfact> 0.85224972E+00</totfact>
</mgrwt>
</event>
<event>
 6    1  0.5420138E-004  0.4591907E+04  0.7818608E-02  0.7894741E-01
          2   -1    0    0  501    0  0.00000000000E+00  0.00000000000E+00  0.23134491595E+04  0.23134491595E+04  0.00000000000E+00 0.  1.
         -2   -1    0    0    0  501 -0.00000000000E+00 -0.00000000000E+00 -0.22785899046E+04  0.22785899046E+04  0.00000000000E+00 0. -1.
         23    2    1    2    0    0  0.99703610694E+03  0.98513498472E+03  0.18348637059E+04  0.23106824588E+04  0.89200166371E+02 0.  0.
         13    1    3    3    0    0  0.45925054983E+03  0.43228649393E+03  0.75722893975E+03  0.98548381395E+03  0.00000000000E+00 0.  1.
        -13    1    3    3    0    0  0.53778555711E+03  0.55284849078E+03  0.10776347661E+04  0.13251986449E+04  0.00000000000E+00 0. -1.
         22    1    1    2    0    0 -0.99703610694E+03 -0.98513498472E+03 -0.18000044510E+04  0.22813566052E+04  0.00000000000E+00 0. -1.
<mgrwt>
<rscale>  0 0.45919067E+04</rscale>
<asrwt>0</asrwt>
<pdfrwt beam="1">  1        2 0.35591526E+00 0.45919067E+04</pdfrwt>
<pdfrwt beam="2">  1       -2 0.35055229E+00 0.45919067E+04</pdfrwt>
<totfact> 0.51708955E-02</totfact>
</mgrwt>
</event>
<event>
 6    1  0.5040916E-004  0.2899964E+04  0.7818608E-02  0.8272888E-01
          2   -1    0    0  501    0  0.00000000000E+00  0.00000000000E+00  0.12488818313E+04  0.12488818313E+04  0.00000000000E+00 0.  1.
         -2   -1    0    0    0  501 -0.00000000000E+00 -0.00000000000E+00 -0.16834639032E+04  0.16834639032E+04  0.00000000000E+00 0. -1.
         23    2    1    2    0    0 -0.66064479135E+03  0.45691492582E+03 -0.14363681514E+04  0.16482903857E+04  0.92113731373E+02 0.  0.
         13    1    3    3    0    0 -0.48039312028E+03  0.36651583973E+03 -0.10170600072E+04  0.11830141458E+04  0.00000000000E+00 0. -1.
        -13    1    3    3    0    0 -0.18025167107E+03  0.90399086083E+02 -0.41930814414E+03  0.46527623992E+03  0.00000000000E+00 0.  1.
         22    1    1    2    0    0  0.66064479135E+03 -0.45691492582E+03  0.10017860795E+04  0.12840553489E+04  0.00000000000E+00 0.  1.
<mgrwt>
<rscale>  0 0.28999638E+04</rscale>
<asrwt>0</asrwt>
<pdfrwt beam="1">  1        2 0.19213567E+00 0.28999638E+04</pdfrwt>
<pdfrwt beam="2">  1       -2 0.25899444E+00 0.28999638E+04</pdfrwt>
<totfact> 0.86517889E-01</totfact>
</mgrwt>
</event>
<event>
 6    1  0.5040916E-004  0.3112403E+04  0.7818608E-02  0.8212342E-01
          2   -1    0    0  501    0  0.00000000000E+00  0.00000000000E+00  0.10672377402E+04  0.10672377402E+04  0.00000000000E+00 0.  1.
         -2   -1    0    0    0  501 -0.00000000000E+00 -0.00000000000E+00 -0.22691882106E+04  0.22691882106E+04  0.00000000000E+00 0. -1.
         23    2    1    2    0    0 -0.13885443357E+04  0.53974490834E+03 -0.10789103005E+04  0.18415952508E+04  0.89697785771E+02 0.  0.
         11    1    3    3    0    0 -0.67434920769E+03  0.30969327043E+03 -0.52810656324E+03  0.91079817621E+03  0.00000000000E+00 0.  1.
        -11    1    3    3    0    0 -0.71419512804E+03  0.23005163791E+03 -0.55080373724E+03  0.93079707454E+03  0.00000000000E+00 0. -1.
         22    1    1    2    0    0  0.13885443357E+04 -0.53974490834E+03 -0.12304016997E+03  0.14948307000E+04  0.00000000000E+00 0.  1.
<mgrwt>
<rscale>  0 0.31124031E+04</rscale>
<asrwt>0</asrwt>
<pdfrwt beam="1">  1        2 0.16419042E+00 0.31124031E+04</pdfrwt>
<pdfrwt beam="2">  1       -2 0.34910588E+00 0.31124031E+04</pdfrwt>
<totfact> 0.30512131E-01</totfact>
</mgrwt>
</event>
<event>
 6    1  0.5040916E-004  0.1973595E+04  0.7818608E-02  0.8619066E-01
          2   -1    0    0  501    0  0.00000000000E+00  0.00000000000E+00  0.25266410496E+04  0.25266410496E+04  0.00000000000E+00 0.  1.
         -2   -1    0    0    0  501 -0.00000000000E+00 -0.00000000000E+00 -0.38540059102E+03  0.38540059102E+03  0.00000000000E+00 0. -1.
         23    2    1    2    0    0 -0.77145376295E+03 -0.15866046967E+03  0.20070256820E+03  0.81776339813E+03  0.90229714801E+02 0.  0.
         11    1    3    3    0    0 -0.23610309219E+03 -0.18333619772E+02  0.30642454310E+02  0.23878808966E+03  0.00000000000E+00 0. -1.
        -11    1    3    3    0    0 -0.53535067075E+03 -0.14032684990E+03  0.17006011389E+03  0.57897530847E+03  0.00000000000E+00 0.  1.
         22    1    1    2    0    0  0.77145376295E+03  0.15866046967E+03  0.19405378904E+04  0.20942782425E+04  0.00000000000E+00 0.  1.
<mgrwt>
<rscale>  0 0.19735946E+04</rscale>
<asrwt>0</asrwt>
<pdfrwt beam="1">  1        2 0.38871400E+00 0.19735946E+04</pdfrwt>
<pdfrwt beam="2">  1       -2 0.59292400E-01 0.19735946E+04</pdfrwt>
<totfact> 0.83117866E+00</totfact>
</mgrwt>
</event>
<event>
 6    1  0.5040916E-004  0.4696196E+03  0.7818608E-02  0.1022028E+00
         -1   -1    0    0    0  501 -0.00000000000E+00  0.00000000000E+00  0.20693191199E+03  0.20693191199E+03  0.00000000000E+00 0.  1.
          1   -1    0    0  501    0  0.00000000000E+00 -0.00000000000E+00 -0.26644340573E+03  0.26644340573E+03  0.00000000000E+00 0. -1.
         23    2    1    2    0    0  0.29578019904E+02  0.22478692294E+03 -0.31453363018E+02  0.24492121143E+03  0.87138199305E+02 0.  0.
         11    1    3    3    0    0  0.57116583998E+02  0.10165463312E+03 -0.11306578805E+02  0.11714865483E+03  0.00000000000E+00 0.  1.
        -11    1    3    3    0    0 -0.27538564094E+02  0.12313228981E+03 -0.20146784214E+02  0.12777255660E+03  0.00000000000E+00 0. -1.
         22    1    1    2    0    0 -0.29578019904E+02 -0.22478692294E+03 -0.28058130718E+02  0.22845410630E+03  0.00000000000E+00 0.  1.
<mgrwt>
<rscale>  0 0.46961961E+03</rscale>
<asrwt>0</asrwt>
<pdfrwt beam="1">  1        1 0.40991293E-01 0.46961961E+03</pdfrwt>
<pdfrwt beam="2">  1       -1 0.31835679E-01 0.46961961E+03</pdfrwt>
<totfact> 0.94290006E+02</totfact>
</mgrwt>
</event>
<event>
 6    1  0.5040916E-004  0.1548258E+04  0.7818608E-02  0.8852981E-01
         -2   -1    0    0    0  501 -0.00000000000E+00  0.00000000000E+00  0.32557374138E+03  0.32557374138E+03  0.00000000000E+00 0. -1.
          2   -1    0    0  501    0  0.00000000000E+00 -0.00000000000E+00 -0.18406758299E+04  0.18406758299E+04  0.00000000000E+00 0.  1.
         23    2    1    2    0    0 -0.44717502537E+03  0.55597286906E+03 -0.34740452156E+03  0.79782385451E+03  0.82229354711E+02 0.  0.
         11    1    3    3    0    0 -0.20929495803E+03  0.30512031045E+03 -0.14629854604E+03  0.39787692554E+03  0.00000000000E+00 0. -1.
        -11    1    3    3    0    0 -0.23788006734E+03  0.25085255861E+03 -0.20110597552E+03  0.39994692896E+03  0.00000000000E+00 0.  1.
         22    1    1    2    0    0  0.44717502537E+03 -0.55597286906E+03 -0.11676975670E+04  0.13684257168E+04  0.00000000000E+00 0.  1.
<mgrwt>
<rscale>  0 0.15482580E+04</rscale>
<asrwt>0</asrwt>
<pdfrwt beam="1">  1        2 0.28318090E+00 0.15482580E+04</pdfrwt>
<pdfrwt beam="2">  1       -2 0.50088268E-01 0.15482580E+04</pdfrwt>
<totfact> 0.29735550E+01</totfact>
</mgrwt>
</event>
<event>
 6    1  0.5040916E-004  0.2054471E+04  0.7818608E-02  0.8581569E-01
         -2   -1    0    0    0  501 -0.00000000000E+00  0.00000000000E+00  0.10233618084E+04  0.10233618084E+04  0.00000000000E+00 0. -1.
          2   -1    0    0  501    0  0.00000000000E+00 -0.00000000000E+00 -0.10311235373E+04  0.10311235373E+04  0.00000000000E+00 0.  1.
         23    2    1    2    0    0  0.23619062654E+03 -0.65558990074E+03 -0.75581966140E+03  0.10321474366E+04  0.92091478164E+02 0.  0.
         13    1    3    3    0    0  0.16658156362E+03 -0.38710463221E+03 -0.40036827571E+03  0.58128665030E+03  0.00000000000E+00 0.  1.
        -13    1    3    3    0    0  0.69609062919E+02 -0.26848526853E+03 -0.35545138569E+03  0.45086078633E+03  0.00000000000E+00 0. -1.
         22    1    1    2    0    0 -0.23619062654E+03  0.65558990074E+03  0.74805793250E+03  0.10223379091E+04  0.00000000000E+00 0. -1.
<mgrwt>
<rscale>  0 0.20544707E+04</rscale>
<asrwt>0</asrwt>
<pdfrwt beam="1">  1        2 0.15863439E+00 0.20544707E+04</pdfrwt>
<pdfrwt beam="2">  1       -2 0.15744028E+00 0.20544707E+04</pdfrwt>
<totfact> 0.58565412E+00</totfact>
</mgrwt>
</event>
<event>
 6    1  0.5040916E-004  0.2396697E+04  0.7818608E-02  0.8440741E-01
          2   -1    0    0  501    0  0.00000000000E+00  0.00000000000E+00  0.24035903919E+04  0.24035903919E+04  0.00000000000E+00 0.  1.
         -2   -1    0    0    0  501 -0.00000000000E+00 -0.00000000000E+00 -0.59745576003E+03  0.59745576003E+03  0.00000000000E+00 0. -1.
         23    2    1    2    0    0 -0.78979756445E+02  0.90561953830E+03 -0.70020718720E+02  0.91625756562E+03  0.90777064488E+02 0.  0.
         13    1    3    3    0    0  0.74577517277E+01  0.39027799364E+03 -0.47545456152E+02  0.39323415516E+03  0.00000000000E+00 0. -1.
        -13    1    3    3    0    0 -0.86437508173E+02  0.51534154465E+03 -0.22475262567E+02  0.52302341046E+03  0.00000000000E+00 0.  1.
         22    1    1    2    0    0  0.78979756445E+02 -0.90561953830E+03  0.18761553506E+04  0.20847885863E+04  0.00000000000E+00 0.  1.
<mgrwt>
<rscale>  0 0.23966968E+04</rscale>
<asrwt>0</asrwt>
<pdfrwt beam="1">  1        2 0.36978313E+00 0.23966968E+04</pdfrwt>
<pdfrwt beam="2">  1       -2 0.91916272E-01 0.23966968E+04</pdfrwt>
<totfact> 0.35815606E+00</totfact>
</mgrwt>
</event>
<event>
 6    1  0.5040916E-004  0.6771446E+03  0.7818608E-02  0.9757137E-01
         -2   -1    0    0    0  501 -0.00000000000E+00  0.00000000000E+00  0.36370980557E+03  0.36370980557E+03  0.00000000000E+00 0. -1.
          2   -1    0    0  501    0  0.00000000000E+00 -0.00000000000E+00 -0.31517214832E+03  0.31517214832E+03  0.00000000000E+00 0.  1.
         23    2    1    2    0    0  0.45795285128E+02  0.32896195721E+03  0.38222690475E+02  0.34658754231E+03  0.91371620254E+02 0.  0.
         13    1    3    3    0    0  0.24932804979E+02  0.23089340394E+03  0.68017154601E+02  0.24199120246E+03  0.00000000000E+00 0.  1.
        -13    1    3    3    0    0  0.20862480149E+02  0.98068553269E+02 -0.29794464125E+02  0.10459633985E+03  0.00000000000E+00 0. -1.
         22    1    1    2    0    0 -0.45795285128E+02 -0.32896195721E+03  0.10314966780E+02  0.33229441158E+03  0.00000000000E+00 0.  1.
<mgrwt>
<rscale>  0 0.67714460E+03</rscale>
<asrwt>0</asrwt>
<pdfrwt beam="1">  1        2 0.48488023E-01 0.67714460E+03</pdfrwt>
<pdfrwt beam="2">  1       -2 0.55955354E-01 0.67714460E+03</pdfrwt>
<totfact> 0.31468284E+02</totfact>
</mgrwt>
</event>
<event>
 6    1  0.5040916E-004  0.2780593E+04  0.7818608E-02  0.8309319E-01
          2   -1    0    0  501    0  0.00000000000E+00  0.00000000000E+00  0.20815431184E+04  0.20815431184E+04  0.00000000000E+00 0.  1.
         -2   -1    0    0    0  501 -0.00000000000E+00 -0.00000000000E+00 -0.92860136988E+03  0.92860136988E+03  0.00000000000E+00 0. -1.
         23    2    1    2    0    0  0.42588974195E+03  0.80542782704E+03  0.17117793101E+04  0.19413154667E+04  0.91767521042E+02 0.  0.
         11    1    3    3    0    0  0.24788303238E+03  0.38721556936E+03  0.80667892431E+03  0.92850028638E+03  0.00000000000E+00 0. -1.
        -11    1    3    3    0    0  0.17800670958E+03  0.41821225768E+03  0.90510038584E+03  0.10128151804E+04  0.00000000000E+00 0.  1.
         22    1    1    2    0    0 -0.42588974195E+03 -0.80542782704E+03 -0.55883756166E+03  0.10688290215E+04  0.00000000000E+00 0. -1.
<mgrwt>
<rscale>  0 0.27805926E+04</rscale>
<asrwt>0</asrwt>
<pdfrwt beam="1">  1        2 0.32023740E+00 0.27805926E+04</pdfrwt>
<pdfrwt beam="2">  1       -2 0.14286175E+00 0.27805926E+04</pdfrwt>
<totfact> 0.17866827E+00</totfact>
</mgrwt>
</event>
<event>
 6    1  0.5040916E-004  0.2064913E+04  0.7818608E-02  0.8576859E-01
         -2   -1    0    0    0  501 -0.00000000000E+00  0.00000000000E+00  0.49305752785E+03  0.49305752785E+03  0.00000000000E+00 0. -1.
          2   -1    0    0  501    0  0.00000000000E+00 -0.00000000000E+00 -0.21619514088E+04  0.21619514088E+04  0.00000000000E+00 0.  1.
         23    2    1    2    0    0  0.14914114628E+03 -0.14447263698E+03 -0.21338208688E+04  0.21458208296E+04  0.90775041419E+02 0.  0.
         13    1    3    3    0    0  0.15057242957E+03 -0.12928522032E+03 -0.16702975878E+04  0.16820465976E+04  0.00000000000E+00 0.  1.
        -13    1    3    3    0    0 -0.14312832881E+01 -0.15187416660E+02 -0.46352328105E+03  0.46377423201E+03  0.00000000000E+00 0. -1.
         22    1    1    2    0    0 -0.14914114628E+03  0.14447263698E+03  0.46492698786E+03  0.50918810707E+03  0.00000000000E+00 0. -1.
<mgrwt>
<rscale>  0 0.20649130E+04</rscale>
<asrwt>0</asrwt>
<pdfrwt beam="1">  1        2 0.33260791E+00 0.20649130E+04</pdfrwt>
<pdfrwt beam="2">  1       -2 0.75855004E-01 0.20649130E+04</pdfrwt>
<totfact> 0.78056624E+00</totfact>
</mgrwt>
</event>
<event>
 6    1  0.5328680E-004  0.2763295E+04  0.7818608E-02  0.8314755E-01
         -2   -1    0    0    0  501 -0.00000000000E+00  0.00000000000E+00  0.10648716109E+04  0.10648716109E+04  0.00000000000E+00 0. -1.
          2   -1    0    0  501    0  0.00000000000E+00 -0.00000000000E+00 -0.17926578100E+04  0.17926578100E+04  0.00000000000E+00 0.  1.
         23    2    1    2    0    0 -0.10205026830E+04 -0.80022441831E+03 -0.85263665665E+03  0.15546969365E+04  0.91150701151E+02 0.  0.
         13    1    3    3    0    0 -0.54297428663E+03 -0.37485523125E+03 -0.40700870534E+03  0.77523777421E+03  0.00000000000E+00 0.  1.
        -13    1    3    3    0    0 -0.47752839641E+03 -0.42536918706E+03 -0.44562795131E+03  0.77945916228E+03  0.00000000000E+00 0. -1.
         22    1    1    2    0    0  0.10205026830E+04  0.80022441831E+03  0.12485045754E+03  0.13028324844E+04  0.00000000000E+00 0. -1.
<mgrwt>
<rscale>  0 0.27632954E+04</rscale>
<asrwt>0</asrwt>
<pdfrwt beam="1">  1        2 0.27579351E+00 0.27632954E+04</pdfrwt>
<pdfrwt beam="2">  1       -2 0.16382640E+00 0.27632954E+04</pdfrwt>
<totfact> 0.17951840E+00</totfact>
</mgrwt>
</event>
<event>
 6    1  0.5040916E-004  0.3428293E+04  0.7818608E-02  0.8130997E-01
          2   -1    0    0  501    0  0.00000000000E+00  0.00000000000E+00  0.28826144160E+04  0.28826144160E+04  0.00000000000E+00 0.  1.
         -2   -1    0    0    0  501 -0.00000000000E+00 -0.00000000000E+00 -0.10193171188E+04  0.10193171188E+04  0.00000000000E+00 0. -1.
         23    2    1    2    0    0  0.54985285342E+02 -0.81294463467E+03 -0.78261050010E+03  0.11334065788E+04  0.90713379958E+02 0.  0.
         13    1    3    3    0    0  0.14269341073E+02 -0.68492679768E+03 -0.66753432685E+03  0.95651994741E+03  0.00000000000E+00 0.  1.
        -13    1    3    3    0    0  0.40715944269E+02 -0.12801783699E+03 -0.11507617325E+03  0.17688663136E+03  0.00000000000E+00 0. -1.
         22    1    1    2    0    0 -0.54985285342E+02  0.81294463467E+03  0.26459077973E+04  0.27685249561E+04  0.00000000000E+00 0.  1.
<mgrwt>
<rscale>  0 0.34282930E+04</rscale>
<asrwt>0</asrwt>
<pdfrwt beam="1">  1        2 0.44347914E+00 0.34282930E+04</pdfrwt>
<pdfrwt beam="2">  1       -2 0.15681802E+00 0.34282930E+04</pdfrwt>
<totfact> 0.45249501E-01</totfact>
</mgrwt>
</event>
<event>
 6    1  0.5040916E-004  0.1532020E+04  0.7818608E-02  0.8863435E-01
         -2   -1    0    0    0  501 -0.00000000000E+00  0.00000000000E+00  0.98943340941E+03  0.98943340941E+03  0.00000000000E+00 0. -1.
          2   -1    0    0  501    0  0.00000000000E+00 -0.00000000000E+00 -0.59303751643E+03  0.59303751643E+03  0.00000000000E+00 0.  1.
         23    2    1    2    0    0  0.18145822118E+03  0.65117645985E+03 -0.16721943630E+03  0.70234587377E+03  0.91485073275E+02 0.  0.
         13    1    3    3    0    0  0.50948446495E+02  0.14348483512E+03 -0.76343225611E+02  0.17032888835E+03  0.00000000000E+00 0. -1.
        -13    1    3    3    0    0  0.13050977468E+03  0.50769162473E+03 -0.90876210685E+02  0.53201698542E+03  0.00000000000E+00 0.  1.
         22    1    1    2    0    0 -0.18145822118E+03 -0.65117645985E+03  0.56361532927E+03  0.88012505207E+03  0.00000000000E+00 0. -1.
<mgrwt>
<rscale>  0 0.15320198E+04</rscale>
<asrwt>0</asrwt>
<pdfrwt beam="1">  1        2 0.91236541E-01 0.15320198E+04</pdfrwt>
<pdfrwt beam="2">  1       -2 0.15222052E+00 0.15320198E+04</pdfrwt>
<totfact> 0.13959385E+01</totfact>
</mgrwt>
</event>
<event>
 6    1  0.5040916E-004  0.2347040E+04  0.7818608E-02  0.8459602E-01
          3   -1    0    0  501    0  0.00000000000E+00  0.00000000000E+00  0.13809650749E+04  0.13809650749E+04  0.00000000000E+00 0.  1.
         -3   -1    0    0    0  501 -0.00000000000E+00 -0.00000000000E+00 -0.99723655088E+03  0.99723655088E+03  0.00000000000E+00 0. -1.
         23    2    1    2    0    0  0.66165460266E+03 -0.96681959905E+03  0.21629079713E+03  0.11947480598E+04  0.90079227303E+02 0.  0.
         11    1    3    3    0    0  0.48596132392E+03 -0.67527802373E+03  0.11681735145E+03  0.84012208118E+03  0.00000000000E+00 0.  1.
        -11    1    3    3    0    0  0.17569327875E+03 -0.29154157532E+03  0.99473445678E+02  0.35462597865E+03  0.00000000000E+00 0. -1.
         22    1    1    2    0    0 -0.66165460266E+03  0.96681959905E+03  0.16743772688E+03  0.11834535659E+04  0.00000000000E+00 0.  1.
<mgrwt>
<rscale>  0 0.23470397E+04</rscale>
<asrwt>0</asrwt>
<pdfrwt beam="1">  1        3 0.21245617E+00 0.23470397E+04</pdfrwt>
<pdfrwt beam="2">  1       -3 0.15342101E+00 0.23470397E+04</pdfrwt>
<totfact> 0.88262140E-02</totfact>
</mgrwt>
</event>
<event>
 6    1  0.5040916E-004  0.2644851E+04  0.7818608E-02  0.8353124E-01
          2   -1    0    0  501    0  0.00000000000E+00  0.00000000000E+00  0.25455133703E+04  0.25455133703E+04  0.00000000000E+00 0.  1.
         -2   -1    0    0    0  501 -0.00000000000E+00 -0.00000000000E+00 -0.68701614949E+03  0.68701614949E+03  0.00000000000E+00 0. -1.
         23    2    1    2    0    0  0.11663951141E+04  0.61029832418E+03  0.79865459315E+03  0.15424975668E+04  0.92238699997E+02 0.  0.
         13    1    3    3    0    0  0.54194634505E+03  0.23848268017E+03  0.38497704115E+03  0.70624864734E+03  0.00000000000E+00 0. -1.
        -13    1    3    3    0    0  0.62444876904E+03  0.37181564401E+03  0.41367755200E+03  0.83624891947E+03  0.00000000000E+00 0.  1.
         22    1    1    2    0    0 -0.11663951141E+04 -0.61029832418E+03  0.10598426276E+04  0.16900319530E+04  0.00000000000E+00 0.  1.
<mgrwt>
<rscale>  0 0.26448507E+04</rscale>
<asrwt>0</asrwt>
<pdfrwt beam="1">  1        2 0.39161744E+00 0.26448507E+04</pdfrwt>
<pdfrwt beam="2">  1       -2 0.10569479E+00 0.26448507E+04</pdfrwt>
<totfact> 0.20878647E+00</totfact>
</mgrwt>
</event>
<event>
 6    1  0.5040916E-004  0.1016205E+04  0.7818608E-02  0.9290948E-01
         -2   -1    0    0    0  501 -0.00000000000E+00  0.00000000000E+00  0.30432592211E+03  0.30432592211E+03  0.00000000000E+00 0. -1.
          2   -1    0    0  501    0  0.00000000000E+00 -0.00000000000E+00 -0.84832783719E+03  0.84832783719E+03  0.00000000000E+00 0.  1.
         23    2    1    2    0    0  0.20509198493E+03  0.11121150079E+03  0.23272753584E+03  0.34164243994E+03  0.90148381220E+02 0.  0.
         11    1    3    3    0    0  0.73717934346E+02  0.11592306381E+02  0.12208465434E+03  0.14308521320E+03  0.00000000000E+00 0. -1.
        -11    1    3    3    0    0  0.13137405059E+03  0.99619194407E+02  0.11064288150E+03  0.19855722674E+03  0.00000000000E+00 0.  1.
         22    1    1    2    0    0 -0.20509198493E+03 -0.11121150079E+03 -0.77672945093E+03  0.81101131936E+03  0.00000000000E+00 0.  1.
<mgrwt>
<rscale>  0 0.10162050E+04</rscale>
<asrwt>0</asrwt>
<pdfrwt beam="1">  1        2 0.13051198E+00 0.10162050E+04</pdfrwt>
<pdfrwt beam="2">  1       -2 0.46819373E-01 0.10162050E+04</pdfrwt>
<totfact> 0.13725122E+02</totfact>
</mgrwt>
</event>
<event>
 6    1  0.5040916E-004  0.2145324E+04  0.7818608E-02  0.8541537E-01
          2   -1    0    0  501    0  0.00000000000E+00  0.00000000000E+00  0.29014273272E+04  0.29014273272E+04  0.00000000000E+00 0.  1.
         -2   -1    0    0    0  501 -0.00000000000E+00 -0.00000000000E+00 -0.39656464334E+03  0.39656464334E+03  0.00000000000E+00 0. -1.
         23    2    1    2    0    0 -0.75099654916E+03  0.17839541868E+02  0.83992974962E+02  0.76324854890E+03  0.10573297241E+03 0.  0.
         13    1    3    3    0    0 -0.41923738698E+03 -0.24795267962E+01 -0.45759163745E+01  0.41926969090E+03  0.00000000000E+00 0.  1.
        -13    1    3    3    0    0 -0.33175916218E+03  0.20319068665E+02  0.88568891336E+02  0.34397885800E+03  0.00000000000E+00 0. -1.
         22    1    1    2    0    0  0.75099654916E+03 -0.17839541868E+02  0.24208697089E+04  0.25347434217E+04  0.00000000000E+00 0.  1.
<mgrwt>
<rscale>  0 0.21453237E+04</rscale>
<asrwt>0</asrwt>
<pdfrwt beam="1">  1        2 0.44637342E+00 0.21453237E+04</pdfrwt>
<pdfrwt beam="2">  1       -2 0.61009947E-01 0.21453237E+04</pdfrwt>
<totfact> 0.46073783E+00</totfact>
</mgrwt>
</event>
<event>
 6    1  0.5040916E-004  0.3661282E+04  0.7818608E-02  0.8076597E-01
          2   -1    0    0  501    0  0.00000000000E+00  0.00000000000E+00  0.31810471308E+04  0.31810471308E+04  0.00000000000E+00 0.  1.
         -2   -1    0    0    0  501 -0.00000000000E+00 -0.00000000000E+00 -0.10535039983E+04  0.10535039983E+04  0.00000000000E+00 0. -1.
         23    2    1    2    0    0 -0.79221614799E+03 -0.29526023286E+03 -0.81084151374E+03  0.11769557734E+04  0.11391181598E+03 0.  0.
         11    1    3    3    0    0 -0.88275321186E+02  0.35627528151E+01 -0.83306334774E+02  0.12142969551E+03  0.00000000000E+00 0.  1.
        -11    1    3    3    0    0 -0.70394082680E+03 -0.29882298567E+03 -0.72753517896E+03  0.10555260779E+04  0.00000000000E+00 0. -1.
         22    1    1    2    0    0  0.79221614799E+03  0.29526023286E+03  0.29383846462E+04  0.30575953558E+04  0.00000000000E+00 0.  1.
<mgrwt>
<rscale>  0 0.36612817E+04</rscale>
<asrwt>0</asrwt>
<pdfrwt beam="1">  1        2 0.48939186E+00 0.36612817E+04</pdfrwt>
<pdfrwt beam="2">  1       -2 0.16207754E+00 0.36612817E+04</pdfrwt>
<totfact> 0.26283466E-01</totfact>
</mgrwt>
</event>
<event>
 6    1  0.5040916E-004  0.5529986E+03  0.7818608E-02  0.1000802E+00
          2   -1    0    0  501    0  0.00000000000E+00  0.00000000000E+00  0.58927843100E+03  0.58927843100E+03  0.00000000000E+00 0.  1.
         -2   -1    0    0    0  501 -0.00000000000E+00 -0.00000000000E+00 -0.12973811703E+03  0.12973811703E+03  0.00000000000E+00 0. -1.
         23    2    1    2    0    0 -0.75364912218E+02 -0.91615677943E+02 -0.76520291439E+02  0.16998624367E+03  0.94692479085E+02 0.  0.
         13    1    3    3    0    0 -0.41905562214E+02  0.38546979968E+01 -0.50100739358E+02  0.65429495836E+02  0.00000000000E+00 0. -1.
        -13    1    3    3    0    0 -0.33459350004E+02 -0.95470375939E+02 -0.26419552081E+02  0.10455674783E+03  0.00000000000E+00 0.  1.
         22    1    1    2    0    0  0.75364912218E+02  0.91615677943E+02  0.53606060541E+03  0.54903030437E+03  0.00000000000E+00 0.  1.
<mgrwt>
<rscale>  0 0.55299864E+03</rscale>
<asrwt>0</asrwt>
<pdfrwt beam="1">  1        2 0.90658219E-01 0.55299864E+03</pdfrwt>
<pdfrwt beam="2">  1       -2 0.19959711E-01 0.55299864E+03</pdfrwt>
<totfact> 0.10885825E+03</totfact>
</mgrwt>
</event>
<event>
 6    1  0.5040916E-004  0.4369383E+04  0.7818608E-02  0.7933912E-01
          2   -1    0    0  501    0  0.00000000000E+00  0.00000000000E+00  0.17733426830E+04  0.17733426830E+04  0.00000000000E+00 0.  1.
         -2   -1    0    0    0  501 -0.00000000000E+00 -0.00000000000E+00 -0.26914579122E+04  0.26914579122E+04  0.00000000000E+00 0. -1.
         23    2    1    2    0    0 -0.21351177507E+04 -0.10396606476E+03 -0.32487041248E+01  0.21396086653E+04  0.91531056898E+02 0.  0.
         13    1    3    3    0    0 -0.31792057394E+03  0.16895926418E+02  0.31946435679E+01  0.31838525313E+03  0.00000000000E+00 0. -1.
        -13    1    3    3    0    0 -0.18171971768E+04 -0.12086199118E+03 -0.64433476926E+01  0.18212234122E+04  0.00000000000E+00 0.  1.
         22    1    1    2    0    0  0.21351177507E+04  0.10396606476E+03 -0.91486652506E+03  0.23251919299E+04  0.00000000000E+00 0. -1.
<mgrwt>
<rscale>  0 0.43693831E+04</rscale>
<asrwt>0</asrwt>
<pdfrwt beam="1">  1        2 0.27282195E+00 0.43693831E+04</pdfrwt>
<pdfrwt beam="2">  1       -2 0.41407045E+00 0.43693831E+04</pdfrwt>
<totfact> 0.41022620E-02</totfact>
</mgrwt>
</event>
<event>
 6    1  0.5040916E-004  0.1143787E+04  0.7818608E-02  0.9163535E-01
         -2   -1    0    0    0  501 -0.00000000000E+00  0.00000000000E+00  0.95316062836E+02  0.95316062836E+02  0.00000000000E+00 0.  1.
          2   -1    0    0  501    0  0.00000000000E+00 -0.00000000000E+00 -0.34313408173E+04  0.34313408173E+04  0.00000000000E+00 0. -1.
         23    2    1    2    0    0  0.51660983883E+03  0.50731201361E+02 -0.96685173262E+03  0.11012826435E+04  0.92530036259E+02 0.  0.
         13    1    3    3    0    0  0.20492247965E+03  0.14231756603E+02 -0.29178763601E+03  0.35684140748E+03  0.00000000000E+00 0. -1.
        -13    1    3    3    0    0  0.31168735917E+03  0.36499444757E+02 -0.67506409661E+03  0.74444123601E+03  0.00000000000E+00 0.  1.
         22    1    1    2    0    0 -0.51660983883E+03 -0.50731201361E+02 -0.23691730219E+04  0.24253742367E+04  0.00000000000E+00 0. -1.
<mgrwt>
<rscale>  0 0.11437865E+04</rscale>
<asrwt>0</asrwt>
<pdfrwt beam="1">  1        2 0.52789857E+00 0.11437865E+04</pdfrwt>
<pdfrwt beam="2">  1       -2 0.14664010E-01 0.11437865E+04</pdfrwt>
<totfact> 0.33686623E+01</totfact>
</mgrwt>
</event>
<event>
 6    1  0.5040916E-004  0.2335325E+04  0.7818608E-02  0.8464122E-01
         -2   -1    0    0    0  501 -0.00000000000E+00  0.00000000000E+00  0.77031735136E+03  0.77031735136E+03  0.00000000000E+00 0. -1.
          2   -1    0    0  501    0  0.00000000000E+00 -0.00000000000E+00 -0.17699669134E+04  0.17699669134E+04  0.00000000000E+00 0.  1.
         23    2    1    2    0    0 -0.41865463498E+03 -0.18650847347E+03  0.66536415978E+03  0.81334251476E+03  0.93592024950E+02 0.  0.
         11    1    3    3    0    0 -0.21801485574E+03 -0.14662289223E+03  0.39226971994E+03  0.47212740127E+03  0.00000000000E+00 0. -1.
        -11    1    3    3    0    0 -0.20063977924E+03 -0.39885581246E+02  0.27309443984E+03  0.34121511349E+03  0.00000000000E+00 0.  1.
         22    1    1    2    0    0  0.41865463498E+03  0.18650847347E+03 -0.16650137218E+04  0.17269417500E+04  0.00000000000E+00 0.  1.
<mgrwt>
<rscale>  0 0.23353254E+04</rscale>
<asrwt>0</asrwt>
<pdfrwt beam="1">  1        2 0.27230260E+00 0.23353254E+04</pdfrwt>
<pdfrwt beam="2">  1       -2 0.11851036E+00 0.23353254E+04</pdfrwt>
<totfact> 0.44402632E+00</totfact>
</mgrwt>
</event>
<event>
 6    1  0.5040916E-004  0.1790737E+04  0.7818608E-02  0.8711241E-01
          2   -1    0    0  501    0  0.00000000000E+00  0.00000000000E+00  0.37819490176E+03  0.37819490176E+03  0.00000000000E+00 0.  1.
         -2   -1    0    0    0  501 -0.00000000000E+00 -0.00000000000E+00 -0.21197649904E+04  0.21197649904E+04  0.00000000000E+00 0. -1.
         23    2    1    2    0    0  0.69782595267E+03 -0.51144999107E+03 -0.56270712755E+03  0.10356808372E+04  0.86332679357E+02 0.  0.
         13    1    3    3    0    0  0.29851739457E+03 -0.17427286569E+03 -0.19763079569E+03  0.39817282426E+03  0.00000000000E+00 0.  1.
        -13    1    3    3    0    0  0.39930855810E+03 -0.33717712539E+03 -0.36507633186E+03  0.63750801292E+03  0.00000000000E+00 0. -1.
         22    1    1    2    0    0 -0.69782595267E+03  0.51144999107E+03 -0.11788629611E+04  0.14622790550E+04  0.00000000000E+00 0. -1.
<mgrwt>
<rscale>  0 0.17907365E+04</rscale>
<asrwt>0</asrwt>
<pdfrwt beam="1">  1        2 0.58183831E-01 0.17907365E+04</pdfrwt>
<pdfrwt beam="2">  1       -2 0.32611769E+00 0.17907365E+04</pdfrwt>
<totfact> 0.17611767E+00</totfact>
</mgrwt>
</event>
<event>
 6    1  0.5040916E-004  0.2421251E+04  0.7818608E-02  0.8431590E-01
          2   -1    0    0  501    0  0.00000000000E+00  0.00000000000E+00  0.11556930446E+04  0.11556930446E+04  0.00000000000E+00 0.  1.
         -2   -1    0    0    0  501 -0.00000000000E+00 -0.00000000000E+00 -0.12681688970E+04  0.12681688970E+04  0.00000000000E+00 0. -1.
         23    2    1    2    0    0  0.84898184497E+03  0.67666661551E+03  0.47613689147E+03  0.11889073497E+04  0.90257770413E+02 0.  0.
         13    1    3    3    0    0  0.57557611892E+03  0.47691325899E+03  0.28421453671E+03  0.79969495944E+03  0.00000000000E+00 0.  1.
        -13    1    3    3    0    0  0.27340572605E+03  0.19975335651E+03  0.19192235476E+03  0.38921239026E+03  0.00000000000E+00 0. -1.
         22    1    1    2    0    0 -0.84898184497E+03 -0.67666661551E+03 -0.58861274390E+03  0.12349545918E+04  0.00000000000E+00 0.  1.
<mgrwt>
<rscale>  0 0.24212509E+04</rscale>
<asrwt>0</asrwt>
<pdfrwt beam="1">  1        2 0.17779893E+00 0.24212509E+04</pdfrwt>
<pdfrwt beam="2">  1       -2 0.19510291E+00 0.24212509E+04</pdfrwt>
<totfact> 0.25906100E+00</totfact>
</mgrwt>
</event>
<event>
 6    1  0.5040916E-004  0.1566182E+04  0.7818608E-02  0.8841597E-01
         -2   -1    0    0    0  501 -0.00000000000E+00  0.00000000000E+00  0.50417715757E+03  0.50417715757E+03  0.00000000000E+00 0. -1.
          2   -1    0    0  501    0  0.00000000000E+00 -0.00000000000E+00 -0.12163023342E+04  0.12163023342E+04  0.00000000000E+00 0.  1.
         23    2    1    2    0    0  0.16282995439E+03 -0.68333117122E+03 -0.73093690108E+03  0.10177640696E+04  0.90110290347E+02 0.  0.
         11    1    3    3    0    0  0.97772299843E+02 -0.40253730596E+03 -0.49362819571E+03  0.64441019615E+03  0.00000000000E+00 0. -1.
        -11    1    3    3    0    0  0.65057654548E+02 -0.28079386526E+03 -0.23730870537E+03  0.37335387346E+03  0.00000000000E+00 0.  1.
         22    1    1    2    0    0 -0.16282995439E+03  0.68333117122E+03  0.18811724427E+02  0.70271542219E+03  0.00000000000E+00 0.  1.
<mgrwt>
<rscale>  0 0.15661824E+04</rscale>
<asrwt>0</asrwt>
<pdfrwt beam="1">  1        2 0.18712343E+00 0.15661824E+04</pdfrwt>
<pdfrwt beam="2">  1       -2 0.77565717E-01 0.15661824E+04</pdfrwt>
<totfact> 0.26383119E+01</totfact>
</mgrwt>
</event>
<event>
 6    1  0.5040916E-004  0.2546310E+04  0.7818608E-02  0.8386671E-01
          2   -1    0    0  501    0  0.00000000000E+00  0.00000000000E+00  0.18523697449E+04  0.18523697449E+04  0.00000000000E+00 0.  1.
         -2   -1    0    0    0  501 -0.00000000000E+00 -0.00000000000E+00 -0.87505427664E+03  0.87505427664E+03  0.00000000000E+00 0. -1.
         23    2    1    2    0    0 -0.99141845637E+03 -0.27974701482E+03 -0.30934565217E+03  0.10791929131E+04  0.88281726874E+02 0.  0.
         11    1    3    3    0    0 -0.81776616177E+03 -0.20586481248E+03 -0.22703688707E+03  0.87330840168E+03  0.00000000000E+00 0.  1.
        -11    1    3    3    0    0 -0.17365229460E+03 -0.73882202344E+02 -0.82308765098E+02  0.20588451145E+03  0.00000000000E+00 0. -1.
         22    1    1    2    0    0  0.99141845637E+03  0.27974701482E+03  0.12866611205E+04  0.16482311084E+04  0.00000000000E+00 0.  1.
<mgrwt>
<rscale>  0 0.25463103E+04</rscale>
<asrwt>0</asrwt>
<pdfrwt beam="1">  1        2 0.28497996E+00 0.25463103E+04</pdfrwt>
<pdfrwt beam="2">  1       -2 0.13462373E+00 0.25463103E+04</pdfrwt>
<totfact> 0.28492791E+00</totfact>
</mgrwt>
</event>
<event>
 6    1  0.5040916E-004  0.6179990E+04  0.7818608E-02  0.7668477E-01
          2   -1    0    0  501    0  0.00000000000E+00  0.00000000000E+00  0.23049542081E+04  0.23049542081E+04  0.00000000000E+00 0.  1.
         -2   -1    0    0    0  501 -0.00000000000E+00 -0.00000000000E+00 -0.41424119637E+04  0.41424119637E+04  0.00000000000E+00 0. -1.
         23    2    1    2    0    0  0.15457304729E+03  0.10087681396E+04 -0.39609362278E+04  0.40913808559E+04  0.94209983509E+02 0.  0.
         11    1    3    3    0    0  0.39284210223E+02  0.17241321979E+03 -0.82880312469E+03  0.84745748391E+03  0.00000000000E+00 0. -1.
        -11    1    3    3    0    0  0.11528883706E+03  0.83635491985E+03 -0.31321331031E+04  0.32439233720E+04  0.00000000000E+00 0.  1.
         22    1    1    2    0    0 -0.15457304729E+03 -0.10087681396E+04  0.21234784722E+04  0.23559853158E+04  0.00000000000E+00 0.  1.
<mgrwt>
<rscale>  0 0.61799903E+04</rscale>
<asrwt>0</asrwt>
<pdfrwt beam="1">  1        2 0.35460835E+00 0.61799903E+04</pdfrwt>
<pdfrwt beam="2">  1       -2 0.63729414E+00 0.61799903E+04</pdfrwt>
<totfact> 0.11350503E-03</totfact>
</mgrwt>
</event>
<event>
 6    1  0.5040916E-004  0.1590097E+04  0.7818608E-02  0.8826655E-01
          2   -1    0    0  501    0  0.00000000000E+00  0.00000000000E+00  0.25234979284E+04  0.25234979284E+04  0.00000000000E+00 0.  1.
         -2   -1    0    0    0  501 -0.00000000000E+00 -0.00000000000E+00 -0.25048635960E+03  0.25048635960E+03  0.00000000000E+00 0. -1.
         23    2    1    2    0    0  0.53919734436E+03  0.44077204230E+02  0.13050398992E+03  0.56422970849E+03  0.92990840728E+02 0.  0.
         11    1    3    3    0    0  0.27065347409E+03 -0.22703195112E+02  0.51424195494E+02  0.27642935080E+03  0.00000000000E+00 0. -1.
        -11    1    3    3    0    0  0.26854387028E+03  0.66780399342E+02  0.79079794421E+02  0.28780035769E+03  0.00000000000E+00 0.  1.
         22    1    1    2    0    0 -0.53919734436E+03 -0.44077204230E+02  0.21425075789E+04  0.22097545796E+04  0.00000000000E+00 0.  1.
<mgrwt>
<rscale>  0 0.15900966E+04</rscale>
<asrwt>0</asrwt>
<pdfrwt beam="1">  1        2 0.38823043E+00 0.15900966E+04</pdfrwt>
<pdfrwt beam="2">  1       -2 0.38536365E-01 0.15900966E+04</pdfrwt>
<totfact> 0.20641292E+01</totfact>
</mgrwt>
</event>
<event>
 6    1  0.5040916E-004  0.2514023E+04  0.7818608E-02  0.8398007E-01
          2   -1    0    0  501    0  0.00000000000E+00  0.00000000000E+00  0.35108492001E+04  0.35108492001E+04  0.00000000000E+00 0.  1.
         -2   -1    0    0    0  501 -0.00000000000E+00 -0.00000000000E+00 -0.45005582022E+03  0.45005582022E+03  0.00000000000E+00 0. -1.
         23    2    1    2    0    0 -0.52410149104E+02  0.12531936492E+04  0.16130700234E+04  0.20454040250E+04  0.91878066481E+02 0.  0.
         13    1    3    3    0    0 -0.26081021710E+02  0.11297238610E+04  0.14207104393E+04  0.18153166044E+04  0.00000000000E+00 0.  1.
        -13    1    3    3    0    0 -0.26329127394E+02  0.12346978820E+03  0.19235958405E+03  0.23008742061E+03  0.00000000000E+00 0. -1.
         22    1    1    2    0    0  0.52410149104E+02 -0.12531936492E+04  0.14477233566E+04  0.19155009954E+04  0.00000000000E+00 0. -1.
<mgrwt>
<rscale>  0 0.25140232E+04</rscale>
<asrwt>0</asrwt>
<pdfrwt beam="1">  1        2 0.54013063E+00 0.25140232E+04</pdfrwt>
<pdfrwt beam="2">  1       -2 0.69239359E-01 0.25140232E+04</pdfrwt>
<totfact> 0.13565607E+00</totfact>
</mgrwt>
</event>
<event>
 6    1  0.5040916E-004  0.2640142E+04  0.7818608E-02  0.8354692E-01
         -2   -1    0    0    0  501 -0.00000000000E+00  0.00000000000E+00  0.13803145400E+04  0.13803145400E+04  0.00000000000E+00 0. -1.
          2   -1    0    0  501    0  0.00000000000E+00 -0.00000000000E+00 -0.12624570707E+04  0.12624570707E+04  0.00000000000E+00 0.  1.
         23    2    1    2    0    0  0.65216406463E+03  0.41809023470E+03  0.11270757997E+04  0.13705141487E+04  0.88835589325E+02 0.  0.
         11    1    3    3    0    0  0.11391749003E+03  0.35346390629E+02  0.17579763293E+03  0.21244144984E+03  0.00000000000E+00 0. -1.
        -11    1    3    3    0    0  0.53824657460E+03  0.38274384407E+03  0.95127816675E+03  0.11580726988E+04  0.00000000000E+00 0.  1.
         22    1    1    2    0    0 -0.65216406463E+03 -0.41809023470E+03 -0.10092183303E+04  0.12722574621E+04  0.00000000000E+00 0.  1.
<mgrwt>
<rscale>  0 0.26401423E+04</rscale>
<asrwt>0</asrwt>
<pdfrwt beam="1">  1        2 0.19422417E+00 0.26401423E+04</pdfrwt>
<pdfrwt beam="2">  1       -2 0.21235608E+00 0.26401423E+04</pdfrwt>
<totfact> 0.16954990E+00</totfact>
</mgrwt>
</event>
<event>
 6    1  0.5040916E-004  0.5905365E+03  0.7818608E-02  0.9925237E-01
         -2   -1    0    0    0  501 -0.00000000000E+00  0.00000000000E+00  0.39426578766E+03  0.39426578766E+03  0.00000000000E+00 0. -1.
          2   -1    0    0  501    0  0.00000000000E+00 -0.00000000000E+00 -0.22112833361E+03  0.22112833361E+03  0.00000000000E+00 0.  1.
         23    2    1    2    0    0 -0.26090471161E+03 -0.38312086949E+02  0.20992020830E+03  0.34913850056E+03  0.91061046432E+02 0.  0.
         11    1    3    3    0    0 -0.13055476467E+03 -0.95513582837E+01  0.48320904849E+02  0.13953739595E+03  0.00000000000E+00 0. -1.
        -11    1    3    3    0    0 -0.13034994694E+03 -0.28760728665E+02  0.16159930345E+03  0.20960110461E+03  0.00000000000E+00 0.  1.
         22    1    1    2    0    0  0.26090471161E+03  0.38312086949E+02 -0.36782754242E+02  0.26625562071E+03  0.00000000000E+00 0.  1.
<mgrwt>
<rscale>  0 0.59053649E+03</rscale>
<asrwt>0</asrwt>
<pdfrwt beam="1">  1        2 0.34019744E-01 0.59053649E+03</pdfrwt>
<pdfrwt beam="2">  1       -2 0.60656275E-01 0.59053649E+03</pdfrwt>
<totfact> 0.39462947E+02</totfact>
</mgrwt>
</event>
<event>
 6    1  0.5040916E-004  0.1360281E+04  0.7818608E-02  0.8983082E-01
          2   -1    0    0  501    0  0.00000000000E+00  0.00000000000E+00  0.42152640194E+03  0.42152640194E+03  0.00000000000E+00 0.  1.
         -2   -1    0    0    0  501 -0.00000000000E+00 -0.00000000000E+00 -0.10974192087E+04  0.10974192087E+04  0.00000000000E+00 0. -1.
         23    2    1    2    0    0 -0.51845023268E+03  0.88553126279E+02 -0.81539912300E+03  0.97480012254E+03  0.93419747178E+02 0.  0.
         13    1    3    3    0    0 -0.27235758184E+03  0.77662487227E+02 -0.37163256233E+03  0.46724819496E+03  0.00000000000E+00 0. -1.
        -13    1    3    3    0    0 -0.24609265084E+03  0.10890639052E+02 -0.44376656067E+03  0.50755192758E+03  0.00000000000E+00 0.  1.
         22    1    1    2    0    0  0.51845023268E+03 -0.88553126279E+02  0.13950631625E+03  0.54414548809E+03  0.00000000000E+00 0. -1.
<mgrwt>
<rscale>  0 0.13602811E+04</rscale>
<asrwt>0</asrwt>
<pdfrwt beam="1">  1        2 0.64850216E-01 0.13602811E+04</pdfrwt>
<pdfrwt beam="2">  1       -2 0.16883372E+00 0.13602811E+04</pdfrwt>
<totfact> 0.15871569E+01</totfact>
</mgrwt>
</event>
<event>
 6    1  0.5040916E-004  0.3154877E+04  0.7818608E-02  0.8200837E-01
          2   -1    0    0  501    0  0.00000000000E+00  0.00000000000E+00  0.32780652645E+04  0.32780652645E+04  0.00000000000E+00 0.  1.
         -2   -1    0    0    0  501 -0.00000000000E+00 -0.00000000000E+00 -0.75907958303E+03  0.75907958303E+03  0.00000000000E+00 0. -1.
         23    2    1    2    0    0  0.64012459412E+03 -0.83260478149E+03 -0.24337379124E+03  0.10818749657E+04  0.90732689472E+02 0.  0.
         13    1    3    3    0    0  0.15023945034E+03 -0.14237454217E+03 -0.31662468958E+02  0.20939177309E+03  0.00000000000E+00 0. -1.
        -13    1    3    3    0    0  0.48988514378E+03 -0.69023023932E+03 -0.21171132228E+03  0.87248319259E+03  0.00000000000E+00 0.  1.
         22    1    1    2    0    0 -0.64012459412E+03  0.83260478149E+03  0.27623594728E+04  0.29552698819E+04  0.00000000000E+00 0.  1.
<mgrwt>
<rscale>  0 0.31548771E+04</rscale>
<asrwt>0</asrwt>
<pdfrwt beam="1">  1        2 0.50431773E+00 0.31548771E+04</pdfrwt>
<pdfrwt beam="2">  1       -2 0.11678148E+00 0.31548771E+04</pdfrwt>
<totfact> 0.55236207E-01</totfact>
</mgrwt>
</event>
<event>
 6    1  0.5040916E-004  0.4063727E+04  0.7818608E-02  0.7991813E-01
         -2   -1    0    0    0  501 -0.00000000000E+00  0.00000000000E+00  0.18518833319E+04  0.18518833319E+04  0.00000000000E+00 0.  1.
          2   -1    0    0  501    0  0.00000000000E+00 -0.00000000000E+00 -0.22293359338E+04  0.22293359338E+04  0.00000000000E+00 0. -1.
         23    2    1    2    0    0  0.28596147707E+03  0.70394458957E+03  0.17026103022E+04  0.18667275324E+04  0.92075443194E+02 0.  0.
         11    1    3    3    0    0  0.17516244456E+03  0.32943783727E+03  0.89421205720E+03  0.96893053098E+03  0.00000000000E+00 0. -1.
        -11    1    3    3    0    0  0.11079903251E+03  0.37450675230E+03  0.80839824504E+03  0.89779700139E+03  0.00000000000E+00 0.  1.
         22    1    1    2    0    0 -0.28596147707E+03 -0.70394458957E+03 -0.20800629041E+04  0.22144917333E+04  0.00000000000E+00 0. -1.
<mgrwt>
<rscale>  0 0.40637274E+04</rscale>
<asrwt>0</asrwt>
<pdfrwt beam="1">  1        2 0.34297476E+00 0.40637274E+04</pdfrwt>
<pdfrwt beam="2">  1       -2 0.28490513E+00 0.40637274E+04</pdfrwt>
<totfact> 0.15336458E-01</totfact>
</mgrwt>
</event>
<event>
 6    1  0.5040916E-004  0.2993025E+04  0.7818608E-02  0.8245726E-01
          1   -1    0    0  501    0  0.00000000000E+00  0.00000000000E+00  0.27116923526E+04  0.27116923526E+04  0.00000000000E+00 0.  1.
         -1   -1    0    0    0  501 -0.00000000000E+00 -0.00000000000E+00 -0.82588611786E+03  0.82588611786E+03  0.00000000000E+00 0. -1.
         23    2    1    2    0    0  0.60443338992E+03  0.13428007639E+04  0.12465664433E+04  0.19322494932E+04  0.10586119241E+03 0.  0.
         11    1    3    3    0    0  0.14263297388E+03  0.42502511532E+03  0.40502268470E+03  0.60418034478E+03  0.00000000000E+00 0.  1.
        -11    1    3    3    0    0  0.46180041604E+03  0.91777564856E+03  0.84154375863E+03  0.13280691484E+04  0.00000000000E+00 0. -1.
         22    1    1    2    0    0 -0.60443338992E+03 -0.13428007639E+04  0.63923979143E+03  0.16053289773E+04  0.00000000000E+00 0. -1.
<mgrwt>
<rscale>  0 0.29930246E+04</rscale>
<asrwt>0</asrwt>
<pdfrwt beam="1">  1        1 0.41718343E+00 0.29930246E+04</pdfrwt>
<pdfrwt beam="2">  1       -1 0.12705940E+00 0.29930246E+04</pdfrwt>
<totfact> 0.44025453E-01</totfact>
</mgrwt>
</event>
<event>
 6    1  0.5040916E-004  0.2000691E+04  0.7818608E-02  0.8606298E-01
          2   -1    0    0  501    0  0.00000000000E+00  0.00000000000E+00  0.10944871810E+04  0.10944871810E+04  0.00000000000E+00 0.  1.
         -2   -1    0    0    0  501 -0.00000000000E+00 -0.00000000000E+00 -0.91430097402E+03  0.91430097402E+03  0.00000000000E+00 0. -1.
         23    2    1    2    0    0  0.21972299375E+03  0.85580925637E+03 -0.37659871554E+03  0.96442369409E+03  0.87171049717E+02 0.  0.
         11    1    3    3    0    0  0.65008315160E+02  0.42727558773E+03 -0.18871432178E+03  0.47159686614E+03  0.00000000000E+00 0. -1.
        -11    1    3    3    0    0  0.15471467859E+03  0.42853366864E+03 -0.18788439377E+03  0.49282682795E+03  0.00000000000E+00 0.  1.
         22    1    1    2    0    0 -0.21972299375E+03 -0.85580925637E+03  0.55678492252E+03  0.10443644609E+04  0.00000000000E+00 0. -1.
<mgrwt>
<rscale>  0 0.20006906E+04</rscale>
<asrwt>0</asrwt>
<pdfrwt beam="1">  1        2 0.16838264E+00 0.20006906E+04</pdfrwt>
<pdfrwt beam="2">  1       -2 0.14066169E+00 0.20006906E+04</pdfrwt>
<totfact> 0.72374167E+00</totfact>
</mgrwt>
</event>
<event>
 6    1  0.5040916E-004  0.1667665E+04  0.7818608E-02  0.8780024E-01
         -2   -1    0    0    0  501 -0.00000000000E+00  0.00000000000E+00  0.79988666941E+03  0.79988666941E+03  0.00000000000E+00 0. -1.
          2   -1    0    0  501    0  0.00000000000E+00 -0.00000000000E+00 -0.86921886046E+03  0.86921886046E+03  0.00000000000E+00 0.  1.
         23    2    1    2    0    0 -0.11561872399E+03  0.46676089548E+03  0.64395154131E+03  0.80886887307E+03  0.91443115551E+02 0.  0.
         13    1    3    3    0    0 -0.10992945243E+03  0.27357635949E+03  0.41828458090E+03  0.51175238114E+03  0.00000000000E+00 0. -1.
        -13    1    3    3    0    0 -0.56892715550E+01  0.19318453599E+03  0.22566696041E+03  0.29711649192E+03  0.00000000000E+00 0.  1.
         22    1    1    2    0    0  0.11561872399E+03 -0.46676089548E+03 -0.71328373235E+03  0.86023665681E+03  0.00000000000E+00 0.  1.
<mgrwt>
<rscale>  0 0.16676649E+04</rscale>
<asrwt>0</asrwt>
<pdfrwt beam="1">  1        2 0.13372598E+00 0.16676649E+04</pdfrwt>
<pdfrwt beam="2">  1       -2 0.12305949E+00 0.16676649E+04</pdfrwt>
<totfact> 0.14640465E+01</totfact>
</mgrwt>
</event>
<event>
 6    1  0.5040916E-004  0.2074332E+04  0.7818608E-02  0.8572635E-01
          2   -1    0    0  501    0  0.00000000000E+00  0.00000000000E+00  0.18442931853E+04  0.18442931853E+04  0.00000000000E+00 0. -1.
         -2   -1    0    0    0  501 -0.00000000000E+00 -0.00000000000E+00 -0.58326580446E+03  0.58326580446E+03  0.00000000000E+00 0.  1.
         23    2    1    2    0    0 -0.12896977266E+03 -0.10325808001E+03  0.18277769924E+04  0.18372196334E+04  0.85509147704E+02 0.  0.
         13    1    3    3    0    0 -0.16200677330E+02 -0.56614757495E+02  0.41108971088E+03  0.41528597749E+03  0.00000000000E+00 0. -1.
        -13    1    3    3    0    0 -0.11276909533E+03 -0.46643322516E+02  0.14166872815E+04  0.14219336559E+04  0.00000000000E+00 0.  1.
         22    1    1    2    0    0  0.12896977266E+03  0.10325808001E+03 -0.56674961157E+03  0.59033935627E+03  0.00000000000E+00 0.  1.
<mgrwt>
<rscale>  0 0.20743318E+04</rscale>
<asrwt>0</asrwt>
<pdfrwt beam="1">  1        2 0.28373741E+00 0.20743318E+04</pdfrwt>
<pdfrwt beam="2">  1       -2 0.89733201E-01 0.20743318E+04</pdfrwt>
<totfact> 0.80120023E+00</totfact>
</mgrwt>
</event>
<event>
 6    1  0.5040916E-004  0.1937279E+04  0.7818608E-02  0.8636519E-01
          2   -1    0    0  501    0  0.00000000000E+00  0.00000000000E+00  0.10482393527E+04  0.10482393527E+04  0.00000000000E+00 0.  1.
         -2   -1    0    0    0  501 -0.00000000000E+00 -0.00000000000E+00 -0.89508441904E+03  0.89508441904E+03  0.00000000000E+00 0. -1.
         23    2    1    2    0    0  0.84468802140E+03 -0.15225850304E+03 -0.36909703223E+03  0.93862101913E+03  0.89979403713E+02 0.  0.
         11    1    3    3    0    0  0.55572356182E+03 -0.60161983222E+02 -0.25783866812E+03  0.61557202679E+03  0.00000000000E+00 0. -1.
        -11    1    3    3    0    0  0.28896445959E+03 -0.92096519820E+02 -0.11125836411E+03  0.32304899234E+03  0.00000000000E+00 0.  1.
         22    1    1    2    0    0 -0.84468802140E+03  0.15225850304E+03  0.52225196592E+03  0.10047027526E+04  0.00000000000E+00 0.  1.
<mgrwt>
<rscale>  0 0.19372792E+04</rscale>
<asrwt>0</asrwt>
<pdfrwt beam="1">  1        2 0.16126759E+00 0.19372792E+04</pdfrwt>
<pdfrwt beam="2">  1       -2 0.13770529E+00 0.19372792E+04</pdfrwt>
<totfact> 0.82155123E+00</totfact>
</mgrwt>
</event>
<event>
 6    1  0.5040916E-004  0.3916583E+04  0.7818608E-02  0.8021589E-01
         -2   -1    0    0    0  501 -0.00000000000E+00  0.00000000000E+00  0.33812706587E+04  0.33812706587E+04  0.00000000000E+00 0. -1.
          2   -1    0    0  501    0  0.00000000000E+00 -0.00000000000E+00 -0.11341610620E+04  0.11341610620E+04  0.00000000000E+00 0.  1.
         23    2    1    2    0    0  0.69413831627E+03  0.12798124277E+04 -0.38374951891E+03  0.15085782926E+04  0.93791894040E+02 0.  0.
         13    1    3    3    0    0  0.55484989626E+03  0.10272676766E+04 -0.34589637994E+03  0.12176951968E+04  0.00000000000E+00 0.  1.
        -13    1    3    3    0    0  0.13928842001E+03  0.25254475111E+03 -0.37853138971E+02  0.29088309574E+03  0.00000000000E+00 0. -1.
         22    1    1    2    0    0 -0.69413831627E+03 -0.12798124277E+04  0.26308591156E+04  0.30068534281E+04  0.00000000000E+00 0. -1.
<mgrwt>
<rscale>  0 0.39165830E+04</rscale>
<asrwt>0</asrwt>
<pdfrwt beam="1">  1        2 0.17448632E+00 0.39165830E+04</pdfrwt>
<pdfrwt beam="2">  1       -2 0.52019548E+00 0.39165830E+04</pdfrwt>
<totfact> 0.20559103E-02</totfact>
</mgrwt>
</event>
<event>
 6    1  0.5040916E-004  0.2627200E+04  0.7818608E-02  0.8359020E-01
         -2   -1    0    0    0  501 -0.00000000000E+00  0.00000000000E+00  0.10003421173E+04  0.10003421173E+04  0.00000000000E+00 0. -1.
          2   -1    0    0  501    0  0.00000000000E+00 -0.00000000000E+00 -0.17249545238E+04  0.17249545238E+04  0.00000000000E+00 0.  1.
         23    2    1    2    0    0 -0.85456232573E+03  0.48177654877E+03 -0.12664239247E+04  0.16046070619E+04  0.92460016722E+02 0.  0.
         13    1    3    3    0    0 -0.77657318797E+03  0.46147541137E+03 -0.11849436438E+04  0.14900056747E+04  0.00000000000E+00 0.  1.
        -13    1    3    3    0    0 -0.77989137757E+02  0.20301137391E+02 -0.81480280843E+02  0.11460138722E+03  0.00000000000E+00 0. -1.
         22    1    1    2    0    0  0.85456232573E+03 -0.48177654877E+03  0.54181151817E+03  0.11206895791E+04  0.00000000000E+00 0. -1.
<mgrwt>
<rscale>  0 0.26271998E+04</rscale>
<asrwt>0</asrwt>
<pdfrwt beam="1">  1        2 0.26537762E+00 0.26271998E+04</pdfrwt>
<pdfrwt beam="2">  1       -2 0.15389879E+00 0.26271998E+04</pdfrwt>
<totfact> 0.23460791E+00</totfact>
</mgrwt>
</event>
<event>
 6    1  0.5040916E-004  0.3507993E+03  0.7818608E-02  0.1062287E+00
         -1   -1    0    0    0  501 -0.00000000000E+00  0.00000000000E+00  0.63157075487E+02  0.63157075487E+02  0.00000000000E+00 0. -1.
          1   -1    0    0  501    0  0.00000000000E+00 -0.00000000000E+00 -0.48711954428E+03  0.48711954428E+03  0.00000000000E+00 0.  1.
         23    2    1    2    0    0 -0.15640944611E+03 -0.30765817812E+02 -0.16808316241E+03  0.24880577572E+03  0.90784988671E+02 0.  0.
         13    1    3    3    0    0 -0.78820497705E+02 -0.47733230175E+02 -0.45566613481E+02  0.10279809524E+03  0.00000000000E+00 0. -1.
        -13    1    3    3    0    0 -0.77588948401E+02  0.16967412362E+02 -0.12251654893E+03  0.14600768048E+03  0.00000000000E+00 0.  1.
         22    1    1    2    0    0  0.15640944611E+03  0.30765817812E+02 -0.25587930638E+03  0.30147084404E+03  0.00000000000E+00 0.  1.
<mgrwt>
<rscale>  0 0.35079935E+03</rscale>
<asrwt>0</asrwt>
<pdfrwt beam="1">  1        1 0.74941466E-01 0.35079935E+03</pdfrwt>
<pdfrwt beam="2">  1       -1 0.97164735E-02 0.35079935E+03</pdfrwt>
<totfact> 0.29896749E+03</totfact>
</mgrwt>
</event>
<event>
 6    1  0.5040916E-004  0.3568437E+04  0.7818608E-02  0.8097760E-01
         -2   -1    0    0    0  501 -0.00000000000E+00  0.00000000000E+00  0.16879022346E+04  0.16879022346E+04  0.00000000000E+00 0.  1.
          2   -1    0    0  501    0  0.00000000000E+00 -0.00000000000E+00 -0.18860306199E+04  0.18860306199E+04  0.00000000000E+00 0. -1.
         23    2    1    2    0    0 -0.88489440115E+03  0.12191985387E+04  0.85593779018E+03  0.17353087276E+04  0.95831629726E+02 0.  0.
         11    1    3    3    0    0 -0.32829006426E+03  0.44970917388E+03  0.26364415234E+03  0.61605271400E+03  0.00000000000E+00 0.  1.
        -11    1    3    3    0    0 -0.55660433689E+03  0.76948936484E+03  0.59229363784E+03  0.11192560136E+04  0.00000000000E+00 0. -1.
         22    1    1    2    0    0  0.88489440115E+03 -0.12191985387E+04 -0.10540661755E+04  0.18386241270E+04  0.00000000000E+00 0. -1.
<mgrwt>
<rscale>  0 0.35684368E+04</rscale>
<asrwt>0</asrwt>
<pdfrwt beam="1">  1        2 0.29015855E+00 0.35684368E+04</pdfrwt>
<pdfrwt beam="2">  1       -2 0.25967727E+00 0.35684368E+04</pdfrwt>
<totfact> 0.35405080E-01</totfact>
</mgrwt>
</event>
<event>
 6    1  0.5040916E-004  0.2258146E+04  0.7818608E-02  0.8494609E-01
          2   -1    0    0  501    0  0.00000000000E+00  0.00000000000E+00  0.12544988143E+04  0.12544988143E+04  0.00000000000E+00 0.  1.
         -2   -1    0    0    0  501 -0.00000000000E+00 -0.00000000000E+00 -0.10161874694E+04  0.10161874694E+04  0.00000000000E+00 0. -1.
         23    2    1    2    0    0 -0.68982454260E+03  0.72135159102E+03  0.64577420925E+03  0.11926176388E+04  0.95427907321E+02 0.  0.
         11    1    3    3    0    0 -0.26663348314E+03  0.21646054508E+03  0.20489129040E+03  0.39991126865E+03  0.00000000000E+00 0.  1.
        -11    1    3    3    0    0 -0.42319105946E+03  0.50489104594E+03  0.44088291885E+03  0.79270637011E+03  0.00000000000E+00 0. -1.
         22    1    1    2    0    0  0.68982454260E+03 -0.72135159102E+03 -0.40746286435E+03  0.10780686450E+04  0.00000000000E+00 0. -1.
<mgrwt>
<rscale>  0 0.22581461E+04</rscale>
<asrwt>0</asrwt>
<pdfrwt beam="1">  1        2 0.19299982E+00 0.22581461E+04</pdfrwt>
<pdfrwt beam="2">  1       -2 0.15633653E+00 0.22581461E+04</pdfrwt>
<totfact> 0.42902420E+00</totfact>
</mgrwt>
</event>
<event>
 6    1  0.5040916E-004  0.8211586E+03  0.7818608E-02  0.9529886E-01
         -2   -1    0    0    0  501 -0.00000000000E+00  0.00000000000E+00  0.69179916293E+02  0.69179916293E+02  0.00000000000E+00 0. -1.
          2   -1    0    0  501    0  0.00000000000E+00 -0.00000000000E+00 -0.24367671949E+04  0.24367671949E+04  0.00000000000E+00 0.  1.
         23    2    1    2    0    0  0.14343721570E+03 -0.23380739108E+03 -0.21098027853E+04  0.21295258366E+04  0.91500628377E+02 0.  0.
         13    1    3    3    0    0  0.13421381189E+03 -0.20650118136E+03 -0.20258026227E+04  0.20407185870E+04  0.00000000000E+00 0. -1.
        -13    1    3    3    0    0  0.92234038147E+01 -0.27306209720E+02 -0.84000162592E+02  0.88807249606E+02  0.00000000000E+00 0.  1.
         22    1    1    2    0    0 -0.14343721570E+03  0.23380739108E+03 -0.25778449334E+03  0.37642127461E+03  0.00000000000E+00 0.  1.
<mgrwt>
<rscale>  0 0.82115857E+03</rscale>
<asrwt>0</asrwt>
<pdfrwt beam="1">  1        2 0.37488730E+00 0.82115857E+03</pdfrwt>
<pdfrwt beam="2">  1       -2 0.10643063E-01 0.82115857E+03</pdfrwt>
<totfact> 0.24162808E+02</totfact>
</mgrwt>
</event>
<event>
 6    1  0.5040916E-004  0.2844969E+04  0.7818608E-02  0.8289442E-01
         -2   -1    0    0    0  501 -0.00000000000E+00  0.00000000000E+00  0.90112401613E+03  0.90112401613E+03  0.00000000000E+00 0. -1.
          2   -1    0    0  501    0  0.00000000000E+00 -0.00000000000E+00 -0.22454870445E+04  0.22454870445E+04  0.00000000000E+00 0.  1.
         23    2    1    2    0    0  0.11161049851E+04 -0.78876844869E+00  0.30005687277E+03  0.11591987302E+04  0.89535518828E+02 0.  0.
         11    1    3    3    0    0  0.15163475183E+03 -0.29070277506E+02  0.52289248327E+02  0.16301025884E+03  0.00000000000E+00 0. -1.
        -11    1    3    3    0    0  0.96447023331E+03  0.28281509058E+02  0.24776762445E+03  0.99618847133E+03  0.00000000000E+00 0.  1.
         22    1    1    2    0    0 -0.11161049851E+04  0.78876844869E+00 -0.16444199011E+04  0.19874123304E+04  0.00000000000E+00 0.  1.
<mgrwt>
<rscale>  0 0.28449691E+04</rscale>
<asrwt>0</asrwt>
<pdfrwt beam="1">  1        2 0.34545954E+00 0.28449691E+04</pdfrwt>
<pdfrwt beam="2">  1       -2 0.13863446E+00 0.28449691E+04</pdfrwt>
<totfact> 0.15546529E+00</totfact>
</mgrwt>
</event>
<event>
 6    1  0.5040916E-004  0.2375973E+04  0.7818608E-02  0.8448554E-01
         -2   -1    0    0    0  501 -0.00000000000E+00  0.00000000000E+00  0.12114656117E+04  0.12114656117E+04  0.00000000000E+00 0. -1.
          2   -1    0    0  501    0  0.00000000000E+00 -0.00000000000E+00 -0.11649624929E+04  0.11649624929E+04  0.00000000000E+00 0.  1.
         23    2    1    2    0    0  0.45472369603E+03  0.10929883273E+04  0.98002311299E+02  0.11915022461E+04  0.93145187783E+02 0.  0.
         11    1    3    3    0    0  0.10374431255E+03  0.17038546639E+03  0.33609080970E+02  0.20229597096E+03  0.00000000000E+00 0. -1.
        -11    1    3    3    0    0  0.35097938348E+03  0.92260286093E+03  0.64393230329E+02  0.98920627512E+03  0.00000000000E+00 0.  1.
         22    1    1    2    0    0 -0.45472369603E+03 -0.10929883273E+04 -0.51499192414E+02  0.11849258585E+04  0.00000000000E+00 0.  1.
<mgrwt>
<rscale>  0 0.23759731E+04</rscale>
<asrwt>0</asrwt>
<pdfrwt beam="1">  1        2 0.17922500E+00 0.23759731E+04</pdfrwt>
<pdfrwt beam="2">  1       -2 0.18637932E+00 0.23759731E+04</pdfrwt>
<totfact> 0.29373731E+00</totfact>
</mgrwt>
</event>
<event>
 6    1  0.5040916E-004  0.1506776E+04  0.7818608E-02  0.8879959E-01
         -2   -1    0    0    0  501 -0.00000000000E+00  0.00000000000E+00  0.18947397698E+03  0.18947397698E+03  0.00000000000E+00 0. -1.
          2   -1    0    0  501    0  0.00000000000E+00 -0.00000000000E+00 -0.29956277576E+04  0.29956277576E+04  0.00000000000E+00 0.  1.
         23    2    1    2    0    0 -0.38556264004E+03 -0.59504916736E+03 -0.88463935667E+03  0.11369416475E+04  0.85483667576E+02 0.  0.
         11    1    3    3    0    0 -0.13237680475E+03 -0.28179685208E+03 -0.37846063751E+03  0.49006687138E+03  0.00000000000E+00 0. -1.
        -11    1    3    3    0    0 -0.25318583528E+03 -0.31325231528E+03 -0.50617871916E+03  0.64687477609E+03  0.00000000000E+00 0.  1.
         22    1    1    2    0    0  0.38556264004E+03  0.59504916736E+03 -0.19215144239E+04  0.20481600871E+04  0.00000000000E+00 0.  1.
<mgrwt>
<rscale>  0 0.15067760E+04</rscale>
<asrwt>0</asrwt>
<pdfrwt beam="1">  1        2 0.46086577E+00 0.15067760E+04</pdfrwt>
<pdfrwt beam="2">  1       -2 0.29149845E-01 0.15067760E+04</pdfrwt>
<totfact> 0.18438595E+01</totfact>
</mgrwt>
</event>
<event>
 6    1  0.5040916E-004  0.3536805E+04  0.7818608E-02  0.8105123E-01
          2   -1    0    0  501    0  0.00000000000E+00  0.00000000000E+00  0.22039655882E+04  0.22039655882E+04  0.00000000000E+00 0.  1.
         -2   -1    0    0    0  501 -0.00000000000E+00 -0.00000000000E+00 -0.14189188239E+04  0.14189188239E+04  0.00000000000E+00 0. -1.
         23    2    1    2    0    0  0.86910207694E+03  0.31020562525E+03  0.19366238925E+04  0.21471826020E+04  0.91187034922E+02 0.  0.
         13    1    3    3    0    0  0.61206985444E+03  0.21946602584E+03  0.14571492965E+04  0.15956437308E+04  0.00000000000E+00 0. -1.
        -13    1    3    3    0    0  0.25703222250E+03  0.90739599408E+02  0.47947459597E+03  0.55153887124E+03  0.00000000000E+00 0.  1.
         22    1    1    2    0    0 -0.86910207694E+03 -0.31020562525E+03 -0.11515771282E+04  0.14757018101E+04  0.00000000000E+00 0. -1.
<mgrwt>
<rscale>  0 0.35368055E+04</rscale>
<asrwt>0</asrwt>
<pdfrwt beam="1">  1        2 0.33907163E+00 0.35368055E+04</pdfrwt>
<pdfrwt beam="2">  1       -2 0.21829521E+00 0.35368055E+04</pdfrwt>
<totfact> 0.42648442E-01</totfact>
</mgrwt>
</event>
<event>
 6    1  0.5040916E-004  0.2101289E+04  0.7818608E-02  0.8560676E-01
         -2   -1    0    0    0  501 -0.00000000000E+00  0.00000000000E+00  0.10352339808E+04  0.10352339808E+04  0.00000000000E+00 0.  1.
          2   -1    0    0  501    0  0.00000000000E+00 -0.00000000000E+00 -0.10662840155E+04  0.10662840155E+04  0.00000000000E+00 0. -1.
         23    2    1    2    0    0 -0.94830598139E+02  0.91575706942E+03 -0.51765888461E+03  0.10601765415E+04  0.91650018004E+02 0.  0.
         11    1    3    3    0    0 -0.89347784002E+02  0.52811908078E+03 -0.33368683419E+03  0.63106235294E+03  0.00000000000E+00 0. -1.
        -11    1    3    3    0    0 -0.54828141379E+01  0.38763798865E+03 -0.18397205043E+03  0.42911418857E+03  0.00000000000E+00 0.  1.
         22    1    1    2    0    0  0.94830598139E+02 -0.91575706942E+03  0.48660884990E+03  0.10413414547E+04  0.00000000000E+00 0.  1.
<mgrwt>
<rscale>  0 0.21012886E+04</rscale>
<asrwt>0</asrwt>
<pdfrwt beam="1">  1        2 0.16404369E+00 0.21012886E+04</pdfrwt>
<pdfrwt beam="2">  1       -2 0.15926677E+00 0.21012886E+04</pdfrwt>
<totfact> 0.53732531E+00</totfact>
</mgrwt>
</event>
<event>
 6    1  0.5040916E-004  0.1746670E+04  0.7818608E-02  0.8735186E-01
          2   -1    0    0  501    0  0.00000000000E+00  0.00000000000E+00  0.62831198811E+03  0.62831198811E+03  0.00000000000E+00 0.  1.
         -2   -1    0    0    0  501 -0.00000000000E+00 -0.00000000000E+00 -0.12139092019E+04  0.12139092019E+04  0.00000000000E+00 0. -1.
         23    2    1    2    0    0  0.38310765066E+03  0.75788860777E+03 -0.49848652328E+03  0.98854977417E+03  0.87035787715E+02 0.  0.
         11    1    3    3    0    0  0.25475935691E+03  0.55368583096E+03 -0.31910087787E+03  0.68796489707E+03  0.00000000000E+00 0.  1.
        -11    1    3    3    0    0  0.12834829375E+03  0.20420277681E+03 -0.17938564541E+03  0.30058487710E+03  0.00000000000E+00 0. -1.
         22    1    1    2    0    0 -0.38310765066E+03 -0.75788860777E+03 -0.87110690491E+02  0.85367141582E+03  0.00000000000E+00 0.  1.
<mgrwt>
<rscale>  0 0.17466696E+04</rscale>
<asrwt>0</asrwt>
<pdfrwt beam="1">  1        2 0.96663385E-01 0.17466696E+04</pdfrwt>
<pdfrwt beam="2">  1       -2 0.18675526E+00 0.17466696E+04</pdfrwt>
<totfact> 0.72396565E+00</totfact>
</mgrwt>
</event>
<event>
 6    1  0.5040916E-004  0.2577655E+04  0.7818608E-02  0.8375831E-01
         -1   -1    0    0    0  501 -0.00000000000E+00  0.00000000000E+00  0.76712051526E+03  0.76712051526E+03  0.00000000000E+00 0. -1.
          1   -1    0    0  501    0  0.00000000000E+00 -0.00000000000E+00 -0.21653388473E+04  0.21653388473E+04  0.00000000000E+00 0.  1.
         23    2    1    2    0    0 -0.12609582058E+04  0.15989102794E+01 -0.40696590972E+03  0.13285268459E+04  0.96665274967E+02 0.  0.
         13    1    3    3    0    0 -0.10851742908E+04  0.56185155727E+01 -0.31437630561E+03  0.11298085106E+04  0.00000000000E+00 0.  1.
        -13    1    3    3    0    0 -0.17578391501E+03 -0.40196052933E+01 -0.92589604116E+02  0.19871833532E+03  0.00000000000E+00 0. -1.
         22    1    1    2    0    0  0.12609582058E+04 -0.15989102794E+01 -0.99125242232E+03  0.16039325167E+04  0.00000000000E+00 0.  1.
<mgrwt>
<rscale>  0 0.25776546E+04</rscale>
<asrwt>0</asrwt>
<pdfrwt beam="1">  1        1 0.33312905E+00 0.25776546E+04</pdfrwt>
<pdfrwt beam="2">  1       -1 0.11801854E+00 0.25776546E+04</pdfrwt>
<totfact> 0.13085823E+00</totfact>
</mgrwt>
</event>
<event>
 6    1  0.5040916E-004  0.2217498E+04  0.7818608E-02  0.8511180E-01
          2   -1    0    0  501    0  0.00000000000E+00  0.00000000000E+00  0.80686253130E+03  0.80686253130E+03  0.00000000000E+00 0.  1.
         -2   -1    0    0    0  501 -0.00000000000E+00 -0.00000000000E+00 -0.15235857613E+04  0.15235857613E+04  0.00000000000E+00 0. -1.
         23    2    1    2    0    0 -0.10828307788E+04 -0.22201501630E+03 -0.29760913963E+03  0.11483020310E+04  0.90626659691E+02 0.  0.
         13    1    3    3    0    0 -0.64722139614E+03 -0.16768009238E+03 -0.15045393582E+03  0.68530908049E+03  0.00000000000E+00 0.  1.
        -13    1    3    3    0    0 -0.43560938267E+03 -0.54334923917E+02 -0.14715520380E+03  0.46299295052E+03  0.00000000000E+00 0. -1.
         22    1    1    2    0    0  0.10828307788E+04  0.22201501630E+03 -0.41911409033E+03  0.11821462616E+04  0.00000000000E+00 0.  1.
<mgrwt>
<rscale>  0 0.22174979E+04</rscale>
<asrwt>0</asrwt>
<pdfrwt beam="1">  1        2 0.12413270E+00 0.22174979E+04</pdfrwt>
<pdfrwt beam="2">  1       -2 0.23439781E+00 0.22174979E+04</pdfrwt>
<totfact> 0.24938963E+00</totfact>
</mgrwt>
</event>
<event>
 6    1  0.5040916E-004  0.2406500E+04  0.7818608E-02  0.8437074E-01
         -2   -1    0    0    0  501 -0.00000000000E+00  0.00000000000E+00  0.59257499693E+03  0.59257499693E+03  0.00000000000E+00 0. -1.
          2   -1    0    0  501    0  0.00000000000E+00 -0.00000000000E+00 -0.24432527998E+04  0.24432527998E+04  0.00000000000E+00 0.  1.
         23    2    1    2    0    0 -0.10876368199E+03 -0.27859638324E+03 -0.23947571238E+04  0.24149672723E+04  0.88089506220E+02 0.  0.
         13    1    3    3    0    0 -0.53684344564E+01 -0.12395563806E+03 -0.83793598030E+03  0.84707173686E+03  0.00000000000E+00 0.  1.
        -13    1    3    3    0    0 -0.10339524753E+03 -0.15464074518E+03 -0.15568211435E+04  0.15678955355E+04  0.00000000000E+00 0. -1.
         22    1    1    2    0    0  0.10876368199E+03  0.27859638324E+03  0.54407932094E+03  0.62086052439E+03  0.00000000000E+00 0. -1.
<mgrwt>
<rscale>  0 0.24065000E+04</rscale>
<asrwt>0</asrwt>
<pdfrwt beam="1">  1        2 0.37588505E+00 0.24065000E+04</pdfrwt>
<pdfrwt beam="2">  1       -2 0.91165384E-01 0.24065000E+04</pdfrwt>
<totfact> 0.34608370E+00</totfact>
</mgrwt>
</event>
<event>
 6    1  0.5040916E-004  0.1165049E+04  0.7818608E-02  0.9144011E-01
         -2   -1    0    0    0  501 -0.00000000000E+00  0.00000000000E+00  0.15835437514E+03  0.15835437514E+03  0.00000000000E+00 0. -1.
          2   -1    0    0  501    0  0.00000000000E+00 -0.00000000000E+00 -0.21428829638E+04  0.21428829638E+04  0.00000000000E+00 0.  1.
         23    2    1    2    0    0 -0.31946764791E+03 -0.24570409416E+03 -0.17714652818E+03  0.44946521676E+03  0.90598061180E+02 0.  0.
         11    1    3    3    0    0 -0.19329197845E+03 -0.17571658478E+03 -0.15427007482E+03  0.30337660273E+03  0.00000000000E+00 0.  1.
        -11    1    3    3    0    0 -0.12617566946E+03 -0.69987509376E+02 -0.22876453363E+02  0.14608861403E+03  0.00000000000E+00 0. -1.
         22    1    1    2    0    0  0.31946764791E+03  0.24570409416E+03 -0.18073820605E+04  0.18517721222E+04  0.00000000000E+00 0.  1.
<mgrwt>
<rscale>  0 0.11650492E+04</rscale>
<asrwt>0</asrwt>
<pdfrwt beam="1">  1        2 0.32967427E+00 0.11650492E+04</pdfrwt>
<pdfrwt beam="2">  1       -2 0.24362214E-01 0.11650492E+04</pdfrwt>
<totfact> 0.82896899E+01</totfact>
</mgrwt>
</event>
<event>
 6    1  0.5040916E-004  0.6512356E+03  0.7818608E-02  0.9804463E-01
          1   -1    0    0  501    0  0.00000000000E+00  0.00000000000E+00  0.54389661221E+03  0.54389661221E+03  0.00000000000E+00 0.  1.
         -1   -1    0    0    0  501 -0.00000000000E+00 -0.00000000000E+00 -0.19493955385E+03  0.19493955385E+03  0.00000000000E+00 0. -1.
         23    2    1    2    0    0 -0.17630794749E+03 -0.69021047810E+02  0.46938020226E+03  0.51444781748E+03  0.92143286514E+02 0.  0.
         13    1    3    3    0    0 -0.81499809982E+02 -0.47804696552E+02  0.12540431191E+03  0.15701512502E+03  0.00000000000E+00 0. -1.
        -13    1    3    3    0    0 -0.94808137505E+02 -0.21216351258E+02  0.34397589035E+03  0.35743269246E+03  0.00000000000E+00 0.  1.
         22    1    1    2    0    0  0.17630794749E+03  0.69021047810E+02 -0.12042314390E+03  0.22438834857E+03  0.00000000000E+00 0. -1.
<mgrwt>
<rscale>  0 0.65123563E+03</rscale>
<asrwt>0</asrwt>
<pdfrwt beam="1">  1        1 0.83676401E-01 0.65123563E+03</pdfrwt>
<pdfrwt beam="2">  1       -1 0.29990701E-01 0.65123563E+03</pdfrwt>
<totfact> 0.40687315E+02</totfact>
</mgrwt>
</event>
<event>
 6    1  0.5040916E-004  0.1869437E+04  0.7818608E-02  0.8670221E-01
          2   -1    0    0  501    0  0.00000000000E+00  0.00000000000E+00  0.27239033535E+04  0.27239033535E+04  0.00000000000E+00 0.  1.
         -2   -1    0    0    0  501 -0.00000000000E+00 -0.00000000000E+00 -0.32075228602E+03  0.32075228602E+03  0.00000000000E+00 0. -1.
         23    2    1    2    0    0 -0.62744637848E+03 -0.60849981893E+03  0.67412191430E+03  0.11072597584E+04  0.87308818761E+02 0.  0.
         13    1    3    3    0    0 -0.42058852037E+03 -0.46224537775E+03  0.47180031663E+03  0.78304599577E+03  0.00000000000E+00 0.  1.
        -13    1    3    3    0    0 -0.20685785811E+03 -0.14625444118E+03  0.20232159767E+03  0.32421376268E+03  0.00000000000E+00 0. -1.
         22    1    1    2    0    0  0.62744637848E+03  0.60849981893E+03  0.17290291532E+04  0.19373958811E+04  0.00000000000E+00 0.  1.
<mgrwt>
<rscale>  0 0.18694365E+04</rscale>
<asrwt>0</asrwt>
<pdfrwt beam="1">  1        2 0.41906204E+00 0.18694365E+04</pdfrwt>
<pdfrwt beam="2">  1       -2 0.49346507E-01 0.18694365E+04</pdfrwt>
<totfact> 0.93948411E+00</totfact>
</mgrwt>
</event>
<event>
 6    1  0.5040916E-004  0.2316765E+04  0.7818608E-02  0.8471340E-01
         -2   -1    0    0    0  501 -0.00000000000E+00  0.00000000000E+00  0.14766571694E+04  0.14766571694E+04  0.00000000000E+00 0. -1.
          2   -1    0    0  501    0  0.00000000000E+00 -0.00000000000E+00 -0.90870795567E+03  0.90870795567E+03  0.00000000000E+00 0.  1.
         23    2    1    2    0    0 -0.25938843080E+03 -0.10485726655E+04  0.70996664875E+03  0.12958900474E+04  0.92148682939E+02 0.  0.
         13    1    3    3    0    0 -0.88993416654E+02 -0.28802249767E+03  0.15401674562E+03  0.33852318282E+03  0.00000000000E+00 0. -1.
        -13    1    3    3    0    0 -0.17039501414E+03 -0.76055016786E+03  0.55594990312E+03  0.95736686461E+03  0.00000000000E+00 0.  1.
         22    1    1    2    0    0  0.25938843080E+03  0.10485726655E+04 -0.14201743503E+03  0.10894750776E+04  0.00000000000E+00 0.  1.
<mgrwt>
<rscale>  0 0.23167651E+04</rscale>
<asrwt>0</asrwt>
<pdfrwt beam="1">  1        2 0.13980122E+00 0.23167651E+04</pdfrwt>
<pdfrwt beam="2">  1       -2 0.22717803E+00 0.23167651E+04</pdfrwt>
<totfact> 0.23316512E+00</totfact>
</mgrwt>
</event>
<event>
 6    1  0.5040916E-004  0.2421536E+04  0.7818608E-02  0.8431484E-01
          2   -1    0    0  501    0  0.00000000000E+00  0.00000000000E+00  0.26061317037E+04  0.26061317037E+04  0.00000000000E+00 0.  1.
         -2   -1    0    0    0  501 -0.00000000000E+00 -0.00000000000E+00 -0.56250400145E+03  0.56250400145E+03  0.00000000000E+00 0. -1.
         23    2    1    2    0    0  0.63730106447E+03  0.55911005414E+03 -0.10468438626E+03  0.85908996431E+03  0.91214289682E+02 0.  0.
         13    1    3    3    0    0  0.46444805639E+03  0.36648707427E+03 -0.10143322631E+03  0.60026116990E+03  0.00000000000E+00 0. -1.
        -13    1    3    3    0    0  0.17285300808E+03  0.19262297987E+03 -0.32511599525E+01  0.25882879441E+03  0.00000000000E+00 0.  1.
         22    1    1    2    0    0 -0.63730106447E+03 -0.55911005414E+03  0.21483120885E+04  0.23095457409E+04  0.00000000000E+00 0.  1.
<mgrwt>
<rscale>  0 0.24215363E+04</rscale>
<asrwt>0</asrwt>
<pdfrwt beam="1">  1        2 0.40094333E+00 0.24215363E+04</pdfrwt>
<pdfrwt beam="2">  1       -2 0.86539079E-01 0.24215363E+04</pdfrwt>
<totfact> 0.31329566E+00</totfact>
</mgrwt>
</event>
<event>
 6    1  0.5040916E-004  0.2519082E+04  0.7818608E-02  0.8396219E-01
          2   -1    0    0  501    0  0.00000000000E+00  0.00000000000E+00  0.20954165649E+04  0.20954165649E+04  0.00000000000E+00 0.  1.
         -2   -1    0    0    0  501 -0.00000000000E+00 -0.00000000000E+00 -0.75710189329E+03  0.75710189329E+03  0.00000000000E+00 0. -1.
         23    2    1    2    0    0 -0.28159149701E+03 -0.51796334913E+03  0.19281660614E+04  0.20185493556E+04  0.95589426664E+02 0.  0.
         13    1    3    3    0    0 -0.13131860584E+03 -0.17597613500E+03  0.83186152393E+03  0.86035212054E+03  0.00000000000E+00 0.  1.
        -13    1    3    3    0    0 -0.15027289117E+03 -0.34198721413E+03  0.10963045374E+04  0.11581972350E+04  0.00000000000E+00 0. -1.
         22    1    1    2    0    0  0.28159149701E+03  0.51796334913E+03 -0.58985138972E+03  0.83396910265E+03  0.00000000000E+00 0. -1.
<mgrwt>
<rscale>  0 0.25190823E+04</rscale>
<asrwt>0</asrwt>
<pdfrwt beam="1">  1        2 0.32237178E+00 0.25190823E+04</pdfrwt>
<pdfrwt beam="2">  1       -2 0.11647722E+00 0.25190823E+04</pdfrwt>
<totfact> 0.30079190E+00</totfact>
</mgrwt>
</event>
<event>
 6    1  0.5040916E-004  0.7066447E+03  0.7818608E-02  0.9705936E-01
         -2   -1    0    0    0  501 -0.00000000000E+00  0.00000000000E+00  0.90461239761E+02  0.90461239761E+02  0.00000000000E+00 0. -1.
          2   -1    0    0  501    0  0.00000000000E+00 -0.00000000000E+00 -0.13800018427E+04  0.13800018427E+04  0.00000000000E+00 0.  1.
         23    2    1    2    0    0  0.18974592273E+03 -0.98525249276E+02 -0.86070423979E+02  0.24814920641E+03  0.91973750725E+02 0.  0.
         13    1    3    3    0    0  0.13976692461E+03 -0.10351643626E+03 -0.36773344329E+02  0.17777155185E+03  0.00000000000E+00 0. -1.
        -13    1    3    3    0    0  0.49978998113E+02  0.49911869891E+01 -0.49297079650E+02  0.70377654564E+02  0.00000000000E+00 0.  1.
         22    1    1    2    0    0 -0.18974592273E+03  0.98525249276E+02 -0.12034701789E+04  0.12223138760E+04  0.00000000000E+00 0.  1.
<mgrwt>
<rscale>  0 0.70664468E+03</rscale>
<asrwt>0</asrwt>
<pdfrwt beam="1">  1        2 0.21230797E+00 0.70664468E+03</pdfrwt>
<pdfrwt beam="2">  1       -2 0.13917114E-01 0.70664468E+03</pdfrwt>
<totfact> 0.59792021E+02</totfact>
</mgrwt>
</event>
<event>
 6    1  0.5040916E-004  0.2112587E+04  0.7818608E-02  0.8555719E-01
          2   -1    0    0  501    0  0.00000000000E+00  0.00000000000E+00  0.21584317243E+04  0.21584317243E+04  0.00000000000E+00 0.  1.
         -2   -1    0    0    0  501 -0.00000000000E+00 -0.00000000000E+00 -0.51692916216E+03  0.51692916216E+03  0.00000000000E+00 0. -1.
         23    2    1    2    0    0  0.25132061586E+03 -0.19401760720E+03  0.20954785806E+04  0.21213761310E+04  0.91658733762E+02 0.  0.
         13    1    3    3    0    0  0.13298202370E+03 -0.45498065747E+02  0.88180561853E+03  0.89293641514E+03  0.00000000000E+00 0.  1.
        -13    1    3    3    0    0  0.11833859216E+03 -0.14851954145E+03  0.12136729621E+04  0.12284397158E+04  0.00000000000E+00 0. -1.
         22    1    1    2    0    0 -0.25132061586E+03  0.19401760720E+03 -0.45397601851E+03  0.55398475543E+03  0.00000000000E+00 0. -1.
<mgrwt>
<rscale>  0 0.21125873E+04</rscale>
<asrwt>0</asrwt>
<pdfrwt beam="1">  1        2 0.33206641E+00 0.21125873E+04</pdfrwt>
<pdfrwt beam="2">  1       -2 0.79527565E-01 0.21125873E+04</pdfrwt>
<totfact> 0.70268817E+00</totfact>
</mgrwt>
</event>
<event>
 6    1  0.5040916E-004  0.1983922E+04  0.7818608E-02  0.8614175E-01
         -2   -1    0    0    0  501 -0.00000000000E+00  0.00000000000E+00  0.99173786488E+03  0.99173786488E+03  0.00000000000E+00 0. -1.
          2   -1    0    0  501    0  0.00000000000E+00 -0.00000000000E+00 -0.99218447589E+03  0.99218447589E+03  0.00000000000E+00 0.  1.
         23    2    1    2    0    0  0.94000116283E+03  0.16058039942E+03 -0.26584271084E+03  0.99406207759E+03  0.89993424141E+02 0.  0.
         13    1    3    3    0    0  0.85129223298E+03  0.16055435077E+03 -0.26286430385E+03  0.90530315791E+03  0.00000000000E+00 0. -1.
        -13    1    3    3    0    0  0.88708929852E+02  0.26048643776E-01 -0.29784069892E+01  0.88758919677E+02  0.00000000000E+00 0.  1.
         22    1    1    2    0    0 -0.94000116283E+03 -0.16058039942E+03  0.26539609983E+03  0.98986026317E+03  0.00000000000E+00 0. -1.
<mgrwt>
<rscale>  0 0.19839223E+04</rscale>
<asrwt>0</asrwt>
<pdfrwt beam="1">  1        2 0.15264377E+00 0.19839223E+04</pdfrwt>
<pdfrwt beam="2">  1       -2 0.15257506E+00 0.19839223E+04</pdfrwt>
<totfact> 0.67872047E+00</totfact>
</mgrwt>
</event>
<event>
 6    1  0.5040916E-004  0.2677964E+04  0.7818608E-02  0.8342191E-01
         -1   -1    0    0    0  501 -0.00000000000E+00  0.00000000000E+00  0.96906760366E+03  0.96906760366E+03  0.00000000000E+00 0.  1.
          1   -1    0    0  501    0  0.00000000000E+00 -0.00000000000E+00 -0.18501004838E+04  0.18501004838E+04  0.00000000000E+00 0. -1.
         23    2    1    2    0    0 -0.12079538607E+04 -0.43632289828E+03 -0.49368480075E+02  0.12890713992E+04  0.98679401005E+02 0.  0.
         11    1    3    3    0    0 -0.45551240102E+03 -0.21568900800E+03 -0.21281941403E+02  0.50444644581E+03  0.00000000000E+00 0. -1.
        -11    1    3    3    0    0 -0.75244145968E+03 -0.22063389028E+03 -0.28086538672E+02  0.78462495336E+03  0.00000000000E+00 0.  1.
         22    1    1    2    0    0  0.12079538607E+04  0.43632289828E+03 -0.83166440004E+03  0.15300966883E+04  0.00000000000E+00 0.  1.
<mgrwt>
<rscale>  0 0.26779637E+04</rscale>
<asrwt>0</asrwt>
<pdfrwt beam="1">  1        1 0.28463084E+00 0.26779637E+04</pdfrwt>
<pdfrwt beam="2">  1       -1 0.14908732E+00 0.26779637E+04</pdfrwt>
<totfact> 0.11687192E+00</totfact>
</mgrwt>
</event>
<event>
 6    1  0.5040916E-004  0.1659010E+04  0.7818608E-02  0.8785094E-01
         -2   -1    0    0    0  501 -0.00000000000E+00  0.00000000000E+00  0.49059079759E+03  0.49059079759E+03  0.00000000000E+00 0. -1.
          2   -1    0    0  501    0  0.00000000000E+00 -0.00000000000E+00 -0.14025508328E+04  0.14025508328E+04  0.00000000000E+00 0.  1.
         23    2    1    2    0    0  0.70988877587E+03  0.38120486757E+03 -0.66957999098E+03  0.10517099273E+04  0.92180158698E+02 0.  0.
         13    1    3    3    0    0  0.52167302078E+03  0.30950757913E+03 -0.54078374074E+03  0.81264059485E+03  0.00000000000E+00 0.  1.
        -13    1    3    3    0    0  0.18821575509E+03  0.71697288437E+02 -0.12879625024E+03  0.23906933243E+03  0.00000000000E+00 0. -1.
         22    1    1    2    0    0 -0.70988877587E+03 -0.38120486757E+03 -0.24238004423E+03  0.84143170311E+03  0.00000000000E+00 0. -1.
<mgrwt>
<rscale>  0 0.16590100E+04</rscale>
<asrwt>0</asrwt>
<pdfrwt beam="1">  1        2 0.21577705E+00 0.16590100E+04</pdfrwt>
<pdfrwt beam="2">  1       -2 0.75475507E-01 0.16590100E+04</pdfrwt>
<totfact> 0.21677099E+01</totfact>
</mgrwt>
</event>
<event>
 6    1  0.5040916E-004  0.3661266E+04  0.7818608E-02  0.8076600E-01
          2   -1    0    0  501    0  0.00000000000E+00  0.00000000000E+00  0.36077378809E+04  0.36077378809E+04  0.00000000000E+00 0.  1.
         -2   -1    0    0    0  501 -0.00000000000E+00 -0.00000000000E+00 -0.92889710631E+03  0.92889710631E+03  0.00000000000E+00 0. -1.
         23    2    1    2    0    0  0.10237836793E+03 -0.13531361082E+04  0.28606373536E+04  0.31675080195E+04  0.91664212151E+02 0.  0.
         13    1    3    3    0    0  0.48421393700E+02 -0.55106792446E+03  0.10635326643E+04  0.11988003239E+04  0.00000000000E+00 0.  1.
        -13    1    3    3    0    0  0.53956974228E+02 -0.80206818372E+03  0.17971046893E+04  0.19687076956E+04  0.00000000000E+00 0. -1.
         22    1    1    2    0    0 -0.10237836793E+03  0.13531361082E+04 -0.18179657898E+03  0.13691269677E+04  0.00000000000E+00 0. -1.
<mgrwt>
<rscale>  0 0.36612661E+04</rscale>
<asrwt>0</asrwt>
<pdfrwt beam="1">  1        2 0.55503659E+00 0.36612661E+04</pdfrwt>
<pdfrwt beam="2">  1       -2 0.14290725E+00 0.36612661E+04</pdfrwt>
<totfact> 0.18778982E-01</totfact>
</mgrwt>
</event>
<event>
 6    1  0.5040916E-004  0.4074806E+04  0.7818608E-02  0.7989623E-01
         -2   -1    0    0    0  501 -0.00000000000E+00  0.00000000000E+00  0.15789065076E+04  0.15789065076E+04  0.00000000000E+00 0. -1.
          2   -1    0    0  501    0  0.00000000000E+00 -0.00000000000E+00 -0.26290422819E+04  0.26290422819E+04  0.00000000000E+00 0.  1.
         23    2    1    2    0    0 -0.14316389087E+04 -0.12955082293E+04  0.14295744987E+03  0.19382785539E+04  0.92495311984E+02 0.  0.
         11    1    3    3    0    0 -0.84086542040E+03 -0.74692002015E+03  0.38701581807E+02  0.11253630455E+04  0.00000000000E+00 0.  1.
        -11    1    3    3    0    0 -0.59077348831E+03 -0.54858820918E+03  0.10425586806E+03  0.81291550838E+03  0.00000000000E+00 0. -1.
         22    1    1    2    0    0  0.14316389087E+04  0.12955082293E+04 -0.11930932242E+04  0.22696702357E+04  0.00000000000E+00 0.  1.
<mgrwt>
<rscale>  0 0.40748065E+04</rscale>
<asrwt>0</asrwt>
<pdfrwt beam="1">  1        2 0.40446804E+00 0.40748065E+04</pdfrwt>
<pdfrwt beam="2">  1       -2 0.24290869E+00 0.40748065E+04</pdfrwt>
<totfact> 0.16302997E-01</totfact>
</mgrwt>
</event>
<event>
 6    1  0.5040916E-004  0.3434489E+04  0.7818608E-02  0.8129493E-01
          2   -1    0    0  501    0  0.00000000000E+00  0.00000000000E+00  0.15090221020E+04  0.15090221020E+04  0.00000000000E+00 0.  1.
         -2   -1    0    0    0  501 -0.00000000000E+00 -0.00000000000E+00 -0.19541981501E+04  0.19541981501E+04  0.00000000000E+00 0. -1.
         23    2    1    2    0    0  0.36197827568E+03 -0.14476993232E+04  0.63156798009E+03  0.16230465362E+04  0.92413975475E+02 0.  0.
         11    1    3    3    0    0  0.22224967226E+03 -0.10080231198E+04  0.40211689442E+03  0.11077921843E+04  0.00000000000E+00 0.  1.
        -11    1    3    3    0    0  0.13972860342E+03 -0.43967620336E+03  0.22945108568E+03  0.51525435188E+03  0.00000000000E+00 0. -1.
         22    1    1    2    0    0 -0.36197827568E+03  0.14476993232E+04 -0.10767440283E+04  0.18401737159E+04  0.00000000000E+00 0. -1.
<mgrwt>
<rscale>  0 0.34344887E+04</rscale>
<asrwt>0</asrwt>
<pdfrwt beam="1">  1        2 0.23215724E+00 0.34344887E+04</pdfrwt>
<pdfrwt beam="2">  1       -2 0.30064587E+00 0.34344887E+04</pdfrwt>
<totfact> 0.32638972E-01</totfact>
</mgrwt>
</event>
<event>
 6    1  0.5040916E-004  0.1462674E+04  0.7818608E-02  0.8909661E-01
          2   -1    0    0  501    0  0.00000000000E+00  0.00000000000E+00  0.18042873227E+04  0.18042873227E+04  0.00000000000E+00 0.  1.
         -2   -1    0    0    0  501 -0.00000000000E+00 -0.00000000000E+00 -0.29643508535E+03  0.29643508535E+03  0.00000000000E+00 0. -1.
         23    2    1    2    0    0  0.17668790549E+03 -0.42824526945E+03  0.15641491601E+04  0.16340512495E+04  0.94595264988E+02 0.  0.
         13    1    3    3    0    0  0.10519851573E+03 -0.14677856642E+03  0.67106590179E+03  0.69493893244E+03  0.00000000000E+00 0. -1.
        -13    1    3    3    0    0  0.71489389764E+02 -0.28146670303E+03  0.89308325830E+03  0.93911231704E+03  0.00000000000E+00 0.  1.
         22    1    1    2    0    0 -0.17668790549E+03  0.42824526945E+03 -0.56296922714E+02  0.46667115859E+03  0.00000000000E+00 0. -1.
<mgrwt>
<rscale>  0 0.14626744E+04</rscale>
<asrwt>0</asrwt>
<pdfrwt beam="1">  1        2 0.27758266E+00 0.14626744E+04</pdfrwt>
<pdfrwt beam="2">  1       -2 0.45605399E-01 0.14626744E+04</pdfrwt>
<totfact> 0.37908905E+01</totfact>
</mgrwt>
</event>
<event>
 6    1  0.5040916E-004  0.8448335E+03  0.7818608E-02  0.9497298E-01
         -2   -1    0    0    0  501 -0.00000000000E+00  0.00000000000E+00  0.75336154978E+03  0.75336154978E+03  0.00000000000E+00 0. -1.
          2   -1    0    0  501    0  0.00000000000E+00 -0.00000000000E+00 -0.23685297126E+03  0.23685297126E+03  0.00000000000E+00 0.  1.
         23    2    1    2    0    0  0.76100131178E+02 -0.35363712652E+03  0.16264347283E+02  0.37288580949E+03  0.89044094168E+02 0.  0.
         13    1    3    3    0    0 -0.88415229851E+01 -0.16962248304E+03  0.64670426959E+01  0.16997582747E+03  0.00000000000E+00 0.  1.
        -13    1    3    3    0    0  0.84941654163E+02 -0.18401464348E+03  0.97973045870E+01  0.20290998202E+03  0.00000000000E+00 0. -1.
         22    1    1    2    0    0 -0.76100131178E+02  0.35363712652E+03  0.50024423124E+03  0.61732871155E+03  0.00000000000E+00 0. -1.
<mgrwt>
<rscale>  0 0.84483353E+03</rscale>
<asrwt>0</asrwt>
<pdfrwt beam="1">  1        2 0.36438919E-01 0.84483353E+03</pdfrwt>
<pdfrwt beam="2">  1       -2 0.11590178E+00 0.84483353E+03</pdfrwt>
<totfact> 0.83148526E+01</totfact>
</mgrwt>
</event>
<event>
 6    1  0.5040916E-004  0.5338474E+04  0.7818608E-02  0.7778315E-01
         -2   -1    0    0    0  501 -0.00000000000E+00  0.00000000000E+00  0.40289998114E+04  0.40289998114E+04  0.00000000000E+00 0. -1.
          2   -1    0    0  501    0  0.00000000000E+00 -0.00000000000E+00 -0.17683856137E+04  0.17683856137E+04  0.00000000000E+00 0.  1.
         23    2    1    2    0    0 -0.92730149184E+03 -0.24955435546E+04  0.93296098818E+03  0.28224419409E+04  0.90203184330E+02 0.  0.
         13    1    3    3    0    0 -0.59638607263E+03 -0.16600608185E+04  0.57757588241E+03  0.18560905605E+04  0.00000000000E+00 0. -1.
        -13    1    3    3    0    0 -0.33091541921E+03 -0.83548273608E+03  0.35538510577E+03  0.96635138038E+03  0.00000000000E+00 0.  1.
         22    1    1    2    0    0  0.92730149184E+03  0.24955435546E+04  0.13276532096E+04  0.29749434843E+04  0.00000000000E+00 0. -1.
<mgrwt>
<rscale>  0 0.53384737E+04</rscale>
<asrwt>0</asrwt>
<pdfrwt beam="1">  1        2 0.27205933E+00 0.53384737E+04</pdfrwt>
<pdfrwt beam="2">  1       -2 0.61984612E+00 0.53384737E+04</pdfrwt>
<totfact> 0.27603812E-03</totfact>
</mgrwt>
</event>
<event>
 6    1  0.5040916E-004  0.2704990E+04  0.7818608E-02  0.8333388E-01
         -2   -1    0    0    0  501 -0.00000000000E+00  0.00000000000E+00  0.10538810191E+04  0.10538810191E+04  0.00000000000E+00 0. -1.
          2   -1    0    0  501    0  0.00000000000E+00 -0.00000000000E+00 -0.17357198059E+04  0.17357198059E+04  0.00000000000E+00 0.  1.
         23    2    1    2    0    0 -0.98161643003E+03  0.54377905411E+03  0.43402283476E+03  0.12070668968E+04  0.96789446191E+02 0.  0.
         11    1    3    3    0    0 -0.82887118915E+03  0.47831150134E+03  0.40118381437E+03  0.10376694047E+04  0.00000000000E+00 0. -1.
        -11    1    3    3    0    0 -0.15274524088E+03  0.65467552772E+02  0.32839020389E+02  0.16939749212E+03  0.00000000000E+00 0.  1.
         22    1    1    2    0    0  0.98161643003E+03 -0.54377905411E+03 -0.11158616216E+04  0.15825339282E+04  0.00000000000E+00 0.  1.
<mgrwt>
<rscale>  0 0.27049896E+04</rscale>
<asrwt>0</asrwt>
<pdfrwt beam="1">  1        2 0.26703382E+00 0.27049896E+04</pdfrwt>
<pdfrwt beam="2">  1       -2 0.16213554E+00 0.27049896E+04</pdfrwt>
<totfact> 0.19960882E+00</totfact>
</mgrwt>
</event>
<event>
 6    1  0.5040916E-004  0.1510499E+04  0.7818608E-02  0.8877501E-01
          2   -1    0    0  501    0  0.00000000000E+00  0.00000000000E+00  0.16040644875E+04  0.16040644875E+04  0.00000000000E+00 0.  1.
         -2   -1    0    0    0  501 -0.00000000000E+00 -0.00000000000E+00 -0.35559761222E+03  0.35559761222E+03  0.00000000000E+00 0. -1.
         23    2    1    2    0    0 -0.40860134962E+03 -0.37573398307E+03 -0.32650831149E+02  0.56345521437E+03  0.91019848865E+02 0.  0.
         13    1    3    3    0    0 -0.26889596467E+03 -0.18700097825E+03 -0.25774070661E+02  0.32854026907E+03  0.00000000000E+00 0. -1.
        -13    1    3    3    0    0 -0.13970538495E+03 -0.18873300482E+03 -0.68767604878E+01  0.23491494530E+03  0.00000000000E+00 0.  1.
         22    1    1    2    0    0  0.40860134962E+03  0.37573398307E+03  0.12811177064E+04  0.13962068853E+04  0.00000000000E+00 0.  1.
<mgrwt>
<rscale>  0 0.15104986E+04</rscale>
<asrwt>0</asrwt>
<pdfrwt beam="1">  1        2 0.24677915E+00 0.15104986E+04</pdfrwt>
<pdfrwt beam="2">  1       -2 0.54707326E-01 0.15104986E+04</pdfrwt>
<totfact> 0.33663922E+01</totfact>
</mgrwt>
</event>
<event>
 6    1  0.5040916E-004  0.1289425E+04  0.7818608E-02  0.9037994E-01
          1   -1    0    0  501    0  0.00000000000E+00  0.00000000000E+00  0.29199579345E+03  0.29199579345E+03  0.00000000000E+00 0. -1.
         -1   -1    0    0    0  501 -0.00000000000E+00 -0.00000000000E+00 -0.14234929862E+04  0.14234929862E+04  0.00000000000E+00 0.  1.
         23    2    1    2    0    0 -0.40070717738E+03  0.32952292601E+02 -0.12333972745E+04  0.13007168878E+04  0.94570026332E+02 0.  0.
         13    1    3    3    0    0 -0.21693983888E+03 -0.28873259233E+02 -0.62959702927E+03  0.66655005668E+03  0.00000000000E+00 0. -1.
        -13    1    3    3    0    0 -0.18376733849E+03  0.61825551834E+02 -0.60380024521E+03  0.63416683111E+03  0.00000000000E+00 0.  1.
         22    1    1    2    0    0  0.40070717738E+03 -0.32952292601E+02  0.10190008177E+03  0.41477189183E+03  0.00000000000E+00 0. -1.
<mgrwt>
<rscale>  0 0.12894246E+04</rscale>
<asrwt>0</asrwt>
<pdfrwt beam="1">  1        1 0.44922431E-01 0.12894246E+04</pdfrwt>
<pdfrwt beam="2">  1       -1 0.21899892E+00 0.12894246E+04</pdfrwt>
<totfact> 0.99864900E+00</totfact>
</mgrwt>
</event>
<event>
 6    1  0.5040916E-004  0.4485994E+04  0.7818608E-02  0.7913093E-01
          1   -1    0    0  501    0  0.00000000000E+00  0.00000000000E+00  0.30254785622E+04  0.30254785622E+04  0.00000000000E+00 0.  1.
         -1   -1    0    0    0  501 -0.00000000000E+00 -0.00000000000E+00 -0.16628891514E+04  0.16628891514E+04  0.00000000000E+00 0. -1.
         23    2    1    2    0    0  0.68594766237E+03 -0.15387114706E+03  0.29066562623E+04  0.29917997169E+04  0.89523143320E+02 0.  0.
         13    1    3    3    0    0  0.57284645201E+03 -0.15512944932E+03  0.25198347983E+04  0.25887807196E+04  0.00000000000E+00 0.  1.
        -13    1    3    3    0    0  0.11310121036E+03  0.12583022538E+01  0.38682146404E+03  0.40301899726E+03  0.00000000000E+00 0. -1.
         22    1    1    2    0    0 -0.68594766237E+03  0.15387114706E+03 -0.15440668516E+04  0.16965679967E+04  0.00000000000E+00 0. -1.
<mgrwt>
<rscale>  0 0.44859940E+04</rscale>
<asrwt>0</asrwt>
<pdfrwt beam="1">  1        1 0.46545824E+00 0.44859940E+04</pdfrwt>
<pdfrwt beam="2">  1       -1 0.25582910E+00 0.44859940E+04</pdfrwt>
<totfact> 0.27506555E-02</totfact>
</mgrwt>
</event>
<event>
 6    1  0.5040916E-004  0.4507899E+04  0.7818608E-02  0.7909255E-01
         -2   -1    0    0    0  501 -0.00000000000E+00  0.00000000000E+00  0.21268152051E+04  0.21268152051E+04  0.00000000000E+00 0. -1.
          2   -1    0    0  501    0  0.00000000000E+00 -0.00000000000E+00 -0.23886834623E+04  0.23886834623E+04  0.00000000000E+00 0.  1.
         23    2    1    2    0    0 -0.10135503325E+04 -0.17848729920E+04  0.80013802373E+03  0.22044570808E+04  0.79713802079E+02 0.  0.
         13    1    3    3    0    0 -0.27780358374E+03 -0.55943036596E+03  0.23054627429E+03  0.66579933169E+03  0.00000000000E+00 0. -1.
        -13    1    3    3    0    0 -0.73574674874E+03 -0.12254426260E+04  0.56959174943E+03  0.15386577491E+04  0.00000000000E+00 0.  1.
         22    1    1    2    0    0  0.10135503325E+04  0.17848729920E+04 -0.10620062809E+04  0.23110415865E+04  0.00000000000E+00 0.  1.
<mgrwt>
<rscale>  0 0.45078990E+04</rscale>
<asrwt>0</asrwt>
<pdfrwt beam="1">  1        2 0.36748976E+00 0.45078990E+04</pdfrwt>
<pdfrwt beam="2">  1       -2 0.32720234E+00 0.45078990E+04</pdfrwt>
<totfact> 0.66021805E-02</totfact>
</mgrwt>
</event>
<event>
 6    1  0.5040916E-004  0.2904029E+04  0.7818608E-02  0.8271680E-01
          2   -1    0    0  501    0  0.00000000000E+00  0.00000000000E+00  0.20719998170E+04  0.20719998170E+04  0.00000000000E+00 0.  1.
         -2   -1    0    0    0  501 -0.00000000000E+00 -0.00000000000E+00 -0.10175413587E+04  0.10175413587E+04  0.00000000000E+00 0. -1.
         23    2    1    2    0    0  0.12007404044E+04  0.12953407305E+03  0.13826198906E+04  0.18380434647E+04  0.90605858951E+02 0.  0.
         11    1    3    3    0    0  0.10641613302E+04  0.91958363261E+02  0.12472046580E+04  0.16420764709E+04  0.00000000000E+00 0. -1.
        -11    1    3    3    0    0  0.13657907420E+03  0.37575709793E+02  0.13541523253E+03  0.19596699385E+03  0.00000000000E+00 0.  1.
         22    1    1    2    0    0 -0.12007404044E+04 -0.12953407305E+03 -0.32816143233E+03  0.12514977109E+04  0.00000000000E+00 0. -1.
<mgrwt>
<rscale>  0 0.29040286E+04</rscale>
<asrwt>0</asrwt>
<pdfrwt beam="1">  1        2 0.31876920E+00 0.29040286E+04</pdfrwt>
<pdfrwt beam="2">  1       -2 0.15654482E+00 0.29040286E+04</pdfrwt>
<totfact> 0.14047358E+00</totfact>
</mgrwt>
</event>
<event>
 6    1  0.5040916E-004  0.2793181E+04  0.7818608E-02  0.8305389E-01
          2   -1    0    0  501    0  0.00000000000E+00  0.00000000000E+00  0.18688554762E+04  0.18688554762E+04  0.00000000000E+00 0.  1.
         -2   -1    0    0    0  501 -0.00000000000E+00 -0.00000000000E+00 -0.10436680405E+04  0.10436680405E+04  0.00000000000E+00 0. -1.
         23    2    1    2    0    0 -0.35043352825E+02  0.11994552657E+04  0.11549757904E+04  0.16680632603E+04  0.92439130935E+02 0.  0.
         13    1    3    3    0    0  0.28450174860E+02  0.58748656881E+03  0.55409820867E+03  0.80806850318E+03  0.00000000000E+00 0.  1.
        -13    1    3    3    0    0 -0.63493527685E+02  0.61196869693E+03  0.60087758168E+03  0.85999475710E+03  0.00000000000E+00 0. -1.
         22    1    1    2    0    0  0.35043352825E+02 -0.11994552657E+04 -0.32978835463E+03  0.12444602565E+04  0.00000000000E+00 0. -1.
<mgrwt>
<rscale>  0 0.27931808E+04</rscale>
<asrwt>0</asrwt>
<pdfrwt beam="1">  1        2 0.28751623E+00 0.27931808E+04</pdfrwt>
<pdfrwt beam="2">  1       -2 0.16056431E+00 0.27931808E+04</pdfrwt>
<totfact> 0.17165909E+00</totfact>
</mgrwt>
</event>
<event>
 6    1  0.5040916E-004  0.4059791E+04  0.7818608E-02  0.7992592E-01
         -2   -1    0    0    0  501 -0.00000000000E+00  0.00000000000E+00  0.10543027422E+04  0.10543027422E+04  0.00000000000E+00 0. -1.
          2   -1    0    0  501    0  0.00000000000E+00 -0.00000000000E+00 -0.39082479718E+04  0.39082479718E+04  0.00000000000E+00 0.  1.
         23    2    1    2    0    0 -0.93498714995E+03 -0.90816706288E+02  0.77048031741E+03  0.12183673331E+04  0.91270992271E+02 0.  0.
         11    1    3    3    0    0 -0.67662976183E+03 -0.10001521802E+03  0.53004138842E+03  0.86531771730E+03  0.00000000000E+00 0. -1.
        -11    1    3    3    0    0 -0.25835738812E+03  0.91985117315E+01  0.24043892899E+03  0.35304961576E+03  0.00000000000E+00 0.  1.
         22    1    1    2    0    0  0.93498714995E+03  0.90816706288E+02 -0.36244255469E+04  0.37441833809E+04  0.00000000000E+00 0.  1.
<mgrwt>
<rscale>  0 0.40597914E+04</rscale>
<asrwt>0</asrwt>
<pdfrwt beam="1">  1        2 0.60126893E+00 0.40597914E+04</pdfrwt>
<pdfrwt beam="2">  1       -2 0.16220042E+00 0.40597914E+04</pdfrwt>
<totfact> 0.76897815E-02</totfact>
</mgrwt>
</event>
<event>
 6    1  0.5040916E-004  0.2567123E+04  0.7818608E-02  0.8379455E-01
          2   -1    0    0  501    0  0.00000000000E+00  0.00000000000E+00  0.11185959803E+04  0.11185959803E+04  0.00000000000E+00 0.  1.
         -2   -1    0    0    0  501 -0.00000000000E+00 -0.00000000000E+00 -0.14728551769E+04  0.14728551769E+04  0.00000000000E+00 0. -1.
         23    2    1    2    0    0  0.10571357272E+04 -0.24253027312E+03 -0.86726549229E+03  0.13916460319E+04  0.90401132932E+02 0.  0.
         13    1    3    3    0    0  0.49138543087E+03 -0.11932680995E+03 -0.34743300777E+03  0.61352116845E+03  0.00000000000E+00 0.  1.
        -13    1    3    3    0    0  0.56575029633E+03 -0.12320346317E+03 -0.51983248452E+03  0.77812486343E+03  0.00000000000E+00 0. -1.
         22    1    1    2    0    0 -0.10571357272E+04  0.24253027312E+03  0.51300629569E+03  0.11998051252E+04  0.00000000000E+00 0.  1.
<mgrwt>
<rscale>  0 0.25671228E+04</rscale>
<asrwt>0</asrwt>
<pdfrwt beam="1">  1        2 0.17209169E+00 0.25671228E+04</pdfrwt>
<pdfrwt beam="2">  1       -2 0.22659310E+00 0.25671228E+04</pdfrwt>
<totfact> 0.16901128E+00</totfact>
</mgrwt>
</event>
<event>
 6    1  0.5040916E-004  0.2661745E+04  0.7818608E-02  0.8347525E-01
         -2   -1    0    0    0  501 -0.00000000000E+00  0.00000000000E+00  0.11755197879E+04  0.11755197879E+04  0.00000000000E+00 0. -1.
          2   -1    0    0  501    0  0.00000000000E+00 -0.00000000000E+00 -0.15067556160E+04  0.15067556160E+04  0.00000000000E+00 0.  1.
         23    2    1    2    0    0  0.46749116578E+03 -0.11413521199E+04 -0.66565530860E+03  0.14043595066E+04  0.88859339230E+02 0.  0.
         13    1    3    3    0    0  0.25888101777E+03 -0.69947738747E+03 -0.36202486923E+03  0.82906574100E+03  0.00000000000E+00 0. -1.
        -13    1    3    3    0    0  0.20861014800E+03 -0.44187473242E+03 -0.30363043936E+03  0.57529376557E+03  0.00000000000E+00 0.  1.
         22    1    1    2    0    0 -0.46749116578E+03  0.11413521199E+04  0.33441948055E+03  0.12779158973E+04  0.00000000000E+00 0. -1.
<mgrwt>
<rscale>  0 0.26617446E+04</rscale>
<asrwt>0</asrwt>
<pdfrwt beam="1">  1        2 0.23180856E+00 0.26617446E+04</pdfrwt>
<pdfrwt beam="2">  1       -2 0.18084920E+00 0.26617446E+04</pdfrwt>
<totfact> 0.19812940E+00</totfact>
</mgrwt>
</event>
<event>
 6    1  0.5040916E-004  0.2236043E+04  0.7818608E-02  0.8503574E-01
          2   -1    0    0  501    0  0.00000000000E+00  0.00000000000E+00  0.20677827510E+04  0.20677827510E+04  0.00000000000E+00 0.  1.
         -2   -1    0    0    0  501 -0.00000000000E+00 -0.00000000000E+00 -0.60449895398E+03  0.60449895398E+03  0.00000000000E+00 0. -1.
         23    2    1    2    0    0 -0.10092432213E+04 -0.31665790018E+03  0.11579333137E+04  0.15713352834E+04  0.97164336358E+02 0.  0.
         13    1    3    3    0    0 -0.69936987375E+03 -0.26103649765E+03  0.84334798559E+03  0.11262744329E+04  0.00000000000E+00 0.  1.
        -13    1    3    3    0    0 -0.30987334759E+03 -0.55621402534E+02  0.31458532807E+03  0.44506085045E+03  0.00000000000E+00 0. -1.
         22    1    1    2    0    0  0.10092432213E+04  0.31665790018E+03  0.30535048334E+03  0.11009464216E+04  0.00000000000E+00 0. -1.
<mgrwt>
<rscale>  0 0.22360434E+04</rscale>
<asrwt>0</asrwt>
<pdfrwt beam="1">  1        2 0.31812042E+00 0.22360434E+04</pdfrwt>
<pdfrwt beam="2">  1       -2 0.92999840E-01 0.22360434E+04</pdfrwt>
<totfact> 0.54663018E+00</totfact>
</mgrwt>
</event>
<event>
 6    1  0.5040916E-004  0.2551071E+04  0.7818608E-02  0.8385014E-01
          2   -1    0    0  501    0  0.00000000000E+00  0.00000000000E+00  0.21047593980E+04  0.21047593980E+04  0.00000000000E+00 0.  1.
         -2   -1    0    0    0  501 -0.00000000000E+00 -0.00000000000E+00 -0.77300541976E+03  0.77300541976E+03  0.00000000000E+00 0. -1.
         23    2    1    2    0    0  0.33737921547E+03  0.11862940091E+04  0.30689646384E+03  0.12741903306E+04  0.90869950366E+02 0.  0.
         11    1    3    3    0    0  0.18515680088E+03  0.80477744982E+03  0.19681604352E+03  0.84893247059E+03  0.00000000000E+00 0. -1.
        -11    1    3    3    0    0  0.15222241460E+03  0.38151655932E+03  0.11008042032E+03  0.42525785999E+03  0.00000000000E+00 0.  1.
         22    1    1    2    0    0 -0.33737921547E+03 -0.11862940091E+04  0.10248575144E+04  0.16035744872E+04  0.00000000000E+00 0.  1.
<mgrwt>
<rscale>  0 0.25510707E+04</rscale>
<asrwt>0</asrwt>
<pdfrwt beam="1">  1        2 0.32380913E+00 0.25510707E+04</pdfrwt>
<pdfrwt beam="2">  1       -2 0.11892391E+00 0.25510707E+04</pdfrwt>
<totfact> 0.28163605E+00</totfact>
</mgrwt>
</event>
<event>
 6    1  0.5040916E-004  0.1314431E+04  0.7818608E-02  0.9018199E-01
          2   -1    0    0  501    0  0.00000000000E+00  0.00000000000E+00  0.92862686084E+03  0.92862686084E+03  0.00000000000E+00 0.  1.
         -2   -1    0    0    0  501 -0.00000000000E+00 -0.00000000000E+00 -0.46512984301E+03  0.46512984301E+03  0.00000000000E+00 0. -1.
         23    2    1    2    0    0 -0.46826356753E+03  0.45536056570E+03  0.26835264127E+03  0.71206370758E+03  0.91638256753E+02 0.  0.
         13    1    3    3    0    0 -0.29792028711E+03  0.26584511939E+03  0.20790943763E+03  0.45017381003E+03  0.00000000000E+00 0. -1.
        -13    1    3    3    0    0 -0.17034328042E+03  0.18951544631E+03  0.60443203637E+02  0.26188989755E+03  0.00000000000E+00 0.  1.
         22    1    1    2    0    0  0.46826356753E+03 -0.45536056570E+03  0.19514437656E+03  0.68169299628E+03  0.00000000000E+00 0. -1.
<mgrwt>
<rscale>  0 0.13144308E+04</rscale>
<asrwt>0</asrwt>
<pdfrwt beam="1">  1        2 0.14286567E+00 0.13144308E+04</pdfrwt>
<pdfrwt beam="2">  1       -2 0.71558437E-01 0.13144308E+04</pdfrwt>
<totfact> 0.48668778E+01</totfact>
</mgrwt>
</event>
<event>
 6    1  0.5040916E-004  0.3683768E+04  0.7818608E-02  0.8071569E-01
          2   -1    0    0  501    0  0.00000000000E+00  0.00000000000E+00  0.30672731801E+04  0.30672731801E+04  0.00000000000E+00 0.  1.
         -2   -1    0    0    0  501 -0.00000000000E+00 -0.00000000000E+00 -0.11060433143E+04  0.11060433143E+04  0.00000000000E+00 0. -1.
         23    2    1    2    0    0  0.86884316459E+03 -0.13547809870E+04 -0.30732868819E+02  0.16124112827E+04  0.92766738752E+02 0.  0.
         11    1    3    3    0    0  0.54524551394E+03 -0.93088276442E+03 -0.23218746665E+02  0.10790618619E+04  0.00000000000E+00 0. -1.
        -11    1    3    3    0    0  0.32359765066E+03 -0.42389822263E+03 -0.75141221537E+01  0.53334942082E+03  0.00000000000E+00 0.  1.
         22    1    1    2    0    0 -0.86884316459E+03  0.13547809870E+04  0.19919627346E+04  0.25609052117E+04  0.00000000000E+00 0.  1.
<mgrwt>
<rscale>  0 0.36837682E+04</rscale>
<asrwt>0</asrwt>
<pdfrwt beam="1">  1        2 0.47188818E+00 0.36837682E+04</pdfrwt>
<pdfrwt beam="2">  1       -2 0.17016051E+00 0.36837682E+04</pdfrwt>
<totfact> 0.27147352E-01</totfact>
</mgrwt>
</event>
<event>
 6    1  0.5040916E-004  0.7043494E+03  0.7818608E-02  0.9709823E-01
          2   -1    0    0  501    0  0.00000000000E+00  0.00000000000E+00  0.96215717898E+03  0.96215717898E+03  0.00000000000E+00 0.  1.
         -2   -1    0    0    0  501 -0.00000000000E+00 -0.00000000000E+00 -0.12890515745E+03  0.12890515745E+03  0.00000000000E+00 0. -1.
         23    2    1    2    0    0  0.88332912497E+02 -0.80744773802E+02  0.92668352748E+03  0.93923391935E+03  0.95370714678E+02 0.  0.
         11    1    3    3    0    0  0.71302102288E+02 -0.81008324312E+01  0.31811917507E+03  0.32611259225E+03  0.00000000000E+00 0. -1.
        -11    1    3    3    0    0  0.17030810209E+02 -0.72643941371E+02  0.60856435241E+03  0.61312132710E+03  0.00000000000E+00 0.  1.
         22    1    1    2    0    0 -0.88332912497E+02  0.80744773802E+02 -0.93431505963E+02  0.15182841708E+03  0.00000000000E+00 0. -1.
<mgrwt>
<rscale>  0 0.70434941E+03</rscale>
<asrwt>0</asrwt>
<pdfrwt beam="1">  1        2 0.14802418E+00 0.70434941E+03</pdfrwt>
<pdfrwt beam="2">  1       -2 0.19831563E-01 0.70434941E+03</pdfrwt>
<totfact> 0.58113768E+02</totfact>
</mgrwt>
</event>
<event>
 6    1  0.5040916E-004  0.8333685E+03  0.7818608E-02  0.9512935E-01
         -2   -1    0    0    0  501 -0.00000000000E+00  0.00000000000E+00  0.67617629755E+02  0.67617629755E+02  0.00000000000E+00 0. -1.
          2   -1    0    0  501    0  0.00000000000E+00 -0.00000000000E+00 -0.25677590969E+04  0.25677590969E+04  0.00000000000E+00 0.  1.
         23    2    1    2    0    0  0.26649675810E+03  0.29909143353E+03 -0.15275909410E+04  0.15835541496E+04  0.11676238272E+03 0.  0.
         11    1    3    3    0    0  0.17695876736E+03  0.12111470204E+03 -0.68771746344E+03  0.72037385149E+03  0.00000000000E+00 0.  1.
        -11    1    3    3    0    0  0.89537990739E+02  0.17797673150E+03 -0.83987347760E+03  0.86318029815E+03  0.00000000000E+00 0. -1.
         22    1    1    2    0    0 -0.26649675810E+03 -0.29909143353E+03 -0.97255052614E+03  0.10518225770E+04  0.00000000000E+00 0. -1.
<mgrwt>
<rscale>  0 0.83336855E+03</rscale>
<asrwt>0</asrwt>
<pdfrwt beam="1">  1        2 0.39503994E+00 0.83336855E+03</pdfrwt>
<pdfrwt beam="2">  1       -2 0.10402710E-01 0.83336855E+03</pdfrwt>
<totfact> 0.21105906E+02</totfact>
</mgrwt>
</event>
<event>
 6    1  0.5040916E-004  0.1029467E+04  0.7818608E-02  0.9276804E-01
          2   -1    0    0  501    0  0.00000000000E+00  0.00000000000E+00  0.30388458287E+04  0.30388458287E+04  0.00000000000E+00 0.  1.
         -2   -1    0    0    0  501 -0.00000000000E+00 -0.00000000000E+00 -0.87187845151E+02  0.87187845151E+02  0.00000000000E+00 0. -1.
         23    2    1    2    0    0 -0.31924891988E+03  0.38203293947E+03  0.18374842070E+04  0.19056844435E+04  0.86115895855E+02 0.  0.
         11    1    3    3    0    0 -0.23626969072E+02  0.38586183595E+02  0.94753150138E+02  0.10500136520E+03  0.00000000000E+00 0.  1.
        -11    1    3    3    0    0 -0.29562195081E+03  0.34344675588E+03  0.17427310569E+04  0.18006830783E+04  0.00000000000E+00 0. -1.
         22    1    1    2    0    0  0.31924891988E+03 -0.38203293947E+03  0.11141737766E+04  0.12203492304E+04  0.00000000000E+00 0. -1.
<mgrwt>
<rscale>  0 0.10294667E+04</rscale>
<asrwt>0</asrwt>
<pdfrwt beam="1">  1        2 0.46751466E+00 0.10294667E+04</pdfrwt>
<pdfrwt beam="2">  1       -2 0.13413517E-01 0.10294667E+04</pdfrwt>
<totfact> 0.71197362E+01</totfact>
</mgrwt>
</event>
<event>
 6    1  0.5040916E-004  0.5979563E+03  0.7818608E-02  0.9909655E-01
          2   -1    0    0  501    0  0.00000000000E+00  0.00000000000E+00  0.88308622122E+03  0.88308622122E+03  0.00000000000E+00 0.  1.
         -2   -1    0    0    0  501 -0.00000000000E+00 -0.00000000000E+00 -0.10122219625E+03  0.10122219625E+03  0.00000000000E+00 0. -1.
         23    2    1    2    0    0 -0.14365574913E+02 -0.24999197257E+03  0.15096041586E+03  0.30552883611E+03  0.88636710500E+02 0.  0.
         13    1    3    3    0    0  0.20399888302E+02 -0.17542962534E+03  0.13359206441E+03  0.22144649142E+03  0.00000000000E+00 0.  1.
        -13    1    3    3    0    0 -0.34765463215E+02 -0.74562347225E+02  0.17368351453E+02  0.84082344690E+02  0.00000000000E+00 0. -1.
         22    1    1    2    0    0  0.14365574913E+02  0.24999197257E+03  0.63090360911E+03  0.67877958136E+03  0.00000000000E+00 0.  1.
<mgrwt>
<rscale>  0 0.59795628E+03</rscale>
<asrwt>0</asrwt>
<pdfrwt beam="1">  1        2 0.13585941E+00 0.59795628E+03</pdfrwt>
<pdfrwt beam="2">  1       -2 0.15572646E-01 0.59795628E+03</pdfrwt>
<totfact> 0.99616117E+02</totfact>
</mgrwt>
</event>
<event>
 6    1  0.5040916E-004  0.1446661E+04  0.7818608E-02  0.8920719E-01
          2   -1    0    0  501    0  0.00000000000E+00  0.00000000000E+00  0.14710168045E+04  0.14710168045E+04  0.00000000000E+00 0.  1.
         -2   -1    0    0    0  501 -0.00000000000E+00 -0.00000000000E+00 -0.35567697044E+03  0.35567697044E+03  0.00000000000E+00 0. -1.
         23    2    1    2    0    0 -0.27050348412E+03  0.29867910215E+03  0.13141031069E+04  0.13773740897E+04  0.88944176039E+02 0.  0.
         11    1    3    3    0    0 -0.24238186703E+03  0.24533743505E+03  0.10073530144E+04  0.10647532682E+04  0.00000000000E+00 0.  1.
        -11    1    3    3    0    0 -0.28121617090E+02  0.53341667096E+02  0.30675009250E+03  0.31262082151E+03  0.00000000000E+00 0. -1.
         22    1    1    2    0    0  0.27050348412E+03 -0.29867910215E+03 -0.19876327277E+03  0.44931968529E+03  0.00000000000E+00 0. -1.
<mgrwt>
<rscale>  0 0.14466607E+04</rscale>
<asrwt>0</asrwt>
<pdfrwt beam="1">  1        2 0.22631027E+00 0.14466607E+04</pdfrwt>
<pdfrwt beam="2">  1       -2 0.54719535E-01 0.14466607E+04</pdfrwt>
<totfact> 0.40173916E+01</totfact>
</mgrwt>
</event>
<event>
 6    1  0.5040916E-004  0.2387449E+04  0.7818608E-02  0.8444217E-01
         -2   -1    0    0    0  501 -0.00000000000E+00  0.00000000000E+00  0.45535810794E+03  0.45535810794E+03  0.00000000000E+00 0. -1.
          2   -1    0    0  501    0  0.00000000000E+00 -0.00000000000E+00 -0.31293575254E+04  0.31293575254E+04  0.00000000000E+00 0.  1.
         23    2    1    2    0    0  0.59809946762E+03 -0.33059322013E+03 -0.28052935241E+04  0.28888327461E+04  0.93102246951E+02 0.  0.
         13    1    3    3    0    0  0.24699730053E+03 -0.92764315724E+02 -0.11786499349E+04  0.12078197522E+04  0.00000000000E+00 0.  1.
        -13    1    3    3    0    0  0.35110216710E+03 -0.23782890441E+03 -0.16266435892E+04  0.16810129939E+04  0.00000000000E+00 0. -1.
         22    1    1    2    0    0 -0.59809946762E+03  0.33059322013E+03  0.13129410659E+03  0.69588288727E+03  0.00000000000E+00 0. -1.
<mgrwt>
<rscale>  0 0.23874491E+04</rscale>
<asrwt>0</asrwt>
<pdfrwt beam="1">  1        2 0.48143964E+00 0.23874491E+04</pdfrwt>
<pdfrwt beam="2">  1       -2 0.70055091E-01 0.23874491E+04</pdfrwt>
<totfact> 0.24090101E+00</totfact>
</mgrwt>
</event>
<event>
 6    1  0.5040916E-004  0.2157573E+04  0.7818608E-02  0.8536298E-01
          2   -1    0    0  501    0  0.00000000000E+00  0.00000000000E+00  0.15935508857E+04  0.15935508857E+04  0.00000000000E+00 0.  1.
         -2   -1    0    0    0  501 -0.00000000000E+00 -0.00000000000E+00 -0.73030624242E+03  0.73030624242E+03  0.00000000000E+00 0. -1.
         23    2    1    2    0    0 -0.13978428362E+03 -0.46216032186E+03 -0.60437159534E+03  0.77885575825E+03  0.90661225795E+02 0.  0.
         13    1    3    3    0    0 -0.87154671328E+02 -0.14823076696E+03 -0.18851903035E+03  0.25516214808E+03  0.00000000000E+00 0.  1.
        -13    1    3    3    0    0 -0.52629612290E+02 -0.31392955490E+03 -0.41585256499E+03  0.52369361018E+03  0.00000000000E+00 0. -1.
         22    1    1    2    0    0  0.13978428362E+03  0.46216032186E+03  0.14676162386E+04  0.15450013699E+04  0.00000000000E+00 0.  1.
<mgrwt>
<rscale>  0 0.21575729E+04</rscale>
<asrwt>0</asrwt>
<pdfrwt beam="1">  1        2 0.24516167E+00 0.21575729E+04</pdfrwt>
<pdfrwt beam="2">  1       -2 0.11235481E+00 0.21575729E+04</pdfrwt>
<totfact> 0.64376719E+00</totfact>
</mgrwt>
</event>
<event>
 6    1  0.5040916E-004  0.2275594E+04  0.7818608E-02  0.8487607E-01
         -2   -1    0    0    0  501 -0.00000000000E+00  0.00000000000E+00  0.56923162672E+03  0.56923162672E+03  0.00000000000E+00 0. -1.
          2   -1    0    0  501    0  0.00000000000E+00 -0.00000000000E+00 -0.22742619439E+04  0.22742619439E+04  0.00000000000E+00 0.  1.
         23    2    1    2    0    0  0.11292646542E+04  0.97568182469E+02 -0.94602018639E+03  0.14793621298E+04  0.93807827756E+02 0.  0.
         11    1    3    3    0    0  0.64282385711E+03  0.10127590229E+03 -0.52988256952E+03  0.83919893776E+03  0.00000000000E+00 0.  1.
        -11    1    3    3    0    0  0.48644079705E+03 -0.37077198167E+01 -0.41613761687E+03  0.64016319200E+03  0.00000000000E+00 0. -1.
         22    1    1    2    0    0 -0.11292646542E+04 -0.97568182469E+02 -0.75901013082E+03  0.13641314409E+04  0.00000000000E+00 0.  1.
<mgrwt>
<rscale>  0 0.22755938E+04</rscale>
<asrwt>0</asrwt>
<pdfrwt beam="1">  1        2 0.34988646E+00 0.22755938E+04</pdfrwt>
<pdfrwt beam="2">  1       -2 0.87574095E-01 0.22755938E+04</pdfrwt>
<totfact> 0.47928044E+00</totfact>
</mgrwt>
</event>
<event>
 6    1  0.5040916E-004  0.2921351E+04  0.7818608E-02  0.8266553E-01
         -1   -1    0    0    0  501 -0.00000000000E+00  0.00000000000E+00  0.16828777491E+04  0.16828777491E+04  0.00000000000E+00 0. -1.
          1   -1    0    0  501    0  0.00000000000E+00 -0.00000000000E+00 -0.12678119497E+04  0.12678119497E+04  0.00000000000E+00 0.  1.
         23    2    1    2    0    0 -0.63153015122E+03  0.11947901343E+04  0.76369156682E+03  0.15550200665E+04  0.92243162928E+02 0.  0.
         13    1    3    3    0    0 -0.41293693694E+03  0.85593787615E+03  0.50878087433E+03  0.10779631440E+04  0.00000000000E+00 0.  1.
        -13    1    3    3    0    0 -0.21859321428E+03  0.33885225817E+03  0.25491069249E+03  0.47705692254E+03  0.00000000000E+00 0. -1.
         22    1    1    2    0    0  0.63153015122E+03 -0.11947901343E+04 -0.34862576741E+03  0.13956696324E+04  0.00000000000E+00 0.  1.
<mgrwt>
<rscale>  0 0.29213507E+04</rscale>
<asrwt>0</asrwt>
<pdfrwt beam="1">  1        1 0.19504799E+00 0.29213507E+04</pdfrwt>
<pdfrwt beam="2">  1       -1 0.25890427E+00 0.29213507E+04</pdfrwt>
<totfact> 0.49854109E-01</totfact>
</mgrwt>
</event>
<event>
 6    1  0.5040916E-004  0.1177226E+04  0.7818608E-02  0.9133027E-01
         -2   -1    0    0    0  501 -0.00000000000E+00  0.00000000000E+00  0.20378634906E+03  0.20378634906E+03  0.00000000000E+00 0. -1.
          2   -1    0    0  501    0  0.00000000000E+00 -0.00000000000E+00 -0.17001400911E+04  0.17001400911E+04  0.00000000000E+00 0.  1.
         23    2    1    2    0    0 -0.26030500827E+03 -0.10286512189E+03 -0.15836104493E+04  0.16107478877E+04  0.91360670031E+02 0.  0.
         13    1    3    3    0    0 -0.80070380936E+02 -0.28434483965E+01 -0.63269621248E+03  0.63774904813E+03  0.00000000000E+00 0. -1.
        -13    1    3    3    0    0 -0.18023462733E+03 -0.10002167349E+03 -0.95091423682E+03  0.97299883959E+03  0.00000000000E+00 0.  1.
         22    1    1    2    0    0  0.26030500827E+03  0.10286512189E+03  0.87256707286E+02  0.29317855242E+03  0.00000000000E+00 0. -1.
<mgrwt>
<rscale>  0 0.11772261E+04</rscale>
<asrwt>0</asrwt>
<pdfrwt beam="1">  1        2 0.26156003E+00 0.11772261E+04</pdfrwt>
<pdfrwt beam="2">  1       -2 0.31351744E-01 0.11772261E+04</pdfrwt>
<totfact> 0.91466343E+01</totfact>
</mgrwt>
</event>
<event>
 6    1  0.5040916E-004  0.4022195E+04  0.7818608E-02  0.8000084E-01
          1   -1    0    0  501    0  0.00000000000E+00  0.00000000000E+00  0.35436284782E+04  0.35436284782E+04  0.00000000000E+00 0.  1.
         -1   -1    0    0    0  501 -0.00000000000E+00 -0.00000000000E+00 -0.11413481676E+04  0.11413481676E+04  0.00000000000E+00 0. -1.
         23    2    1    2    0    0  0.93179299705E+03 -0.17505092873E+04  0.81932831691E+03  0.21476043892E+04  0.91568375690E+02 0.  0.
         13    1    3    3    0    0  0.72166167371E+03 -0.12717082959E+04  0.59466509353E+03  0.15785005969E+04  0.00000000000E+00 0.  1.
        -13    1    3    3    0    0  0.21013132334E+03 -0.47880099143E+03  0.22466322338E+03  0.56910379228E+03  0.00000000000E+00 0. -1.
         22    1    1    2    0    0 -0.93179299705E+03  0.17505092873E+04  0.15829519936E+04  0.25373722566E+04  0.00000000000E+00 0.  1.
<mgrwt>
<rscale>  0 0.40221954E+04</rscale>
<asrwt>0</asrwt>
<pdfrwt beam="1">  1        1 0.54517361E+00 0.40221954E+04</pdfrwt>
<pdfrwt beam="2">  1       -1 0.17559203E+00 0.40221954E+04</pdfrwt>
<totfact> 0.40308650E-02</totfact>
</mgrwt>
</event>
<event>
 6    1  0.5040916E-004  0.2767946E+04  0.7818608E-02  0.8313290E-01
          2   -1    0    0  501    0  0.00000000000E+00  0.00000000000E+00  0.21299976743E+04  0.21299976743E+04  0.00000000000E+00 0.  1.
         -2   -1    0    0    0  501 -0.00000000000E+00 -0.00000000000E+00 -0.89924095768E+03  0.89924095768E+03  0.00000000000E+00 0. -1.
         23    2    1    2    0    0  0.11888157292E+04  0.16016111064E+03 -0.13581834101E+03  0.12108707354E+04  0.93951565227E+02 0.  0.
         13    1    3    3    0    0  0.18617974845E+03  0.16263721223E+02 -0.54645822890E+02  0.19471408095E+03  0.00000000000E+00 0. -1.
        -13    1    3    3    0    0  0.10026359808E+04  0.14389738942E+03 -0.81172518122E+02  0.10161566544E+04  0.00000000000E+00 0.  1.
         22    1    1    2    0    0 -0.11888157292E+04 -0.16016111064E+03  0.13665750577E+04  0.18183678967E+04  0.00000000000E+00 0.  1.
<mgrwt>
<rscale>  0 0.27679459E+04</rscale>
<asrwt>0</asrwt>
<pdfrwt beam="1">  1        2 0.32769195E+00 0.27679459E+04</pdfrwt>
<pdfrwt beam="2">  1       -2 0.13834476E+00 0.27679459E+04</pdfrwt>
<totfact> 0.18268986E+00</totfact>
</mgrwt>
</event>
<event>
 6    1  0.5040916E-004  0.1574550E+04  0.7818608E-02  0.8836337E-01
         -2   -1    0    0    0  501 -0.00000000000E+00  0.00000000000E+00  0.17683413899E+04  0.17683413899E+04  0.00000000000E+00 0. -1.
          2   -1    0    0  501    0  0.00000000000E+00 -0.00000000000E+00 -0.35049895318E+03  0.35049895318E+03  0.00000000000E+00 0.  1.
         23    2    1    2    0    0  0.74112898111E+03 -0.65572059576E+02  0.10467421284E+04  0.12874034540E+04  0.90369842523E+02 0.  0.
         13    1    3    3    0    0  0.15191601037E+03 -0.39359230681E+02  0.17712382387E+03  0.23664418909E+03  0.00000000000E+00 0.  1.
        -13    1    3    3    0    0  0.58921297075E+03 -0.26212828895E+02  0.86961830450E+03  0.10507592649E+04  0.00000000000E+00 0. -1.
         22    1    1    2    0    0 -0.74112898111E+03  0.65572059576E+02  0.37110030833E+03  0.83143688906E+03  0.00000000000E+00 0.  1.
<mgrwt>
<rscale>  0 0.15745498E+04</rscale>
<asrwt>0</asrwt>
<pdfrwt beam="1">  1        2 0.53922917E-01 0.15745498E+04</pdfrwt>
<pdfrwt beam="2">  1       -2 0.27205252E+00 0.15745498E+04</pdfrwt>
<totfact> 0.41801326E+00</totfact>
</mgrwt>
</event>
<event>
 6    1  0.5040916E-004  0.1140662E+04  0.7818608E-02  0.9166441E-01
          2   -1    0    0  501    0  0.00000000000E+00  0.00000000000E+00  0.64853752665E+03  0.64853752665E+03  0.00000000000E+00 0.  1.
         -2   -1    0    0    0  501 -0.00000000000E+00 -0.00000000000E+00 -0.50155573909E+03  0.50155573909E+03  0.00000000000E+00 0. -1.
         23    2    1    2    0    0  0.42080513297E+03  0.35036950954E+03 -0.72863761193E+02  0.56003579527E+03  0.92169469661E+02 0.  0.
         13    1    3    3    0    0  0.29391467704E+03  0.25238314356E+03 -0.93123226531E+02  0.39844074070E+03  0.00000000000E+00 0. -1.
        -13    1    3    3    0    0  0.12689045594E+03  0.97986365981E+02  0.20259465338E+02  0.16159505457E+03  0.00000000000E+00 0.  1.
         22    1    1    2    0    0 -0.42080513297E+03 -0.35036950954E+03  0.21984554876E+03  0.59005747047E+03  0.00000000000E+00 0. -1.
<mgrwt>
<rscale>  0 0.11406625E+04</rscale>
<asrwt>0</asrwt>
<pdfrwt beam="1">  1        2 0.99775003E-01 0.11406625E+04</pdfrwt>
<pdfrwt beam="2">  1       -2 0.77162422E-01 0.11406625E+04</pdfrwt>
<totfact> 0.66975377E+01</totfact>
</mgrwt>
</event>
<event>
 6    1  0.5040916E-004  0.2023231E+04  0.7818608E-02  0.8595836E-01
         -2   -1    0    0    0  501 -0.00000000000E+00  0.00000000000E+00  0.45349187763E+03  0.45349187763E+03  0.00000000000E+00 0. -1.
          2   -1    0    0  501    0  0.00000000000E+00 -0.00000000000E+00 -0.22566364206E+04  0.22566364206E+04  0.00000000000E+00 0.  1.
         23    2    1    2    0    0 -0.62644820382E+03  0.47682433691E+01 -0.19635126385E+04  0.20634614488E+04  0.10015578323E+03 0.  0.
         13    1    3    3    0    0 -0.48505775183E+03 -0.11867240417E+02 -0.16338151631E+04  0.17043397083E+04  0.00000000000E+00 0. -1.
        -13    1    3    3    0    0 -0.14139045199E+03  0.16635483786E+02 -0.32969747535E+03  0.35912174048E+03  0.00000000000E+00 0.  1.
         22    1    1    2    0    0  0.62644820382E+03 -0.47682433691E+01  0.16036809545E+03  0.64666684951E+03  0.00000000000E+00 0. -1.
<mgrwt>
<rscale>  0 0.20232314E+04</rscale>
<asrwt>0</asrwt>
<pdfrwt beam="1">  1        2 0.34717484E+00 0.20232314E+04</pdfrwt>
<pdfrwt beam="2">  1       -2 0.69767981E-01 0.20232314E+04</pdfrwt>
<totfact> 0.83307318E+00</totfact>
</mgrwt>
</event>
<event>
 6    1  0.5040916E-004  0.1142652E+04  0.7818608E-02  0.9164589E-01
         -2   -1    0    0    0  501 -0.00000000000E+00  0.00000000000E+00  0.36877829434E+03  0.36877829434E+03  0.00000000000E+00 0. -1.
          2   -1    0    0  501    0  0.00000000000E+00 -0.00000000000E+00 -0.88512061673E+03  0.88512061673E+03  0.00000000000E+00 0.  1.
         23    2    1    2    0    0  0.13904058369E+03 -0.50244503662E+03 -0.50533265571E+03  0.73245427212E+03  0.96668863023E+02 0.  0.
         13    1    3    3    0    0  0.11595073326E+03 -0.41580331995E+03 -0.46392180656E+03  0.63368794846E+03  0.00000000000E+00 0.  1.
        -13    1    3    3    0    0  0.23089850432E+02 -0.86641716675E+02 -0.41410849147E+02  0.98766323656E+02  0.00000000000E+00 0. -1.
         22    1    1    2    0    0 -0.13904058369E+03  0.50244503662E+03 -0.11009666682E+02  0.52144463896E+03  0.00000000000E+00 0.  1.
<mgrwt>
<rscale>  0 0.11426518E+04</rscale>
<asrwt>0</asrwt>
<pdfrwt beam="1">  1        2 0.13617240E+00 0.11426518E+04</pdfrwt>
<pdfrwt beam="2">  1       -2 0.56735123E-01 0.11426518E+04</pdfrwt>
<totfact> 0.86617895E+01</totfact>
</mgrwt>
</event>
<event>
 6    1  0.5040916E-004  0.3632790E+04  0.7818608E-02  0.8083022E-01
         -2   -1    0    0    0  501 -0.00000000000E+00  0.00000000000E+00  0.18284045495E+04  0.18284045495E+04  0.00000000000E+00 0. -1.
          2   -1    0    0  501    0  0.00000000000E+00 -0.00000000000E+00 -0.18044642937E+04  0.18044642937E+04  0.00000000000E+00 0.  1.
         23    2    1    2    0    0  0.12408893065E+04  0.12767828996E+04 -0.34147371972E+03  0.18153132822E+04  0.93686539322E+02 0.  0.
         13    1    3    3    0    0  0.36945860325E+03  0.40144328658E+03 -0.63477838782E+02  0.54925932661E+03  0.00000000000E+00 0. -1.
        -13    1    3    3    0    0  0.87143070328E+03  0.87533961301E+03 -0.27799588094E+03  0.12660539556E+04  0.00000000000E+00 0.  1.
         22    1    1    2    0    0 -0.12408893065E+04 -0.12767828996E+04  0.36541397555E+03  0.18175555610E+04  0.00000000000E+00 0.  1.
<mgrwt>
<rscale>  0 0.36327900E+04</rscale>
<asrwt>0</asrwt>
<pdfrwt beam="1">  1        2 0.27760989E+00 0.36327900E+04</pdfrwt>
<pdfrwt beam="2">  1       -2 0.28129301E+00 0.36327900E+04</pdfrwt>
<totfact> 0.28841037E-01</totfact>
</mgrwt>
</event>
<event>
 6    1  0.5040916E-004  0.3274747E+04  0.7818608E-02  0.8169351E-01
          1   -1    0    0  501    0  0.00000000000E+00  0.00000000000E+00  0.21491757770E+04  0.21491757770E+04  0.00000000000E+00 0.  1.
         -1   -1    0    0    0  501 -0.00000000000E+00 -0.00000000000E+00 -0.12474510219E+04  0.12474510219E+04  0.00000000000E+00 0. -1.
         23    2    1    2    0    0  0.52255274551E+03  0.36121408233E+03  0.20149938579E+04  0.21148682099E+04  0.94500332104E+02 0.  0.
         13    1    3    3    0    0  0.31042843726E+03  0.18194789033E+03  0.12618125103E+04  0.13121134328E+04  0.00000000000E+00 0. -1.
        -13    1    3    3    0    0  0.21212430826E+03  0.17926619200E+03  0.75318134759E+03  0.80275477707E+03  0.00000000000E+00 0.  1.
         22    1    1    2    0    0 -0.52255274551E+03 -0.36121408233E+03 -0.11132691028E+04  0.12817585890E+04  0.00000000000E+00 0. -1.
<mgrwt>
<rscale>  0 0.32747467E+04</rscale>
<asrwt>0</asrwt>
<pdfrwt beam="1">  1        1 0.33064243E+00 0.32747467E+04</pdfrwt>
<pdfrwt beam="2">  1       -1 0.19191554E+00 0.32747467E+04</pdfrwt>
<totfact> 0.33605302E-01</totfact>
</mgrwt>
</event>
<event>
 6    1  0.5040916E-004  0.1852925E+04  0.7818608E-02  0.8678650E-01
          2   -1    0    0  501    0  0.00000000000E+00  0.00000000000E+00  0.14449402303E+04  0.14449402303E+04  0.00000000000E+00 0.  1.
         -2   -1    0    0    0  501 -0.00000000000E+00 -0.00000000000E+00 -0.59402671896E+03  0.59402671896E+03  0.00000000000E+00 0. -1.
         23    2    1    2    0    0  0.12743855363E+03 -0.80117842710E+03 -0.60717911022E+02  0.81863940828E+03  0.91413123035E+02 0.  0.
         11    1    3    3    0    0  0.11901029373E+03 -0.47831507290E+03 -0.50863727495E+02  0.49551576943E+03  0.00000000000E+00 0. -1.
        -11    1    3    3    0    0  0.84282599026E+01 -0.32286335420E+03 -0.98541835271E+01  0.32312363885E+03  0.00000000000E+00 0.  1.
         22    1    1    2    0    0 -0.12743855363E+03  0.80117842710E+03  0.91163142234E+03  0.12203275410E+04  0.00000000000E+00 0. -1.
<mgrwt>
<rscale>  0 0.18529254E+04</rscale>
<asrwt>0</asrwt>
<pdfrwt beam="1">  1        2 0.22229850E+00 0.18529254E+04</pdfrwt>
<pdfrwt beam="2">  1       -2 0.91388726E-01 0.18529254E+04</pdfrwt>
<totfact> 0.13080797E+01</totfact>
</mgrwt>
</event>
<event>
 6    1  0.5040916E-004  0.1306806E+04  0.7818608E-02  0.9024185E-01
          2   -1    0    0  501    0  0.00000000000E+00  0.00000000000E+00  0.23303679518E+04  0.23303679518E+04  0.00000000000E+00 0.  1.
         -2   -1    0    0    0  501 -0.00000000000E+00 -0.00000000000E+00 -0.18320526463E+03  0.18320526463E+03  0.00000000000E+00 0. -1.
         23    2    1    2    0    0 -0.26524873430E+02 -0.50168761519E+03  0.18714043269E+04  0.19404792403E+04  0.10445810322E+03 0.  0.
         13    1    3    3    0    0  0.17281664062E+02 -0.27793380130E+03  0.11816038980E+04  0.12139743101E+04  0.00000000000E+00 0. -1.
        -13    1    3    3    0    0 -0.43806537492E+02 -0.22375381389E+03  0.68980042885E+03  0.72650493020E+03  0.00000000000E+00 0.  1.
         22    1    1    2    0    0  0.26524873430E+02  0.50168761519E+03  0.27575836024E+03  0.57309397605E+03  0.00000000000E+00 0. -1.
<mgrwt>
<rscale>  0 0.13068063E+04</rscale>
<asrwt>0</asrwt>
<pdfrwt beam="1">  1        2 0.35851812E+00 0.13068063E+04</pdfrwt>
<pdfrwt beam="2">  1       -2 0.28185427E-01 0.13068063E+04</pdfrwt>
<totfact> 0.49306915E+01</totfact>
</mgrwt>
</event>
<event>
 6    1  0.5040916E-004  0.1629550E+04  0.7818608E-02  0.8802597E-01
         -2   -1    0    0    0  501 -0.00000000000E+00  0.00000000000E+00  0.28035737475E+03  0.28035737475E+03  0.00000000000E+00 0. -1.
          2   -1    0    0  501    0  0.00000000000E+00 -0.00000000000E+00 -0.23678996686E+04  0.23678996686E+04  0.00000000000E+00 0.  1.
         23    2    1    2    0    0 -0.39305398952E+02 -0.81147162235E+03 -0.10499262008E+04  0.13304261495E+04  0.87507736155E+02 0.  0.
         13    1    3    3    0    0 -0.30792581660E+01 -0.34686424146E+03 -0.51566830590E+03  0.62148055927E+03  0.00000000000E+00 0.  1.
        -13    1    3    3    0    0 -0.36226140787E+02 -0.46460738088E+03 -0.53425789489E+03  0.70894559022E+03  0.00000000000E+00 0. -1.
         22    1    1    2    0    0  0.39305398952E+02  0.81147162235E+03 -0.10376160931E+04  0.13178308939E+04  0.00000000000E+00 0.  1.
<mgrwt>
<rscale>  0 0.16295498E+04</rscale>
<asrwt>0</asrwt>
<pdfrwt beam="1">  1        2 0.36429227E+00 0.16295498E+04</pdfrwt>
<pdfrwt beam="2">  1       -2 0.43131903E-01 0.16295498E+04</pdfrwt>
<totfact> 0.20250349E+01</totfact>
</mgrwt>
</event>
<event>
 6    1  0.5040916E-004  0.3263740E+04  0.7818608E-02  0.8172184E-01
          2   -1    0    0  501    0  0.00000000000E+00  0.00000000000E+00  0.14986482848E+04  0.14986482848E+04  0.00000000000E+00 0.  1.
         -2   -1    0    0    0  501 -0.00000000000E+00 -0.00000000000E+00 -0.17769343785E+04  0.17769343785E+04  0.00000000000E+00 0. -1.
         23    2    1    2    0    0 -0.47297742066E+03  0.46928789841E+02 -0.17047400949E+04  0.17720265555E+04  0.89606755016E+02 0.  0.
         11    1    3    3    0    0 -0.30418080789E+03 -0.32302442385E+01 -0.11774281614E+04  0.12160894185E+04  0.00000000000E+00 0. -1.
        -11    1    3    3    0    0 -0.16879661277E+03  0.50159034079E+02 -0.52731193346E+03  0.55593713705E+03  0.00000000000E+00 0.  1.
         22    1    1    2    0    0  0.47297742066E+03 -0.46928789841E+02  0.14264540011E+04  0.15035561078E+04  0.00000000000E+00 0.  1.
<mgrwt>
<rscale>  0 0.32637400E+04</rscale>
<asrwt>0</asrwt>
<pdfrwt beam="1">  1        2 0.23056127E+00 0.32637400E+04</pdfrwt>
<pdfrwt beam="2">  1       -2 0.27337452E+00 0.32637400E+04</pdfrwt>
<totfact> 0.49233511E-01</totfact>
</mgrwt>
</event>
<event>
 6    1  0.5040916E-004  0.3635384E+04  0.7818608E-02  0.8082434E-01
          2   -1    0    0  501    0  0.00000000000E+00  0.00000000000E+00  0.28434373520E+04  0.28434373520E+04  0.00000000000E+00 0. -1.
         -2   -1    0    0    0  501 -0.00000000000E+00 -0.00000000000E+00 -0.11619756015E+04  0.11619756015E+04  0.00000000000E+00 0.  1.
         23    2    1    2    0    0 -0.13275558504E+04 -0.79177457958E+03  0.18926114826E+04  0.24453181711E+04  0.91056098187E+02 0.  0.
         13    1    3    3    0    0 -0.98019097889E+03 -0.54901711994E+03  0.14158160628E+04  0.18074095487E+04  0.00000000000E+00 0.  1.
        -13    1    3    3    0    0 -0.34736487150E+03 -0.24275745965E+03  0.47679541978E+03  0.63790862237E+03  0.00000000000E+00 0. -1.
         22    1    1    2    0    0  0.13275558504E+04  0.79177457958E+03 -0.21114973215E+03  0.15600947824E+04  0.00000000000E+00 0.  1.
<mgrwt>
<rscale>  0 0.36353843E+04</rscale>
<asrwt>0</asrwt>
<pdfrwt beam="1">  1        2 0.43745190E+00 0.36353843E+04</pdfrwt>
<pdfrwt beam="2">  1       -2 0.17876548E+00 0.36353843E+04</pdfrwt>
<totfact> 0.32689604E-01</totfact>
</mgrwt>
</event>
<event>
 6    1  0.5040916E-004  0.3716009E+04  0.7818608E-02  0.8064423E-01
          2   -1    0    0  501    0  0.00000000000E+00  0.00000000000E+00  0.20608672855E+04  0.20608672855E+04  0.00000000000E+00 0. -1.
         -2   -1    0    0    0  501 -0.00000000000E+00 -0.00000000000E+00 -0.16751105637E+04  0.16751105637E+04  0.00000000000E+00 0.  1.
         23    2    1    2    0    0 -0.14591292059E+02 -0.16881193050E+04 -0.58445460875E+03  0.17888595376E+04  0.92041087584E+02 0.  0.
         11    1    3    3    0    0 -0.33015832046E+02 -0.56291987046E+03 -0.23022319064E+03  0.60907433309E+03  0.00000000000E+00 0. -1.
        -11    1    3    3    0    0  0.18424539987E+02 -0.11251994345E+04 -0.35423141811E+03  0.11797852045E+04  0.00000000000E+00 0.  1.
         22    1    1    2    0    0  0.14591292059E+02  0.16881193050E+04  0.97021133060E+03  0.19471183117E+04  0.00000000000E+00 0. -1.
<mgrwt>
<rscale>  0 0.37160089E+04</rscale>
<asrwt>0</asrwt>
<pdfrwt beam="1">  1        2 0.31705651E+00 0.37160089E+04</pdfrwt>
<pdfrwt beam="2">  1       -2 0.25770932E+00 0.37160089E+04</pdfrwt>
<totfact> 0.28749363E-01</totfact>
</mgrwt>
</event>
<event>
 6    1  0.5040916E-004  0.3130245E+04  0.7818608E-02  0.8207486E-01
          1   -1    0    0  501    0  0.00000000000E+00  0.00000000000E+00  0.11073872499E+04  0.11073872499E+04  0.00000000000E+00 0.  1.
         -1   -1    0    0    0  501 -0.00000000000E+00 -0.00000000000E+00 -0.22120611235E+04  0.22120611235E+04  0.00000000000E+00 0. -1.
         23    2    1    2    0    0 -0.86744502691E+03  0.11125849742E+04  0.16330752888E+03  0.14225870087E+04  0.82330120961E+02 0.  0.
         11    1    3    3    0    0 -0.67297349149E+03  0.85673046235E+03  0.16051415435E+03  0.11012017068E+04  0.00000000000E+00 0.  1.
        -11    1    3    3    0    0 -0.19447153542E+03  0.25585451187E+03  0.27933745295E+01  0.32138530189E+03  0.00000000000E+00 0. -1.
         22    1    1    2    0    0  0.86744502691E+03 -0.11125849742E+04 -0.12679814026E+04  0.18968613647E+04  0.00000000000E+00 0. -1.
<mgrwt>
<rscale>  0 0.31302449E+04</rscale>
<asrwt>0</asrwt>
<pdfrwt beam="1">  1        1 0.17036727E+00 0.31302449E+04</pdfrwt>
<pdfrwt beam="2">  1       -1 0.34031709E+00 0.31302449E+04</pdfrwt>
<totfact> 0.18964705E-01</totfact>
</mgrwt>
</event>
<event>
 6    1  0.5040916E-004  0.4083328E+04  0.7818608E-02  0.7987944E-01
          2   -1    0    0  501    0  0.00000000000E+00  0.00000000000E+00  0.20665286949E+04  0.20665286949E+04  0.00000000000E+00 0.  1.
         -2   -1    0    0    0  501 -0.00000000000E+00 -0.00000000000E+00 -0.20170981966E+04  0.20170981966E+04  0.00000000000E+00 0. -1.
         23    2    1    2    0    0  0.87199911155E+03 -0.10118602152E+04 -0.15180418194E+04  0.20242063390E+04  0.93363759536E+02 0.  0.
         11    1    3    3    0    0  0.50114877860E+03 -0.53555057551E+03 -0.88610927601E+03  0.11502843849E+04  0.00000000000E+00 0.  1.
        -11    1    3    3    0    0  0.37085033296E+03 -0.47630963972E+03 -0.63193254339E+03  0.87392195403E+03  0.00000000000E+00 0. -1.
         22    1    1    2    0    0 -0.87199911155E+03  0.10118602152E+04  0.15674723177E+04  0.20594205526E+04  0.00000000000E+00 0.  1.
<mgrwt>
<rscale>  0 0.40833277E+04</rscale>
<asrwt>0</asrwt>
<pdfrwt beam="1">  1        2 0.31792749E+00 0.40833277E+04</pdfrwt>
<pdfrwt beam="2">  1       -2 0.31032280E+00 0.40833277E+04</pdfrwt>
<totfact> 0.13204317E-01</totfact>
</mgrwt>
</event>
<event>
 6    1  0.5040916E-004  0.2806070E+04  0.7818608E-02  0.8301386E-01
          2   -1    0    0  501    0  0.00000000000E+00  0.00000000000E+00  0.15044071373E+04  0.15044071373E+04  0.00000000000E+00 0.  1.
         -2   -1    0    0    0  501 -0.00000000000E+00 -0.00000000000E+00 -0.13084940304E+04  0.13084940304E+04  0.00000000000E+00 0. -1.
         23    2    1    2    0    0 -0.83987068378E+03 -0.53241194740E+03 -0.89143584536E+03  0.13394110960E+04  0.10256203286E+03 0.  0.
         11    1    3    3    0    0 -0.55424657240E+03 -0.39318444069E+03 -0.56354315456E+03  0.88281603660E+03  0.00000000000E+00 0. -1.
        -11    1    3    3    0    0 -0.28562411138E+03 -0.13922750671E+03 -0.32789269080E+03  0.45659505944E+03  0.00000000000E+00 0.  1.
         22    1    1    2    0    0  0.83987068378E+03  0.53241194740E+03  0.10873489523E+04  0.14734900716E+04  0.00000000000E+00 0.  1.
<mgrwt>
<rscale>  0 0.28060704E+04</rscale>
<asrwt>0</asrwt>
<pdfrwt beam="1">  1        2 0.23144725E+00 0.28060704E+04</pdfrwt>
<pdfrwt beam="2">  1       -2 0.20130677E+00 0.28060704E+04</pdfrwt>
<totfact> 0.14315421E+00</totfact>
</mgrwt>
</event>
<event>
 6    1  0.5040916E-004  0.1182015E+04  0.7818608E-02  0.9128746E-01
          2   -1    0    0  501    0  0.00000000000E+00  0.00000000000E+00  0.23509993977E+04  0.23509993977E+04  0.00000000000E+00 0.  1.
         -2   -1    0    0    0  501 -0.00000000000E+00 -0.00000000000E+00 -0.14857071069E+03  0.14857071069E+03  0.00000000000E+00 0. -1.
         23    2    1    2    0    0 -0.20144392854E+03 -0.46411369962E+03  0.47827587096E+03  0.70271615895E+03  0.95294327167E+02 0.  0.
         13    1    3    3    0    0 -0.10750594687E+03 -0.13513436589E+03  0.16415700662E+03  0.23825689555E+03  0.00000000000E+00 0.  1.
        -13    1    3    3    0    0 -0.93937981666E+02 -0.32897933373E+03  0.31411886434E+03  0.46445926340E+03  0.00000000000E+00 0. -1.
         22    1    1    2    0    0  0.20144392854E+03  0.46411369962E+03  0.17241528161E+04  0.17968539495E+04  0.00000000000E+00 0.  1.
<mgrwt>
<rscale>  0 0.11820146E+04</rscale>
<asrwt>0</asrwt>
<pdfrwt beam="1">  1        2 0.36169219E+00 0.11820146E+04</pdfrwt>
<pdfrwt beam="2">  1       -2 0.22857034E-01 0.11820146E+04</pdfrwt>
<totfact> 0.70986568E+01</totfact>
</mgrwt>
</event>
<event>
 6    1  0.5040916E-004  0.5495196E+04  0.7818608E-02  0.7756350E-01
          2   -1    0    0  501    0  0.00000000000E+00  0.00000000000E+00  0.31330007356E+04  0.31330007356E+04  0.00000000000E+00 0.  1.
         -2   -1    0    0    0  501 -0.00000000000E+00 -0.00000000000E+00 -0.24096055394E+04  0.24096055394E+04  0.00000000000E+00 0. -1.
         23    2    1    2    0    0 -0.15937388899E+04 -0.66386788406E+03 -0.17930900492E+04  0.24908162745E+04  0.90937187395E+02 0.  0.
         11    1    3    3    0    0 -0.10673164785E+04 -0.42410399596E+03 -0.12473394807E+04  0.16955484201E+04  0.00000000000E+00 0. -1.
        -11    1    3    3    0    0 -0.52642241142E+03 -0.23976388810E+03 -0.54575056846E+03  0.79526785441E+03  0.00000000000E+00 0.  1.
         22    1    1    2    0    0  0.15937388899E+04  0.66386788406E+03  0.25164852454E+04  0.30517900005E+04  0.00000000000E+00 0.  1.
<mgrwt>
<rscale>  0 0.54951964E+04</rscale>
<asrwt>0</asrwt>
<pdfrwt beam="1">  1        2 0.48200012E+00 0.54951964E+04</pdfrwt>
<pdfrwt beam="2">  1       -2 0.37070854E+00 0.54951964E+04</pdfrwt>
<totfact> 0.11522995E-02</totfact>
</mgrwt>
</event>
<event>
 6    1  0.5040916E-004  0.2093288E+04  0.7818608E-02  0.8564206E-01
         -2   -1    0    0    0  501 -0.00000000000E+00  0.00000000000E+00  0.31737065893E+03  0.31737065893E+03  0.00000000000E+00 0. -1.
          2   -1    0    0  501    0  0.00000000000E+00 -0.00000000000E+00 -0.34516862810E+04  0.34516862810E+04  0.00000000000E+00 0.  1.
         23    2    1    2    0    0  0.80657187027E+03  0.30342482194E+03 -0.26320288810E+04  0.27716017907E+04  0.10759020043E+03 0.  0.
         11    1    3    3    0    0  0.19885439994E+03  0.11600594402E+03 -0.79126272271E+03  0.82407350872E+03  0.00000000000E+00 0. -1.
        -11    1    3    3    0    0  0.60771747034E+03  0.18741887792E+03 -0.18407661583E+04  0.19475282820E+04  0.00000000000E+00 0.  1.
         22    1    1    2    0    0 -0.80657187027E+03 -0.30342482194E+03 -0.50228674104E+03  0.99745514922E+03  0.00000000000E+00 0. -1.
<mgrwt>
<rscale>  0 0.20932883E+04</rscale>
<asrwt>0</asrwt>
<pdfrwt beam="1">  1        2 0.53102862E+00 0.20932883E+04</pdfrwt>
<pdfrwt beam="2">  1       -2 0.48826259E-01 0.20932883E+04</pdfrwt>
<totfact> 0.32310941E+00</totfact>
</mgrwt>
</event>
<event>
 6    1  0.5040916E-004  0.1091836E+04  0.7818608E-02  0.9213186E-01
          2   -1    0    0  501    0  0.00000000000E+00  0.00000000000E+00  0.11974613408E+04  0.11974613408E+04  0.00000000000E+00 0.  1.
         -2   -1    0    0    0  501 -0.00000000000E+00 -0.00000000000E+00 -0.24888199843E+03  0.24888199843E+03  0.00000000000E+00 0. -1.
         23    2    1    2    0    0  0.24217815206E+03  0.34068698201E+03  0.93495802382E+03  0.10281287802E+04  0.90467703720E+02 0.  0.
         13    1    3    3    0    0  0.96278763377E+02  0.20666779538E+03  0.54387472267E+03  0.58972950739E+03  0.00000000000E+00 0.  1.
        -13    1    3    3    0    0  0.14589938869E+03  0.13401918663E+03  0.39108330115E+03  0.43839927286E+03  0.00000000000E+00 0. -1.
         22    1    1    2    0    0 -0.24217815206E+03 -0.34068698201E+03  0.13621318569E+02  0.41821455901E+03  0.00000000000E+00 0. -1.
<mgrwt>
<rscale>  0 0.10918362E+04</rscale>
<asrwt>0</asrwt>
<pdfrwt beam="1">  1        2 0.18422482E+00 0.10918362E+04</pdfrwt>
<pdfrwt beam="2">  1       -2 0.38289539E-01 0.10918362E+04</pdfrwt>
<totfact> 0.12150560E+02</totfact>
</mgrwt>
</event>
<event>
 6    1  0.5040916E-004  0.1540290E+04  0.7818608E-02  0.8858094E-01
          2   -1    0    0  501    0  0.00000000000E+00  0.00000000000E+00  0.65256184119E+03  0.65256184119E+03  0.00000000000E+00 0.  1.
         -2   -1    0    0    0  501 -0.00000000000E+00 -0.00000000000E+00 -0.90891535200E+03  0.90891535200E+03  0.00000000000E+00 0. -1.
         23    2    1    2    0    0 -0.25415213874E+03 -0.20077782242E+03 -0.83388364094E+03  0.89932457121E+03  0.92291463112E+02 0.  0.
         11    1    3    3    0    0 -0.20569761614E+03 -0.11137553623E+03 -0.54548272590E+03  0.59352120738E+03  0.00000000000E+00 0. -1.
        -11    1    3    3    0    0 -0.48454522597E+02 -0.89402286188E+02 -0.28840091504E+03  0.30580336383E+03  0.00000000000E+00 0.  1.
         22    1    1    2    0    0  0.25415213874E+03  0.20077782242E+03  0.57753013012E+03  0.66215262198E+03  0.00000000000E+00 0.  1.
<mgrwt>
<rscale>  0 0.15402902E+04</rscale>
<asrwt>0</asrwt>
<pdfrwt beam="1">  1        2 0.10039413E+00 0.15402902E+04</pdfrwt>
<pdfrwt beam="2">  1       -2 0.13983313E+00 0.15402902E+04</pdfrwt>
<totfact> 0.15520236E+01</totfact>
</mgrwt>
</event>
<event>
 6    1  0.5040916E-004  0.1228352E+04  0.7818608E-02  0.9088396E-01
          2   -1    0    0  501    0  0.00000000000E+00  0.00000000000E+00  0.20851617705E+04  0.20851617705E+04  0.00000000000E+00 0.  1.
         -2   -1    0    0    0  501 -0.00000000000E+00 -0.00000000000E+00 -0.18090308448E+03  0.18090308448E+03  0.00000000000E+00 0. -1.
         23    2    1    2    0    0  0.53371594241E+03 -0.22462486676E+03  0.13147164244E+04  0.14397059038E+04  0.94682495188E+02 0.  0.
         13    1    3    3    0    0  0.47663138847E+03 -0.21488540331E+03  0.11102197437E+04  0.12271679170E+04  0.00000000000E+00 0.  1.
        -13    1    3    3    0    0  0.57084553938E+02 -0.97394634505E+01  0.20449668069E+03  0.21253798686E+03  0.00000000000E+00 0. -1.
         22    1    1    2    0    0 -0.53371594241E+03  0.22462486676E+03  0.58954226158E+03  0.82635895115E+03  0.00000000000E+00 0. -1.
<mgrwt>
<rscale>  0 0.12283521E+04</rscale>
<asrwt>0</asrwt>
<pdfrwt beam="1">  1        2 0.32079410E+00 0.12283521E+04</pdfrwt>
<pdfrwt beam="2">  1       -2 0.27831245E-01 0.12283521E+04</pdfrwt>
<totfact> 0.69658700E+01</totfact>
</mgrwt>
</event>
<event>
 6    1  0.5040916E-004  0.8531219E+03  0.7818608E-02  0.9486156E-01
          2   -1    0    0  501    0  0.00000000000E+00  0.00000000000E+00  0.51874766691E+03  0.51874766691E+03  0.00000000000E+00 0.  1.
         -2   -1    0    0    0  501 -0.00000000000E+00 -0.00000000000E+00 -0.35075677212E+03  0.35075677212E+03  0.00000000000E+00 0. -1.
         23    2    1    2    0    0 -0.15678316003E+03  0.68801473826E+02  0.48049831913E+03  0.51316823214E+03  0.56110584738E+02 0.  0.
         13    1    3    3    0    0 -0.72831246504E+02  0.51384895467E+02  0.30641700713E+03  0.31911781556E+03  0.00000000000E+00 0.  1.
        -13    1    3    3    0    0 -0.83951913529E+02  0.17416578359E+02  0.17408131200E+03  0.19405041658E+03  0.00000000000E+00 0. -1.
         22    1    1    2    0    0  0.15678316003E+03 -0.68801473826E+02 -0.31250742435E+03  0.35633620689E+03  0.00000000000E+00 0. -1.
<mgrwt>
<rscale>  0 0.85312193E+03</rscale>
<asrwt>0</asrwt>
<pdfrwt beam="1">  1        2 0.79807334E-01 0.85312193E+03</pdfrwt>
<pdfrwt beam="2">  1       -2 0.53962580E-01 0.85312193E+03</pdfrwt>
<totfact> 0.19184372E+02</totfact>
</mgrwt>
</event>
<event>
 6    1  0.5040916E-004  0.3120952E+04  0.7818608E-02  0.8210011E-01
          1   -1    0    0  501    0  0.00000000000E+00  0.00000000000E+00  0.24616072519E+04  0.24616072519E+04  0.00000000000E+00 0.  1.
         -1   -1    0    0    0  501 -0.00000000000E+00 -0.00000000000E+00 -0.98922605803E+03  0.98922605803E+03  0.00000000000E+00 0. -1.
         23    2    1    2    0    0 -0.95979806282E+03  0.19927936872E+03  0.20774421389E+04  0.22988683211E+04  0.90028489919E+02 0.  0.
         13    1    3    3    0    0 -0.34601277650E+03  0.11484761318E+03  0.79489491498E+03  0.87451285961E+03  0.00000000000E+00 0.  1.
        -13    1    3    3    0    0 -0.61378528631E+03  0.84431755535E+02  0.12825472239E+04  0.14243554615E+04  0.00000000000E+00 0. -1.
         22    1    1    2    0    0  0.95979806282E+03 -0.19927936872E+03 -0.60506094507E+03  0.11519649888E+04  0.00000000000E+00 0. -1.
<mgrwt>
<rscale>  0 0.31209524E+04</rscale>
<asrwt>0</asrwt>
<pdfrwt beam="1">  1        1 0.37870881E+00 0.31209524E+04</pdfrwt>
<pdfrwt beam="2">  1       -1 0.15218862E+00 0.31209524E+04</pdfrwt>
<totfact> 0.40688545E-01</totfact>
</mgrwt>
</event>
<event>
 6    1  0.5040916E-004  0.2879375E+04  0.7818608E-02  0.8279040E-01
          2   -1    0    0  501    0  0.00000000000E+00  0.00000000000E+00  0.36930787754E+04  0.36930787754E+04  0.00000000000E+00 0.  1.
         -2   -1    0    0    0  501 -0.00000000000E+00 -0.00000000000E+00 -0.56123922196E+03  0.56123922196E+03  0.00000000000E+00 0. -1.
         23    2    1    2    0    0  0.93354897578E+03  0.73576909883E+03  0.27638811406E+04  0.30100257284E+04  0.91356825110E+02 0.  0.
         13    1    3    3    0    0  0.45957121681E+03  0.30428588631E+03  0.12721145654E+04  0.13863877782E+04  0.00000000000E+00 0.  1.
        -13    1    3    3    0    0  0.47397775897E+03  0.43148321253E+03  0.14917665752E+04  0.16236379502E+04  0.00000000000E+00 0. -1.
         22    1    1    2    0    0 -0.93354897578E+03 -0.73576909883E+03  0.36795841287E+03  0.12442922690E+04  0.00000000000E+00 0. -1.
<mgrwt>
<rscale>  0 0.28793754E+04</rscale>
<asrwt>0</asrwt>
<pdfrwt beam="1">  1        2 0.56816595E+00 0.28793754E+04</pdfrwt>
<pdfrwt beam="2">  1       -2 0.86344498E-01 0.28793754E+04</pdfrwt>
<totfact> 0.59340423E-01</totfact>
</mgrwt>
</event>
<event>
 6    1  0.5040916E-004  0.2592453E+04  0.7818608E-02  0.8370769E-01
         -2   -1    0    0    0  501 -0.00000000000E+00  0.00000000000E+00  0.87125107876E+03  0.87125107876E+03  0.00000000000E+00 0. -1.
          2   -1    0    0  501    0  0.00000000000E+00 -0.00000000000E+00 -0.19284949060E+04  0.19284949060E+04  0.00000000000E+00 0.  1.
         23    2    1    2    0    0 -0.85020065772E+03  0.60386221946E+03  0.29934941354E+03  0.10886539477E+04  0.89814296771E+02 0.  0.
         13    1    3    3    0    0 -0.26900065685E+03  0.14478003583E+03  0.71294008725E+02  0.31369642625E+03  0.00000000000E+00 0. -1.
        -13    1    3    3    0    0 -0.58120000087E+03  0.45908218363E+03  0.22805540481E+03  0.77495752142E+03  0.00000000000E+00 0.  1.
         22    1    1    2    0    0  0.85020065772E+03 -0.60386221946E+03 -0.13565932408E+04  0.17110920371E+04  0.00000000000E+00 0.  1.
<mgrwt>
<rscale>  0 0.25924531E+04</rscale>
<asrwt>0</asrwt>
<pdfrwt beam="1">  1        2 0.29669152E+00 0.25924531E+04</pdfrwt>
<pdfrwt beam="2">  1       -2 0.13403863E+00 0.25924531E+04</pdfrwt>
<totfact> 0.26039766E+00</totfact>
</mgrwt>
</event>
<event>
 6    1  0.7764334E-004  0.2659419E+04  0.7818608E-02  0.8348294E-01
          2   -1    0    0  501    0  0.00000000000E+00  0.00000000000E+00  0.19786969177E+04  0.19786969177E+04  0.00000000000E+00 0.  1.
         -2   -1    0    0    0  501 -0.00000000000E+00 -0.00000000000E+00 -0.89358148610E+03  0.89358148610E+03  0.00000000000E+00 0. -1.
         23    2    1    2    0    0  0.84285411257E+03  0.10084556067E+04  0.33766098015E+03  0.13603015777E+04  0.94971990560E+02 0.  0.
         11    1    3    3    0    0  0.26799471133E+03  0.38632459065E+03  0.10280720115E+03  0.48128699883E+03  0.00000000000E+00 0.  1.
        -11    1    3    3    0    0  0.57485940124E+03  0.62213101604E+03  0.23485377900E+03  0.87901457885E+03  0.00000000000E+00 0. -1.
         22    1    1    2    0    0 -0.84285411257E+03 -0.10084556067E+04  0.74745445145E+03  0.15119768261E+04  0.00000000000E+00 0.  1.
<mgrwt>
<rscale>  0 0.26594187E+04</rscale>
<asrwt>0</asrwt>
<pdfrwt beam="1">  1        2 0.30441491E+00 0.26594187E+04</pdfrwt>
<pdfrwt beam="2">  1       -2 0.13747408E+00 0.26594187E+04</pdfrwt>
<totfact> 0.22757949E+00</totfact>
</mgrwt>
</event>
<event>
 6    1  0.5040916E-004  0.1520511E+04  0.7818608E-02  0.8870927E-01
         -2   -1    0    0    0  501 -0.00000000000E+00  0.00000000000E+00  0.26217933930E+03  0.26217933930E+03  0.00000000000E+00 0. -1.
          2   -1    0    0  501    0  0.00000000000E+00 -0.00000000000E+00 -0.22045529125E+04  0.22045529125E+04  0.00000000000E+00 0.  1.
         23    2    1    2    0    0 -0.34910455943E+03  0.97851270188E+02  0.10388796854E+03  0.38859963772E+03  0.93638154270E+02 0.  0.
         13    1    3    3    0    0 -0.27684370797E+03  0.11526629663E+03  0.88816290215E+02  0.31275724003E+03  0.00000000000E+00 0. -1.
        -13    1    3    3    0    0 -0.72260851461E+02 -0.17415026447E+02  0.15071678326E+02  0.75842397691E+02  0.00000000000E+00 0.  1.
         22    1    1    2    0    0  0.34910455943E+03 -0.97851270188E+02 -0.20462615418E+04  0.20781326141E+04  0.00000000000E+00 0.  1.
<mgrwt>
<rscale>  0 0.15205107E+04</rscale>
<asrwt>0</asrwt>
<pdfrwt beam="1">  1        2 0.33916200E+00 0.15205107E+04</pdfrwt>
<pdfrwt beam="2">  1       -2 0.40335282E-01 0.15205107E+04</pdfrwt>
<totfact> 0.28842672E+01</totfact>
</mgrwt>
</event>
<event>
 6    1  0.5040916E-004  0.1400163E+04  0.7818608E-02  0.8953700E-01
          2   -1    0    0  501    0  0.00000000000E+00  0.00000000000E+00  0.23502408955E+04  0.23502408955E+04  0.00000000000E+00 0.  1.
         -2   -1    0    0    0  501 -0.00000000000E+00 -0.00000000000E+00 -0.20853792947E+03  0.20853792947E+03  0.00000000000E+00 0. -1.
         23    2    1    2    0    0  0.45826730752E+03  0.45379454422E+03  0.59213711942E+03  0.88035911389E+03  0.92018409704E+02 0.  0.
         11    1    3    3    0    0  0.12458235384E+03  0.17495352058E+03  0.16527883855E+03  0.27101031664E+03  0.00000000000E+00 0. -1.
        -11    1    3    3    0    0  0.33368495368E+03  0.27884102364E+03  0.42685828086E+03  0.60934879725E+03  0.00000000000E+00 0.  1.
         22    1    1    2    0    0 -0.45826730752E+03 -0.45379454422E+03  0.15495658466E+04  0.16784197110E+04  0.00000000000E+00 0.  1.
<mgrwt>
<rscale>  0 0.14001634E+04</rscale>
<asrwt>0</asrwt>
<pdfrwt beam="1">  1        2 0.36157550E+00 0.14001634E+04</pdfrwt>
<pdfrwt beam="2">  1       -2 0.32082760E-01 0.14001634E+04</pdfrwt>
<totfact> 0.37440713E+01</totfact>
</mgrwt>
</event>
<event>
 6    1  0.5040916E-004  0.1141142E+04  0.7818608E-02  0.9165994E-01
          1   -1    0    0  501    0  0.00000000000E+00  0.00000000000E+00  0.74421617962E+03  0.74421617962E+03  0.00000000000E+00 0. -1.
         -1   -1    0    0    0  501 -0.00000000000E+00 -0.00000000000E+00 -0.43744194176E+03  0.43744194176E+03  0.00000000000E+00 0.  1.
         23    2    1    2    0    0 -0.76595041015E+02 -0.15351757684E+03 -0.40491348323E+03  0.44958308488E+03  0.93464295872E+02 0.  0.
         11    1    3    3    0    0 -0.87639833676E+02 -0.73765168258E+02 -0.22528049654E+03  0.25273176021E+03  0.00000000000E+00 0. -1.
        -11    1    3    3    0    0  0.11044792661E+02 -0.79752408586E+02 -0.17963298669E+03  0.19685132468E+03  0.00000000000E+00 0.  1.
         22    1    1    2    0    0  0.76595041015E+02  0.15351757684E+03  0.71168772109E+03  0.73207503650E+03  0.00000000000E+00 0. -1.
<mgrwt>
<rscale>  0 0.11411422E+04</rscale>
<asrwt>0</asrwt>
<pdfrwt beam="1">  1        1 0.11449480E+00 0.11411422E+04</pdfrwt>
<pdfrwt beam="2">  1       -1 0.67298760E-01 0.11411422E+04</pdfrwt>
<totfact> 0.55110202E+01</totfact>
</mgrwt>
</event>
<event>
 6    1  0.5040916E-004  0.2159011E+04  0.7818608E-02  0.8535685E-01
         -2   -1    0    0    0  501 -0.00000000000E+00  0.00000000000E+00  0.65122600552E+03  0.65122600552E+03  0.00000000000E+00 0. -1.
          2   -1    0    0  501    0  0.00000000000E+00 -0.00000000000E+00 -0.17894441514E+04  0.17894441514E+04  0.00000000000E+00 0.  1.
         23    2    1    2    0    0  0.61882816767E+03  0.82018928783E+03 -0.20309100643E+03  0.10513820169E+04  0.92192297236E+02 0.  0.
         13    1    3    3    0    0  0.79481863950E+02  0.92736328177E+02  0.48420695703E+01  0.12223272434E+03  0.00000000000E+00 0.  1.
        -13    1    3    3    0    0  0.53934630372E+03  0.72745295965E+03 -0.20793307600E+03  0.92914929260E+03  0.00000000000E+00 0. -1.
         22    1    1    2    0    0 -0.61882816767E+03 -0.82018928783E+03 -0.93512713942E+03  0.13892881400E+04  0.00000000000E+00 0.  1.
<mgrwt>
<rscale>  0 0.21590114E+04</rscale>
<asrwt>0</asrwt>
<pdfrwt beam="1">  1        2 0.27529909E+00 0.21590114E+04</pdfrwt>
<pdfrwt beam="2">  1       -2 0.10018862E+00 0.21590114E+04</pdfrwt>
<totfact> 0.65960656E+00</totfact>
</mgrwt>
</event>
<event>
 6    1  0.5040916E-004  0.2777984E+04  0.7818608E-02  0.8310136E-01
          2   -1    0    0  501    0  0.00000000000E+00  0.00000000000E+00  0.13315347689E+04  0.13315347689E+04  0.00000000000E+00 0.  1.
         -2   -1    0    0    0  501 -0.00000000000E+00 -0.00000000000E+00 -0.14489290408E+04  0.14489290408E+04  0.00000000000E+00 0. -1.
         23    2    1    2    0    0  0.24286725730E+03  0.13324467937E+04  0.24270188333E+03  0.13790116329E+04  0.91487248787E+02 0.  0.
         13    1    3    3    0    0  0.41753313027E+02  0.44623100330E+03  0.61620375307E+02  0.45239641699E+03  0.00000000000E+00 0.  1.
        -13    1    3    3    0    0  0.20111394428E+03  0.88621579042E+03  0.18108150802E+03  0.92661521589E+03  0.00000000000E+00 0. -1.
         22    1    1    2    0    0 -0.24286725730E+03 -0.13324467937E+04 -0.36009615520E+03  0.14014521768E+04  0.00000000000E+00 0.  1.
<mgrwt>
<rscale>  0 0.27779844E+04</rscale>
<asrwt>0</asrwt>
<pdfrwt beam="1">  1        2 0.20485150E+00 0.27779844E+04</pdfrwt>
<pdfrwt beam="2">  1       -2 0.22291216E+00 0.27779844E+04</pdfrwt>
<totfact> 0.13087012E+00</totfact>
</mgrwt>
</event>
<event>
 6    1  0.5040916E-004  0.4793808E+04  0.7818608E-02  0.7861126E-01
         -2   -1    0    0    0  501 -0.00000000000E+00  0.00000000000E+00  0.33468260168E+04  0.33468260168E+04  0.00000000000E+00 0. -1.
          2   -1    0    0  501    0  0.00000000000E+00 -0.00000000000E+00 -0.17165963815E+04  0.17165963815E+04  0.00000000000E+00 0.  1.
         23    2    1    2    0    0  0.29913618681E+03 -0.20027322366E+04  0.21689472239E+04  0.29680380636E+04  0.67074710952E+02 0.  0.
         13    1    3    3    0    0  0.25993645712E+03 -0.16836666529E+04  0.17901617012E+04  0.24712303163E+04  0.00000000000E+00 0. -1.
        -13    1    3    3    0    0  0.39199729691E+02 -0.31906558379E+03  0.37878552273E+03  0.49680774731E+03  0.00000000000E+00 0.  1.
         22    1    1    2    0    0 -0.29913618681E+03  0.20027322366E+04 -0.53871758861E+03  0.20953843347E+04  0.00000000000E+00 0.  1.
<mgrwt>
<rscale>  0 0.47938083E+04</rscale>
<asrwt>0</asrwt>
<pdfrwt beam="1">  1        2 0.26409175E+00 0.47938083E+04</pdfrwt>
<pdfrwt beam="2">  1       -2 0.51489631E+00 0.47938083E+04</pdfrwt>
<totfact> 0.95761525E-03</totfact>
</mgrwt>
</event>
<event>
 6    1  0.5040916E-004  0.1498771E+04  0.7818608E-02  0.8885271E-01
          2   -1    0    0  501    0  0.00000000000E+00  0.00000000000E+00  0.55050007890E+03  0.55050007890E+03  0.00000000000E+00 0.  1.
         -2   -1    0    0    0  501 -0.00000000000E+00 -0.00000000000E+00 -0.10201244789E+04  0.10201244789E+04  0.00000000000E+00 0. -1.
         23    2    1    2    0    0 -0.86306643757E+02  0.14463152511E+03 -0.99791793125E+03  0.10161327455E+04  0.91205504863E+02 0.  0.
         13    1    3    3    0    0 -0.50178530453E+02  0.10968494859E+03 -0.87591993416E+03  0.88418572931E+03  0.00000000000E+00 0. -1.
        -13    1    3    3    0    0 -0.36128113304E+02  0.34946576516E+02 -0.12199799709E+03  0.13194701617E+03  0.00000000000E+00 0.  1.
         22    1    1    2    0    0  0.86306643757E+02 -0.14463152511E+03  0.52829353123E+03  0.55449181234E+03  0.00000000000E+00 0.  1.
<mgrwt>
<rscale>  0 0.14987710E+04</rscale>
<asrwt>0</asrwt>
<pdfrwt beam="1">  1        2 0.84692321E-01 0.14987710E+04</pdfrwt>
<pdfrwt beam="2">  1       -2 0.15694223E+00 0.14987710E+04</pdfrwt>
<totfact> 0.14092764E+01</totfact>
</mgrwt>
</event>
<event>
 6    1  0.5040916E-004  0.2709341E+04  0.7818608E-02  0.8331980E-01
         -2   -1    0    0    0  501 -0.00000000000E+00  0.00000000000E+00  0.87248002920E+03  0.87248002920E+03  0.00000000000E+00 0. -1.
          2   -1    0    0  501    0  0.00000000000E+00 -0.00000000000E+00 -0.21033519611E+04  0.21033519611E+04  0.00000000000E+00 0.  1.
         23    2    1    2    0    0  0.73077814605E+03  0.95689136052E+03  0.62373899072E+02  0.12088677705E+04  0.88278019782E+02 0.  0.
         11    1    3    3    0    0  0.20012252003E+03  0.30594377471E+03 -0.11695968545E+02  0.36576961600E+03  0.00000000000E+00 0.  1.
        -11    1    3    3    0    0  0.53065562602E+03  0.65094758580E+03  0.74069867618E+02  0.84309815454E+03  0.00000000000E+00 0. -1.
         22    1    1    2    0    0 -0.73077814605E+03 -0.95689136052E+03 -0.12932458309E+04  0.17669642197E+04  0.00000000000E+00 0.  1.
<mgrwt>
<rscale>  0 0.27093413E+04</rscale>
<asrwt>0</asrwt>
<pdfrwt beam="1">  1        2 0.32359261E+00 0.27093413E+04</pdfrwt>
<pdfrwt beam="2">  1       -2 0.13422770E+00 0.27093413E+04</pdfrwt>
<totfact> 0.20532435E+00</totfact>
</mgrwt>
</event>
<event>
 6    1  0.5040916E-004  0.1836412E+04  0.7818608E-02  0.8687172E-01
          2   -1    0    0  501    0  0.00000000000E+00  0.00000000000E+00  0.60978835578E+03  0.60978835578E+03  0.00000000000E+00 0.  1.
         -2   -1    0    0    0  501 -0.00000000000E+00 -0.00000000000E+00 -0.13826144175E+04  0.13826144175E+04  0.00000000000E+00 0. -1.
         23    2    1    2    0    0 -0.16272477186E+03 -0.85620419853E+03 -0.69282315478E+03  0.11172082543E+04  0.92657318679E+02 0.  0.
         13    1    3    3    0    0 -0.15641933106E+03 -0.63008679678E+03 -0.48976080309E+03  0.81322937899E+03  0.00000000000E+00 0.  1.
        -13    1    3    3    0    0 -0.63054407975E+01 -0.22611740175E+03 -0.20306235169E+03  0.30397887530E+03  0.00000000000E+00 0. -1.
         22    1    1    2    0    0  0.16272477186E+03  0.85620419853E+03 -0.80002906930E+02  0.87519451899E+03  0.00000000000E+00 0.  1.
<mgrwt>
<rscale>  0 0.18364119E+04</rscale>
<asrwt>0</asrwt>
<pdfrwt beam="1">  1        2 0.93813594E-01 0.18364119E+04</pdfrwt>
<pdfrwt beam="2">  1       -2 0.21270991E+00 0.18364119E+04</pdfrwt>
<totfact> 0.50320600E+00</totfact>
</mgrwt>
</event>
<event>
 6    1  0.5040916E-004  0.2588601E+04  0.7818608E-02  0.8372084E-01
          2   -1    0    0  501    0  0.00000000000E+00  0.00000000000E+00  0.29465420590E+04  0.29465420590E+04  0.00000000000E+00 0. -1.
         -2   -1    0    0    0  501 -0.00000000000E+00 -0.00000000000E+00 -0.56853547394E+03  0.56853547394E+03  0.00000000000E+00 0.  1.
         23    2    1    2    0    0 -0.29565426976E+03  0.73930295581E+03 -0.19240288488E+03  0.82416966554E+03  0.90865063635E+02 0.  0.
         13    1    3    3    0    0 -0.13463125547E+03  0.45493285639E+03 -0.10567450268E+03  0.48606232038E+03  0.00000000000E+00 0. -1.
        -13    1    3    3    0    0 -0.16102301429E+03  0.28437009942E+03 -0.86728382195E+02  0.33810734516E+03  0.00000000000E+00 0.  1.
         22    1    1    2    0    0  0.29565426976E+03 -0.73930295581E+03  0.25704094700E+04  0.26909078674E+04  0.00000000000E+00 0. -1.
<mgrwt>
<rscale>  0 0.25886009E+04</rscale>
<asrwt>0</asrwt>
<pdfrwt beam="1">  1        2 0.45331415E+00 0.25886009E+04</pdfrwt>
<pdfrwt beam="2">  1       -2 0.87466998E-01 0.25886009E+04</pdfrwt>
<totfact> 0.18786068E+00</totfact>
</mgrwt>
</event>
<event>
 6    1  0.5040916E-004  0.5812871E+03  0.7818608E-02  0.9945008E-01
         -2   -1    0    0    0  501 -0.00000000000E+00  0.00000000000E+00  0.62814901707E+02  0.62814901707E+02  0.00000000000E+00 0.  1.
          2   -1    0    0  501    0  0.00000000000E+00 -0.00000000000E+00 -0.13448029540E+04  0.13448029540E+04  0.00000000000E+00 0. -1.
         23    2    1    2    0    0 -0.14861685204E+03  0.15391982534E+03 -0.11051896547E+04  0.11300643388E+04  0.99110825299E+02 0.  0.
         13    1    3    3    0    0 -0.10152379511E+03  0.38081255274E+02 -0.43512366178E+03  0.44843044502E+03  0.00000000000E+00 0. -1.
        -13    1    3    3    0    0 -0.47093056937E+02  0.11583857007E+03 -0.67006599288E+03  0.68163389378E+03  0.00000000000E+00 0.  1.
         22    1    1    2    0    0  0.14861685204E+03 -0.15391982534E+03 -0.17679839762E+03  0.27755351690E+03  0.00000000000E+00 0.  1.
<mgrwt>
<rscale>  0 0.58128707E+03</rscale>
<asrwt>0</asrwt>
<pdfrwt beam="1">  1        2 0.20689275E+00 0.58128707E+03</pdfrwt>
<pdfrwt beam="2">  1       -2 0.96638314E-02 0.58128707E+03</pdfrwt>
<totfact> 0.11469573E+03</totfact>
</mgrwt>
</event>
<event>
 6    1  0.5274064E-004  0.2472243E+04  0.7818608E-02  0.8412941E-01
         -2   -1    0    0    0  501 -0.00000000000E+00  0.00000000000E+00  0.15789165018E+04  0.15789165018E+04  0.00000000000E+00 0. -1.
          2   -1    0    0  501    0  0.00000000000E+00 -0.00000000000E+00 -0.96775005056E+03  0.96775005056E+03  0.00000000000E+00 0.  1.
         23    2    1    2    0    0 -0.99560256762E+03  0.94610756247E+01 -0.44649566101E+03  0.10940953395E+04  0.79826387188E+02 0.  0.
         13    1    3    3    0    0 -0.25018066733E+03  0.25387655229E+02 -0.84595468962E+02  0.26531357431E+03  0.00000000000E+00 0.  1.
        -13    1    3    3    0    0 -0.74542190030E+03 -0.15926579604E+02 -0.36190019204E+03  0.82878176523E+03  0.00000000000E+00 0. -1.
         22    1    1    2    0    0  0.99560256762E+03 -0.94610756247E+01  0.10576621122E+04  0.14525712128E+04  0.00000000000E+00 0. -1.
<mgrwt>
<rscale>  0 0.24722431E+04</rscale>
<asrwt>0</asrwt>
<pdfrwt beam="1">  1        2 0.14888462E+00 0.24722431E+04</pdfrwt>
<pdfrwt beam="2">  1       -2 0.24291023E+00 0.24722431E+04</pdfrwt>
<totfact> 0.16788654E+00</totfact>
</mgrwt>
</event>
<event>
 6    1  0.5040916E-004  0.2189121E+04  0.7818608E-02  0.8522970E-01
         -2   -1    0    0    0  501 -0.00000000000E+00  0.00000000000E+00  0.65781089250E+03  0.65781089250E+03  0.00000000000E+00 0. -1.
          2   -1    0    0  501    0  0.00000000000E+00 -0.00000000000E+00 -0.18212872719E+04  0.18212872719E+04  0.00000000000E+00 0.  1.
         23    2    1    2    0    0 -0.11977152960E+03  0.78807786230E+03  0.26355196913E+03  0.84452732046E+03  0.91404694691E+02 0.  0.
         13    1    3    3    0    0 -0.11157668306E+03  0.43277631375E+03  0.15022846130E+03  0.47150109706E+03  0.00000000000E+00 0. -1.
        -13    1    3    3    0    0 -0.81948465390E+01  0.35530154855E+03  0.11332350783E+03  0.37302622339E+03  0.00000000000E+00 0.  1.
         22    1    1    2    0    0  0.11977152960E+03 -0.78807786230E+03 -0.14270283485E+04  0.16345708439E+04  0.00000000000E+00 0.  1.
<mgrwt>
<rscale>  0 0.21891209E+04</rscale>
<asrwt>0</asrwt>
<pdfrwt beam="1">  1        2 0.28019804E+00 0.21891209E+04</pdfrwt>
<pdfrwt beam="2">  1       -2 0.10120168E+00 0.21891209E+04</pdfrwt>
<totfact> 0.61677217E+00</totfact>
</mgrwt>
</event>
<event>
 6    1  0.5040916E-004  0.4493683E+04  0.7818608E-02  0.7911744E-01
          2   -1    0    0  501    0  0.00000000000E+00  0.00000000000E+00  0.23366814765E+04  0.23366814765E+04  0.00000000000E+00 0.  1.
         -2   -1    0    0    0  501 -0.00000000000E+00 -0.00000000000E+00 -0.21604556970E+04  0.21604556970E+04  0.00000000000E+00 0. -1.
         23    2    1    2    0    0  0.15177362035E+04  0.79986142795E+03 -0.13623784909E+04  0.21926622684E+04  0.91603402856E+02 0.  0.
         11    1    3    3    0    0  0.77196197061E+03  0.45244249943E+03 -0.68220001243E+03  0.11251783664E+04  0.00000000000E+00 0.  1.
        -11    1    3    3    0    0  0.74577423289E+03  0.34741892853E+03 -0.68017847844E+03  0.10674839019E+04  0.00000000000E+00 0. -1.
         22    1    1    2    0    0 -0.15177362035E+04 -0.79986142795E+03  0.15386042704E+04  0.23044749051E+04  0.00000000000E+00 0.  1.
<mgrwt>
<rscale>  0 0.44936830E+04</rscale>
<asrwt>0</asrwt>
<pdfrwt beam="1">  1        2 0.35948946E+00 0.44936830E+04</pdfrwt>
<pdfrwt beam="2">  1       -2 0.33237780E+00 0.44936830E+04</pdfrwt>
<totfact> 0.65721543E-02</totfact>
</mgrwt>
</event>
<event>
 6    1  0.5040916E-004  0.1154530E+04  0.7818608E-02  0.9153614E-01
         -2   -1    0    0    0  501 -0.00000000000E+00  0.00000000000E+00  0.11763903947E+03  0.11763903947E+03  0.00000000000E+00 0. -1.
          2   -1    0    0  501    0  0.00000000000E+00 -0.00000000000E+00 -0.28326909850E+04  0.28326909850E+04  0.00000000000E+00 0.  1.
         23    2    1    2    0    0  0.54319354517E+02 -0.26067081299E+03 -0.26644532702E+04  0.26792948035E+04  0.91703600688E+02 0.  0.
         13    1    3    3    0    0 -0.13222288829E+02 -0.77444714685E+02 -0.10798585367E+04  0.10827127837E+04  0.00000000000E+00 0. -1.
        -13    1    3    3    0    0  0.67541643346E+02 -0.18322609831E+03 -0.15845947335E+04  0.15965820199E+04  0.00000000000E+00 0.  1.
         22    1    1    2    0    0 -0.54319354517E+02  0.26067081299E+03 -0.50598675342E+02  0.27103522090E+03  0.00000000000E+00 0. -1.
<mgrwt>
<rscale>  0 0.11545303E+04</rscale>
<asrwt>0</asrwt>
<pdfrwt beam="1">  1        2 0.43579863E+00 0.11545303E+04</pdfrwt>
<pdfrwt beam="2">  1       -2 0.18098313E-01 0.11545303E+04</pdfrwt>
<totfact> 0.56366183E+01</totfact>
</mgrwt>
</event>
<event>
 6    1  0.5040916E-004  0.2908832E+04  0.7818608E-02  0.8270255E-01
         -1   -1    0    0    0  501 -0.00000000000E+00  0.00000000000E+00  0.15782543296E+04  0.15782543296E+04  0.00000000000E+00 0. -1.
          1   -1    0    0  501    0  0.00000000000E+00 -0.00000000000E+00 -0.13402945263E+04  0.13402945263E+04  0.00000000000E+00 0.  1.
         23    2    1    2    0    0  0.44063898541E+03  0.13026687772E+04 -0.35178801568E+03  0.14222497052E+04  0.89054800314E+02 0.  0.
         13    1    3    3    0    0  0.33252630995E+03  0.87532402981E+03 -0.21525525765E+03  0.96078131222E+03  0.00000000000E+00 0.  1.
        -13    1    3    3    0    0  0.10811267545E+03  0.42734474735E+03 -0.13653275802E+03  0.46146839296E+03  0.00000000000E+00 0. -1.
         22    1    1    2    0    0 -0.44063898541E+03 -0.13026687772E+04  0.58974781898E+03  0.14962991507E+04  0.00000000000E+00 0. -1.
<mgrwt>
<rscale>  0 0.29088318E+04</rscale>
<asrwt>0</asrwt>
<pdfrwt beam="1">  1        1 0.20619916E+00 0.29088318E+04</pdfrwt>
<pdfrwt beam="2">  1       -1 0.24280836E+00 0.29088318E+04</pdfrwt>
<totfact> 0.56426855E-01</totfact>
</mgrwt>
</event>
<event>
 6    1  0.5040916E-004  0.3719532E+04  0.7818608E-02  0.8063647E-01
          2   -1    0    0  501    0  0.00000000000E+00  0.00000000000E+00  0.11046872871E+04  0.11046872871E+04  0.00000000000E+00 0.  1.
         -2   -1    0    0    0  501 -0.00000000000E+00 -0.00000000000E+00 -0.31309584648E+04  0.31309584648E+04  0.00000000000E+00 0. -1.
         23    2    1    2    0    0 -0.18070761218E+04  0.31452232032E+03 -0.67175049305E+03  0.19554758712E+04  0.90491757643E+02 0.  0.
         11    1    3    3    0    0 -0.13802690919E+04  0.20209079357E+03 -0.50065239415E+03  0.14821053521E+04  0.00000000000E+00 0.  1.
        -11    1    3    3    0    0 -0.42680702990E+03  0.11243152674E+03 -0.17109809890E+03  0.47337051917E+03  0.00000000000E+00 0. -1.
         22    1    1    2    0    0  0.18070761218E+04 -0.31452232032E+03 -0.13545206846E+04  0.22801698807E+04  0.00000000000E+00 0. -1.
<mgrwt>
<rscale>  0 0.37195322E+04</rscale>
<asrwt>0</asrwt>
<pdfrwt beam="1">  1        2 0.16995189E+00 0.37195322E+04</pdfrwt>
<pdfrwt beam="2">  1       -2 0.48168591E+00 0.37195322E+04</pdfrwt>
<totfact> 0.37605488E-02</totfact>
</mgrwt>
</event>
<event>
 6    1  0.5040916E-004  0.2715151E+04  0.7818608E-02  0.8330106E-01
          2   -1    0    0  501    0  0.00000000000E+00  0.00000000000E+00  0.83186700437E+03  0.83186700437E+03  0.00000000000E+00 0.  1.
         -2   -1    0    0    0  501 -0.00000000000E+00 -0.00000000000E+00 -0.22155118512E+04  0.22155118512E+04  0.00000000000E+00 0. -1.
         23    2    1    2    0    0 -0.10957440847E+04 -0.62938785229E+03 -0.14055657685E+03  0.12747952568E+04  0.92534466898E+02 0.  0.
         13    1    3    3    0    0 -0.64673817346E+02 -0.38219517128E+02 -0.30883400873E+02  0.81223263841E+02  0.00000000000E+00 0. -1.
        -13    1    3    3    0    0 -0.10310702674E+04 -0.59116833516E+03 -0.10967317598E+03  0.11935719929E+04  0.00000000000E+00 0.  1.
         22    1    1    2    0    0  0.10957440847E+04  0.62938785229E+03 -0.12430882700E+04  0.17725835988E+04  0.00000000000E+00 0. -1.
<mgrwt>
<rscale>  0 0.27151510E+04</rscale>
<asrwt>0</asrwt>
<pdfrwt beam="1">  1        2 0.12797954E+00 0.27151510E+04</pdfrwt>
<pdfrwt beam="2">  1       -2 0.34084798E+00 0.27151510E+04</pdfrwt>
<totfact> 0.50872277E-01</totfact>
</mgrwt>
</event>
<event>
 6    1  0.5040916E-004  0.2131210E+04  0.7818608E-02  0.8547618E-01
          2   -1    0    0  501    0  0.00000000000E+00  0.00000000000E+00  0.13783887344E+04  0.13783887344E+04  0.00000000000E+00 0.  1.
         -2   -1    0    0    0  501 -0.00000000000E+00 -0.00000000000E+00 -0.82379803201E+03  0.82379803201E+03  0.00000000000E+00 0. -1.
         23    2    1    2    0    0 -0.82099232607E+03  0.58997566378E+03 -0.63849574753E+02  0.10170420243E+04  0.90542960824E+02 0.  0.
         13    1    3    3    0    0 -0.73431801327E+03  0.51433016917E+03 -0.83222507882E+02  0.90038017157E+03  0.00000000000E+00 0.  1.
        -13    1    3    3    0    0 -0.86674312798E+02  0.75645494609E+02  0.19372933128E+02  0.11666185277E+03  0.00000000000E+00 0. -1.
         22    1    1    2    0    0  0.82099232607E+03 -0.58997566378E+03  0.61844027719E+03  0.11851447421E+04  0.00000000000E+00 0.  1.
<mgrwt>
<rscale>  0 0.21312099E+04</rscale>
<asrwt>0</asrwt>
<pdfrwt beam="1">  1        2 0.21205980E+00 0.21312099E+04</pdfrwt>
<pdfrwt beam="2">  1       -2 0.12673816E+00 0.21312099E+04</pdfrwt>
<totfact> 0.63396812E+00</totfact>
</mgrwt>
</event>
<event>
 6    1  0.5040916E-004  0.1248523E+04  0.7818608E-02  0.9071414E-01
          4   -1    0    0  501    0  0.00000000000E+00  0.00000000000E+00  0.52751554260E+03  0.52751554260E+03  0.00000000000E+00 0.  1.
         -4   -1    0    0    0  501 -0.00000000000E+00 -0.00000000000E+00 -0.73875009347E+03  0.73875009347E+03  0.00000000000E+00 0. -1.
         23    2    1    2    0    0  0.46588049484E+03 -0.50913632670E+02 -0.51934710173E+03  0.70540007511E+03  0.90724971346E+02 0.  0.
         11    1    3    3    0    0  0.30676027094E+03 -0.76579882814E+02 -0.34269560693E+03  0.46626882942E+03  0.00000000000E+00 0.  1.
        -11    1    3    3    0    0  0.15912022390E+03  0.25666250144E+02 -0.17665149480E+03  0.23913124569E+03  0.00000000000E+00 0. -1.
         22    1    1    2    0    0 -0.46588049484E+03  0.50913632670E+02  0.30811255087E+03  0.56086556096E+03  0.00000000000E+00 0.  1.
<mgrwt>
<rscale>  0 0.12485226E+04</rscale>
<asrwt>0</asrwt>
<pdfrwt beam="1">  1        4 0.81156238E-01 0.12485226E+04</pdfrwt>
<pdfrwt beam="2">  1       -4 0.11365386E+00 0.12485226E+04</pdfrwt>
<totfact> 0.15959060E+00</totfact>
</mgrwt>
</event>
<event>
 6    1  0.5040916E-004  0.2628324E+04  0.7818608E-02  0.8358643E-01
         -2   -1    0    0    0  501 -0.00000000000E+00  0.00000000000E+00  0.20737825166E+04  0.20737825166E+04  0.00000000000E+00 0. -1.
          2   -1    0    0  501    0  0.00000000000E+00 -0.00000000000E+00 -0.83278812362E+03  0.83278812362E+03  0.00000000000E+00 0.  1.
         23    2    1    2    0    0 -0.87536189752E+03  0.97271016887E+03  0.50797674982E+03  0.14066578463E+04  0.90677416715E+02 0.  0.
         13    1    3    3    0    0 -0.24422076029E+03  0.32816120234E+03  0.17778901983E+03  0.44602969637E+03  0.00000000000E+00 0.  1.
        -13    1    3    3    0    0 -0.63114113723E+03  0.64454896654E+03  0.33018772999E+03  0.96062814991E+03  0.00000000000E+00 0. -1.
         22    1    1    2    0    0  0.87536189752E+03 -0.97271016887E+03  0.73301764320E+03  0.14999127940E+04  0.00000000000E+00 0. -1.
<mgrwt>
<rscale>  0 0.26283238E+04</rscale>
<asrwt>0</asrwt>
<pdfrwt beam="1">  1        2 0.12812125E+00 0.26283238E+04</pdfrwt>
<pdfrwt beam="2">  1       -2 0.31904346E+00 0.26283238E+04</pdfrwt>
<totfact> 0.69915831E-01</totfact>
</mgrwt>
</event>
<event>
 6    1  0.5040916E-004  0.5196354E+04  0.7818608E-02  0.7798911E-01
         -2   -1    0    0    0  501 -0.00000000000E+00  0.00000000000E+00  0.24615973226E+04  0.24615973226E+04  0.00000000000E+00 0. -1.
          2   -1    0    0  501    0  0.00000000000E+00 -0.00000000000E+00 -0.27423350746E+04  0.27423350746E+04  0.00000000000E+00 0.  1.
         23    2    1    2    0    0  0.21418050063E+04 -0.79358609821E+03  0.10979986868E+04  0.25359703007E+04  0.91851343680E+02 0.  0.
         11    1    3    3    0    0  0.53625533675E+03 -0.16013015407E+03  0.25132457321E+03  0.61349449348E+03  0.00000000000E+00 0. -1.
        -11    1    3    3    0    0  0.16055496696E+04 -0.63345594414E+03  0.84667411361E+03  0.19224758072E+04  0.00000000000E+00 0.  1.
         22    1    1    2    0    0 -0.21418050063E+04  0.79358609821E+03 -0.13787364388E+04  0.26679620964E+04  0.00000000000E+00 0.  1.
<mgrwt>
<rscale>  0 0.51963544E+04</rscale>
<asrwt>0</asrwt>
<pdfrwt beam="1">  1        2 0.42189770E+00 0.51963544E+04</pdfrwt>
<pdfrwt beam="2">  1       -2 0.37870728E+00 0.51963544E+04</pdfrwt>
<totfact> 0.18332408E-02</totfact>
</mgrwt>
</event>
<event>
 6    1  0.5040916E-004  0.1494563E+04  0.7818608E-02  0.8888077E-01
          2   -1    0    0  501    0  0.00000000000E+00  0.00000000000E+00  0.15531396843E+04  0.15531396843E+04  0.00000000000E+00 0.  1.
         -2   -1    0    0    0  501 -0.00000000000E+00 -0.00000000000E+00 -0.35954870804E+03  0.35954870804E+03  0.00000000000E+00 0. -1.
         23    2    1    2    0    0 -0.32569952625E+03  0.66500151974E+03  0.69612277714E+03  0.10206223568E+04  0.93679622334E+02 0.  0.
         13    1    3    3    0    0 -0.85105030995E+02  0.19761013405E+03  0.26077339235E+03  0.33807601740E+03  0.00000000000E+00 0. -1.
        -13    1    3    3    0    0 -0.24059449525E+03  0.46739138569E+03  0.43534938479E+03  0.68254633938E+03  0.00000000000E+00 0.  1.
         22    1    1    2    0    0  0.32569952625E+03 -0.66500151974E+03  0.49746819910E+03  0.89206603554E+03  0.00000000000E+00 0. -1.
<mgrwt>
<rscale>  0 0.14945626E+04</rscale>
<asrwt>0</asrwt>
<pdfrwt beam="1">  1        2 0.23894456E+00 0.14945626E+04</pdfrwt>
<pdfrwt beam="2">  1       -2 0.55315187E-01 0.14945626E+04</pdfrwt>
<totfact> 0.35176817E+01</totfact>
</mgrwt>
</event>
<event>
 6    1  0.5040916E-004  0.2757275E+04  0.7818608E-02  0.8316657E-01
         -2   -1    0    0    0  501 -0.00000000000E+00  0.00000000000E+00  0.73867355026E+03  0.73867355026E+03  0.00000000000E+00 0. -1.
          2   -1    0    0  501    0  0.00000000000E+00 -0.00000000000E+00 -0.25730461079E+04  0.25730461079E+04  0.00000000000E+00 0.  1.
         23    2    1    2    0    0 -0.10033825420E+04  0.19011072280E+03 -0.20279320995E+04  0.22723044818E+04  0.89109177079E+02 0.  0.
         13    1    3    3    0    0 -0.71803142087E+03  0.17604460163E+03 -0.14470535415E+04  0.16249691613E+04  0.00000000000E+00 0. -1.
        -13    1    3    3    0    0 -0.28535112112E+03  0.14066121169E+02 -0.58087855794E+03  0.64733532050E+03  0.00000000000E+00 0.  1.
         22    1    1    2    0    0  0.10033825420E+04 -0.19011072280E+03  0.19355954189E+03  0.10394151763E+04  0.00000000000E+00 0. -1.
<mgrwt>
<rscale>  0 0.27572748E+04</rscale>
<asrwt>0</asrwt>
<pdfrwt beam="1">  1        2 0.39585325E+00 0.27572748E+04</pdfrwt>
<pdfrwt beam="2">  1       -2 0.11364208E+00 0.27572748E+04</pdfrwt>
<totfact> 0.16723572E+00</totfact>
</mgrwt>
</event>
<event>
 6    1  0.5040916E-004  0.2530766E+04  0.7818608E-02  0.8392106E-01
          2   -1    0    0  501    0  0.00000000000E+00  0.00000000000E+00  0.97261521246E+03  0.97261521246E+03  0.00000000000E+00 0.  1.
         -2   -1    0    0    0  501 -0.00000000000E+00 -0.00000000000E+00 -0.16462769439E+04  0.16462769439E+04  0.00000000000E+00 0. -1.
         23    2    1    2    0    0  0.33940859456E+03  0.41243637407E+03  0.84789933238E+03  0.10063010651E+04  0.91687507434E+02 0.  0.
         11    1    3    3    0    0  0.79826713939E+02  0.68750215514E+02  0.23140841164E+03  0.25426118337E+03  0.00000000000E+00 0.  1.
        -11    1    3    3    0    0  0.25958188062E+03  0.34368615856E+03  0.61649092074E+03  0.75203988171E+03  0.00000000000E+00 0. -1.
         22    1    1    2    0    0 -0.33940859456E+03 -0.41243637407E+03 -0.15215610639E+04  0.16125910913E+04  0.00000000000E+00 0. -1.
<mgrwt>
<rscale>  0 0.25307659E+04</rscale>
<asrwt>0</asrwt>
<pdfrwt beam="1">  1        2 0.14963311E+00 0.25307659E+04</pdfrwt>
<pdfrwt beam="2">  1       -2 0.25327338E+00 0.25307659E+04</pdfrwt>
<totfact> 0.14319395E+00</totfact>
</mgrwt>
</event>
<event>
 6    1  0.5040916E-004  0.2254222E+04  0.7818608E-02  0.8496193E-01
         -2   -1    0    0    0  501 -0.00000000000E+00  0.00000000000E+00  0.63283628167E+03  0.63283628167E+03  0.00000000000E+00 0. -1.
          2   -1    0    0  501    0  0.00000000000E+00 -0.00000000000E+00 -0.20074377715E+04  0.20074377715E+04  0.00000000000E+00 0.  1.
         23    2    1    2    0    0  0.15706217755E+03  0.39312807219E+03 -0.19095725281E+04  0.19580627805E+04  0.91238168031E+02 0.  0.
         13    1    3    3    0    0  0.46386068333E+02  0.22551132994E+03 -0.92619443249E+03  0.95438103189E+03  0.00000000000E+00 0. -1.
        -13    1    3    3    0    0  0.11067610922E+03  0.16761674225E+03 -0.98337809563E+03  0.10036817486E+04  0.00000000000E+00 0.  1.
         22    1    1    2    0    0 -0.15706217755E+03 -0.39312807219E+03  0.53497103830E+03  0.68221127269E+03  0.00000000000E+00 0. -1.
<mgrwt>
<rscale>  0 0.22542222E+04</rscale>
<asrwt>0</asrwt>
<pdfrwt beam="1">  1        2 0.30883658E+00 0.22542222E+04</pdfrwt>
<pdfrwt beam="2">  1       -2 0.97359428E-01 0.22542222E+04</pdfrwt>
<totfact> 0.52984390E+00</totfact>
</mgrwt>
</event>
<event>
 6    1  0.5040916E-004  0.2810307E+04  0.7818608E-02  0.8300076E-01
          2   -1    0    0  501    0  0.00000000000E+00  0.00000000000E+00  0.14323761359E+04  0.14323761359E+04  0.00000000000E+00 0.  1.
         -2   -1    0    0    0  501 -0.00000000000E+00 -0.00000000000E+00 -0.13784482439E+04  0.13784482439E+04  0.00000000000E+00 0. -1.
         23    2    1    2    0    0  0.96756945750E+03 -0.78743434522E+03  0.67074285801E+03  0.14191691763E+04  0.88891317435E+02 0.  0.
         11    1    3    3    0    0  0.12701888900E+03 -0.14449966367E+03  0.10602080183E+03  0.21966875377E+03  0.00000000000E+00 0.  1.
        -11    1    3    3    0    0  0.84055056850E+03 -0.64293468155E+03  0.56472205618E+03  0.11995004225E+04  0.00000000000E+00 0. -1.
         22    1    1    2    0    0 -0.96756945750E+03  0.78743434522E+03 -0.61681496603E+03  0.13916552035E+04  0.00000000000E+00 0. -1.
<mgrwt>
<rscale>  0 0.28103070E+04</rscale>
<asrwt>0</asrwt>
<pdfrwt beam="1">  1        2 0.22036556E+00 0.28103070E+04</pdfrwt>
<pdfrwt beam="2">  1       -2 0.21206896E+00 0.28103070E+04</pdfrwt>
<totfact> 0.13389632E+00</totfact>
</mgrwt>
</event>
<event>
 6    1  0.5040916E-004  0.1422074E+04  0.7818608E-02  0.8937993E-01
          1   -1    0    0  501    0  0.00000000000E+00  0.00000000000E+00  0.15495051722E+04  0.15495051722E+04  0.00000000000E+00 0.  1.
         -1   -1    0    0    0  501 -0.00000000000E+00 -0.00000000000E+00 -0.32628083866E+03  0.32628083866E+03  0.00000000000E+00 0. -1.
         23    2    1    2    0    0  0.67088728620E+03 -0.36194337815E+02  0.90916671618E+03  0.11341446097E+04  0.91104868443E+02 0.  0.
         11    1    3    3    0    0  0.40530468860E+03  0.16655670029E+02  0.50693318376E+03  0.64925384461E+03  0.00000000000E+00 0.  1.
        -11    1    3    3    0    0  0.26558259760E+03 -0.52850007843E+02  0.40223353242E+03  0.48489076510E+03  0.00000000000E+00 0. -1.
         22    1    1    2    0    0 -0.67088728620E+03  0.36194337815E+02  0.31405761736E+03  0.74164140115E+03  0.00000000000E+00 0. -1.
<mgrwt>
<rscale>  0 0.14220743E+04</rscale>
<asrwt>0</asrwt>
<pdfrwt beam="1">  1        1 0.23838541E+00 0.14220743E+04</pdfrwt>
<pdfrwt beam="2">  1       -1 0.50197053E-01 0.14220743E+04</pdfrwt>
<totfact> 0.23441893E+01</totfact>
</mgrwt>
</event>
<event>
 6    1  0.5040916E-004  0.2367009E+04  0.7818608E-02  0.8451959E-01
          2   -1    0    0  501    0  0.00000000000E+00  0.00000000000E+00  0.16529301696E+04  0.16529301696E+04  0.00000000000E+00 0.  1.
         -2   -1    0    0    0  501 -0.00000000000E+00 -0.00000000000E+00 -0.84739369218E+03  0.84739369218E+03  0.00000000000E+00 0. -1.
         23    2    1    2    0    0 -0.29922983406E+03  0.37875109586E+03  0.15429320996E+04  0.16189935095E+04  0.86658143918E+02 0.  0.
         11    1    3    3    0    0 -0.18015509949E+03  0.29172568146E+03  0.10679440998E+04  0.11216346702E+04  0.00000000000E+00 0.  1.
        -11    1    3    3    0    0 -0.11907473458E+03  0.87025414401E+02  0.47498799971E+03  0.49735883931E+03  0.00000000000E+00 0. -1.
         22    1    1    2    0    0  0.29922983406E+03 -0.37875109586E+03 -0.73739562214E+03  0.88133035223E+03  0.00000000000E+00 0. -1.
<mgrwt>
<rscale>  0 0.23670087E+04</rscale>
<asrwt>0</asrwt>
<pdfrwt beam="1">  1        2 0.25429695E+00 0.23670087E+04</pdfrwt>
<pdfrwt beam="2">  1       -2 0.13036826E+00 0.23670087E+04</pdfrwt>
<totfact> 0.40508914E+00</totfact>
</mgrwt>
</event>
<event>
 6    1  0.5040916E-004  0.6208956E+04  0.7818608E-02  0.7665020E-01
          2   -1    0    0  501    0  0.00000000000E+00  0.00000000000E+00  0.44310080029E+04  0.44310080029E+04  0.00000000000E+00 0.  1.
         -2   -1    0    0    0  501 -0.00000000000E+00 -0.00000000000E+00 -0.21750772269E+04  0.21750772269E+04  0.00000000000E+00 0. -1.
         23    2    1    2    0    0 -0.20616973701E+04  0.19388334944E+04  0.24840789224E+04  0.37667678926E+04  0.90669177961E+02 0.  0.
         13    1    3    3    0    0 -0.17764235777E+04  0.17084292401E+04  0.21450970824E+04  0.32673923377E+04  0.00000000000E+00 0. -1.
        -13    1    3    3    0    0 -0.28527379238E+03  0.23040425428E+03  0.33898183998E+03  0.49937555491E+03  0.00000000000E+00 0.  1.
         22    1    1    2    0    0  0.20616973701E+04 -0.19388334944E+04 -0.22814814637E+03  0.28393173372E+04  0.00000000000E+00 0. -1.
<mgrwt>
<rscale>  0 0.62089563E+04</rscale>
<asrwt>0</asrwt>
<pdfrwt beam="1">  1        2 0.68169354E+00 0.62089563E+04</pdfrwt>
<pdfrwt beam="2">  1       -2 0.33462727E+00 0.62089563E+04</pdfrwt>
<totfact> 0.18258811E-03</totfact>
</mgrwt>
</event>
<event>
 6    1  0.5040916E-004  0.4350080E+04  0.7818608E-02  0.7937422E-01
          2   -1    0    0  501    0  0.00000000000E+00  0.00000000000E+00  0.17901459215E+04  0.17901459215E+04  0.00000000000E+00 0.  1.
         -2   -1    0    0    0  501 -0.00000000000E+00 -0.00000000000E+00 -0.26426895153E+04  0.26426895153E+04  0.00000000000E+00 0. -1.
         23    2    1    2    0    0  0.38646910303E+03  0.21097599226E+04 -0.64399280601E+02  0.21477497148E+04  0.90753905351E+02 0.  0.
         11    1    3    3    0    0  0.27232561748E+02  0.23003964862E+03  0.17093731424E+02  0.23227580160E+03  0.00000000000E+00 0. -1.
        -11    1    3    3    0    0  0.35923654128E+03  0.18797202740E+04 -0.81493012024E+02  0.19154739132E+04  0.00000000000E+00 0.  1.
         22    1    1    2    0    0 -0.38646910303E+03 -0.21097599226E+04 -0.78814431319E+03  0.22850857221E+04  0.00000000000E+00 0. -1.
<mgrwt>
<rscale>  0 0.43500804E+04</rscale>
<asrwt>0</asrwt>
<pdfrwt beam="1">  1        2 0.27540707E+00 0.43500804E+04</pdfrwt>
<pdfrwt beam="2">  1       -2 0.40656762E+00 0.43500804E+04</pdfrwt>
<totfact> 0.45047250E-02</totfact>
</mgrwt>
</event>
<event>
 6    1  0.5040916E-004  0.3321264E+04  0.7818608E-02  0.8157506E-01
         -2   -1    0    0    0  501 -0.00000000000E+00  0.00000000000E+00  0.17045721180E+04  0.17045721180E+04  0.00000000000E+00 0. -1.
          2   -1    0    0  501    0  0.00000000000E+00 -0.00000000000E+00 -0.16178244769E+04  0.16178244769E+04  0.00000000000E+00 0.  1.
         23    2    1    2    0    0  0.34759165214E+03 -0.97818320030E+03  0.13384466601E+04  0.16962315467E+04  0.89998155280E+02 0.  0.
         13    1    3    3    0    0  0.16467186845E+02 -0.43114446542E+02  0.33349829409E+02  0.56940625786E+02  0.00000000000E+00 0.  1.
        -13    1    3    3    0    0  0.33112446530E+03 -0.93506875376E+03  0.13050968307E+04  0.16392909209E+04  0.00000000000E+00 0. -1.
         22    1    1    2    0    0 -0.34759165214E+03  0.97818320030E+03 -0.12516990190E+04  0.16261650483E+04  0.00000000000E+00 0. -1.
<mgrwt>
<rscale>  0 0.33212639E+04</rscale>
<asrwt>0</asrwt>
<pdfrwt beam="1">  1        2 0.24889607E+00 0.33212639E+04</pdfrwt>
<pdfrwt beam="2">  1       -2 0.26224187E+00 0.33212639E+04</pdfrwt>
<totfact> 0.49123221E-01</totfact>
</mgrwt>
</event>
<event>
 6    1  0.5040916E-004  0.1444870E+04  0.7818608E-02  0.8921964E-01
         -2   -1    0    0    0  501 -0.00000000000E+00  0.00000000000E+00  0.27800807072E+03  0.27800807072E+03  0.00000000000E+00 0. -1.
          2   -1    0    0  501    0  0.00000000000E+00 -0.00000000000E+00 -0.18773290124E+04  0.18773290124E+04  0.00000000000E+00 0.  1.
         23    2    1    2    0    0 -0.15391071282E+03  0.70225950775E+03 -0.75227708507E+03  0.10443284338E+04  0.88567156851E+02 0.  0.
         11    1    3    3    0    0 -0.96486949560E+02  0.58541066548E+03 -0.63586010024E+03  0.86967433317E+03  0.00000000000E+00 0.  1.
        -11    1    3    3    0    0 -0.57423763265E+02  0.11684884226E+03 -0.11641698483E+03  0.17465410067E+03  0.00000000000E+00 0. -1.
         22    1    1    2    0    0  0.15391071282E+03 -0.70225950775E+03 -0.84704385659E+03  0.11110086493E+04  0.00000000000E+00 0.  1.
<mgrwt>
<rscale>  0 0.14448704E+04</rscale>
<asrwt>0</asrwt>
<pdfrwt beam="1">  1        2 0.28881985E+00 0.14448704E+04</pdfrwt>
<pdfrwt beam="2">  1       -2 0.42770472E-01 0.14448704E+04</pdfrwt>
<totfact> 0.39306744E+01</totfact>
</mgrwt>
</event>
<event>
 6    1  0.5040916E-004  0.3299453E+04  0.7818608E-02  0.8163034E-01
          2   -1    0    0  501    0  0.00000000000E+00  0.00000000000E+00  0.20730536282E+04  0.20730536282E+04  0.00000000000E+00 0.  1.
         -2   -1    0    0    0  501 -0.00000000000E+00 -0.00000000000E+00 -0.13128449873E+04  0.13128449873E+04  0.00000000000E+00 0. -1.
         23    2    1    2    0    0 -0.88473634264E+03  0.89529190003E+03  0.14727459694E+04  0.19395185041E+04  0.91898614315E+02 0.  0.
         11    1    3    3    0    0 -0.53537690446E+03  0.50038956702E+03  0.90956945010E+03  0.11680474019E+04  0.00000000000E+00 0. -1.
        -11    1    3    3    0    0 -0.34935943818E+03  0.39490233301E+03  0.56317651928E+03  0.77147110220E+03  0.00000000000E+00 0.  1.
         22    1    1    2    0    0  0.88473634264E+03 -0.89529190003E+03 -0.71253732843E+03  0.14463801114E+04  0.00000000000E+00 0. -1.
<mgrwt>
<rscale>  0 0.32994533E+04</rscale>
<asrwt>0</asrwt>
<pdfrwt beam="1">  1        2 0.31893133E+00 0.32994533E+04</pdfrwt>
<pdfrwt beam="2">  1       -2 0.20197615E+00 0.32994533E+04</pdfrwt>
<totfact> 0.65593585E-01</totfact>
</mgrwt>
</event>
<event>
 6    1  0.5040916E-004  0.2580850E+04  0.7818608E-02  0.8374735E-01
          2   -1    0    0  501    0  0.00000000000E+00  0.00000000000E+00  0.11065058274E+04  0.11065058274E+04  0.00000000000E+00 0.  1.
         -2   -1    0    0    0  501 -0.00000000000E+00 -0.00000000000E+00 -0.15049140077E+04  0.15049140077E+04  0.00000000000E+00 0. -1.
         23    2    1    2    0    0 -0.26297834033E+03  0.38108834490E+03  0.10176413411E+04  0.11215936100E+04  0.89400184059E+02 0.  0.
         11    1    3    3    0    0 -0.20157978764E+03  0.34343705562E+03  0.82951108861E+03  0.92014785121E+03  0.00000000000E+00 0. -1.
        -11    1    3    3    0    0 -0.61398552695E+02  0.37651289276E+02  0.18813025245E+03  0.20144575882E+03  0.00000000000E+00 0.  1.
         22    1    1    2    0    0  0.26297834033E+03 -0.38108834490E+03 -0.14160495213E+04  0.14898262251E+04  0.00000000000E+00 0. -1.
<mgrwt>
<rscale>  0 0.25808496E+04</rscale>
<asrwt>0</asrwt>
<pdfrwt beam="1">  1        2 0.17023167E+00 0.25808496E+04</pdfrwt>
<pdfrwt beam="2">  1       -2 0.23152523E+00 0.25808496E+04</pdfrwt>
<totfact> 0.15993981E+00</totfact>
</mgrwt>
</event>
<event>
 6    1  0.5040916E-004  0.2097372E+04  0.7818608E-02  0.8562402E-01
         -2   -1    0    0    0  501 -0.00000000000E+00  0.00000000000E+00  0.16369721979E+04  0.16369721979E+04  0.00000000000E+00 0. -1.
          2   -1    0    0  501    0  0.00000000000E+00 -0.00000000000E+00 -0.67181480915E+03  0.67181480915E+03  0.00000000000E+00 0.  1.
         23    2    1    2    0    0 -0.65897938884E+03 -0.43064797120E+03  0.12428919473E+04  0.14740127891E+04  0.90674141119E+02 0.  0.
         13    1    3    3    0    0 -0.47248187768E+03 -0.31846817121E+03  0.96989496294E+03  0.11248810337E+04  0.00000000000E+00 0. -1.
        -13    1    3    3    0    0 -0.18649751116E+03 -0.11217979999E+03  0.27299698433E+03  0.34913175543E+03  0.00000000000E+00 0.  1.
         22    1    1    2    0    0  0.65897938884E+03  0.43064797120E+03 -0.27773455849E+03  0.83477421797E+03  0.00000000000E+00 0.  1.
<mgrwt>
<rscale>  0 0.20973718E+04</rscale>
<asrwt>0</asrwt>
<pdfrwt beam="1">  1        2 0.10335613E+00 0.20973718E+04</pdfrwt>
<pdfrwt beam="2">  1       -2 0.25184188E+00 0.20973718E+04</pdfrwt>
<totfact> 0.24896996E+00</totfact>
</mgrwt>
</event>
<event>
 6    1  0.5040916E-004  0.1663017E+04  0.7818608E-02  0.8782743E-01
         -2   -1    0    0    0  501 -0.00000000000E+00  0.00000000000E+00  0.91614924683E+03  0.91614924683E+03  0.00000000000E+00 0. -1.
          2   -1    0    0  501    0  0.00000000000E+00 -0.00000000000E+00 -0.75468714022E+03  0.75468714022E+03  0.00000000000E+00 0.  1.
         23    2    1    2    0    0  0.31301298462E+03  0.58632147714E+03  0.57885728818E+03  0.88599962652E+03  0.90385701387E+02 0.  0.
         13    1    3    3    0    0  0.96095730608E+02  0.21276182164E+03  0.15120389233E+03  0.27814492489E+03  0.00000000000E+00 0.  1.
        -13    1    3    3    0    0  0.21691725401E+03  0.37355965550E+03  0.42765339585E+03  0.60785470162E+03  0.00000000000E+00 0. -1.
         22    1    1    2    0    0 -0.31301298462E+03 -0.58632147714E+03 -0.41739518157E+03  0.78483676054E+03  0.00000000000E+00 0.  1.
<mgrwt>
<rscale>  0 0.16630166E+04</rscale>
<asrwt>0</asrwt>
<pdfrwt beam="1">  1        2 0.11610571E+00 0.16630166E+04</pdfrwt>
<pdfrwt beam="2">  1       -2 0.14094604E+00 0.16630166E+04</pdfrwt>
<totfact> 0.12522831E+01</totfact>
</mgrwt>
</event>
<event>
 6    1  0.5040916E-004  0.2867936E+04  0.7818608E-02  0.8282482E-01
         -2   -1    0    0    0  501 -0.00000000000E+00  0.00000000000E+00  0.10771808537E+04  0.10771808537E+04  0.00000000000E+00 0. -1.
          2   -1    0    0  501    0  0.00000000000E+00 -0.00000000000E+00 -0.19089315129E+04  0.19089315129E+04  0.00000000000E+00 0.  1.
         23    2    1    2    0    0  0.11133566702E+04 -0.56856265089E+03 -0.11445852799E+04  0.16974339495E+04  0.91542267479E+02 0.  0.
         11    1    3    3    0    0  0.61136525107E+03 -0.36209029996E+03 -0.63648021989E+03  0.95393077624E+03  0.00000000000E+00 0.  1.
        -11    1    3    3    0    0  0.50199141914E+03 -0.20647235093E+03 -0.50810506000E+03  0.74350317322E+03  0.00000000000E+00 0. -1.
         22    1    1    2    0    0 -0.11133566702E+04  0.56856265089E+03  0.31283462069E+03  0.12886784172E+04  0.00000000000E+00 0. -1.
<mgrwt>
<rscale>  0 0.28679362E+04</rscale>
<asrwt>0</asrwt>
<pdfrwt beam="1">  1        2 0.29368177E+00 0.28679362E+04</pdfrwt>
<pdfrwt beam="2">  1       -2 0.16572013E+00 0.28679362E+04</pdfrwt>
<totfact> 0.14862080E+00</totfact>
</mgrwt>
</event>
<event>
 6    1  0.5040916E-004  0.4454453E+04  0.7818608E-02  0.7918660E-01
          2   -1    0    0  501    0  0.00000000000E+00  0.00000000000E+00  0.36423969712E+04  0.36423969712E+04  0.00000000000E+00 0.  1.
         -2   -1    0    0    0  501 -0.00000000000E+00 -0.00000000000E+00 -0.13618884431E+04  0.13618884431E+04  0.00000000000E+00 0. -1.
         23    2    1    2    0    0  0.14925792743E+04 -0.38826428950E+03 -0.66355133633E+03  0.16807285043E+04  0.77497616390E+02 0.  0.
         11    1    3    3    0    0  0.13553050895E+04 -0.37450924646E+03 -0.61065793797E+03  0.15329749438E+04  0.00000000000E+00 0.  1.
        -11    1    3    3    0    0  0.13727418487E+03 -0.13755043042E+02 -0.52893398357E+02  0.14775356046E+03  0.00000000000E+00 0. -1.
         22    1    1    2    0    0 -0.14925792743E+04  0.38826428950E+03  0.29440598645E+04  0.33235569100E+04  0.00000000000E+00 0.  1.
<mgrwt>
<rscale>  0 0.44544532E+04</rscale>
<asrwt>0</asrwt>
<pdfrwt beam="1">  1        2 0.56036876E+00 0.44544532E+04</pdfrwt>
<pdfrwt beam="2">  1       -2 0.20952130E+00 0.44544532E+04</pdfrwt>
<totfact> 0.56285086E-02</totfact>
</mgrwt>
</event>
<event>
 6    1  0.5040916E-004  0.1945918E+04  0.7818608E-02  0.8632332E-01
          2   -1    0    0  501    0  0.00000000000E+00  0.00000000000E+00  0.20814333267E+04  0.20814333267E+04  0.00000000000E+00 0.  1.
         -2   -1    0    0    0  501 -0.00000000000E+00 -0.00000000000E+00 -0.45480654522E+03  0.45480654522E+03  0.00000000000E+00 0. -1.
         23    2    1    2    0    0  0.64719432772E+03 -0.34246658962E+03 -0.16347718095E+02  0.73748778532E+03  0.86470357734E+02 0.  0.
         13    1    3    3    0    0  0.35986440443E+03 -0.23340185749E+03 -0.28886052203E+02  0.42989908196E+03  0.00000000000E+00 0.  1.
        -13    1    3    3    0    0  0.28732992329E+03 -0.10906473213E+03  0.12538334107E+02  0.30758870336E+03  0.00000000000E+00 0. -1.
         22    1    1    2    0    0 -0.64719432772E+03  0.34246658962E+03  0.16429744996E+04  0.17987520866E+04  0.00000000000E+00 0.  1.
<mgrwt>
<rscale>  0 0.19459183E+04</rscale>
<asrwt>0</asrwt>
<pdfrwt beam="1">  1        2 0.32022050E+00 0.19459183E+04</pdfrwt>
<pdfrwt beam="2">  1       -2 0.69970239E-01 0.19459183E+04</pdfrwt>
<totfact> 0.10448117E+01</totfact>
</mgrwt>
</event>
<event>
 6    1  0.5040916E-004  0.1502259E+04  0.7818608E-02  0.8882952E-01
          4   -1    0    0  501    0  0.00000000000E+00  0.00000000000E+00  0.48121984723E+03  0.48121984723E+03  0.00000000000E+00 0. -1.
         -4   -1    0    0    0  501 -0.00000000000E+00 -0.00000000000E+00 -0.11724273072E+04  0.11724273072E+04  0.00000000000E+00 0.  1.
         23    2    1    2    0    0 -0.22092575574E+03 -0.78105746863E+02 -0.11292129481E+04  0.11569002320E+04  0.91583663525E+02 0.  0.
         11    1    3    3    0    0 -0.58997184573E+02 -0.53827735173E+02 -0.24603498194E+03  0.25867219642E+03  0.00000000000E+00 0. -1.
        -11    1    3    3    0    0 -0.16192857116E+03 -0.24278011690E+02 -0.88317796620E+03  0.89822803563E+03  0.00000000000E+00 0.  1.
         22    1    1    2    0    0  0.22092575574E+03  0.78105746863E+02  0.43800548816E+03  0.49674692239E+03  0.00000000000E+00 0. -1.
<mgrwt>
<rscale>  0 0.15022587E+04</rscale>
<asrwt>0</asrwt>
<pdfrwt beam="1">  1        4 0.74033824E-01 0.15022587E+04</pdfrwt>
<pdfrwt beam="2">  1       -4 0.18037343E+00 0.15022587E+04</pdfrwt>
<totfact> 0.57046356E-01</totfact>
</mgrwt>
</event>
<event>
 6    1  0.5040916E-004  0.7109376E+03  0.7818608E-02  0.9698708E-01
         -2   -1    0    0    0  501 -0.00000000000E+00  0.00000000000E+00  0.65611109884E+02  0.65611109884E+02  0.00000000000E+00 0. -1.
          2   -1    0    0  501    0  0.00000000000E+00 -0.00000000000E+00 -0.19258640054E+04  0.19258640054E+04  0.00000000000E+00 0.  1.
         23    2    1    2    0    0 -0.22690668746E+03  0.17918001435E+03 -0.39556561005E+03  0.49852469194E+03  0.91992359811E+02 0.  0.
         11    1    3    3    0    0 -0.48617295745E+02  0.54160437734E+02 -0.44187944703E+02  0.85144400392E+02  0.00000000000E+00 0. -1.
        -11    1    3    3    0    0 -0.17828939172E+03  0.12501957661E+03 -0.35137766535E+03  0.41338029155E+03  0.00000000000E+00 0.  1.
         22    1    1    2    0    0  0.22690668746E+03 -0.17918001435E+03 -0.14646872854E+04  0.14929504233E+04  0.00000000000E+00 0.  1.
<mgrwt>
<rscale>  0 0.71093762E+03</rscale>
<asrwt>0</asrwt>
<pdfrwt beam="1">  1        2 0.29628678E+00 0.71093762E+03</pdfrwt>
<pdfrwt beam="2">  1       -2 0.10094017E-01 0.71093762E+03</pdfrwt>
<totfact> 0.50875594E+02</totfact>
</mgrwt>
</event>
<event>
 6    1  0.5040916E-004  0.5013139E+04  0.7818608E-02  0.7826484E-01
         -2   -1    0    0    0  501 -0.00000000000E+00  0.00000000000E+00  0.30715696313E+04  0.30715696313E+04  0.00000000000E+00 0. -1.
          2   -1    0    0  501    0  0.00000000000E+00 -0.00000000000E+00 -0.20454983728E+04  0.20454983728E+04  0.00000000000E+00 0.  1.
         23    2    1    2    0    0  0.15054522445E+04 -0.11428963316E+04  0.21923348429E+04  0.28960841605E+04  0.91503639125E+02 0.  0.
         11    1    3    3    0    0  0.64618720507E+03 -0.49239137308E+03  0.87336587193E+03  0.11928013726E+04  0.00000000000E+00 0. -1.
        -11    1    3    3    0    0  0.85926503942E+03 -0.65050495847E+03  0.13189689710E+04  0.17032827879E+04  0.00000000000E+00 0.  1.
         22    1    1    2    0    0 -0.15054522445E+04  0.11428963316E+04 -0.11662635844E+04  0.22209838436E+04  0.00000000000E+00 0.  1.
<mgrwt>
<rscale>  0 0.50131390E+04</rscale>
<asrwt>0</asrwt>
<pdfrwt beam="1">  1        2 0.31469206E+00 0.50131390E+04</pdfrwt>
<pdfrwt beam="2">  1       -2 0.47254918E+00 0.50131390E+04</pdfrwt>
<totfact> 0.11361215E-02</totfact>
</mgrwt>
</event>
<event>
 6    1  0.5040916E-004  0.2428475E+04  0.7818608E-02  0.8428919E-01
         -2   -1    0    0    0  501 -0.00000000000E+00  0.00000000000E+00  0.87658579788E+03  0.87658579788E+03  0.00000000000E+00 0. -1.
          2   -1    0    0  501    0  0.00000000000E+00 -0.00000000000E+00 -0.16819496892E+04  0.16819496892E+04  0.00000000000E+00 0.  1.
         23    2    1    2    0    0  0.32426068890E+03  0.11150578363E+04 -0.77087989705E+03  0.13967747034E+04  0.90690593913E+02 0.  0.
         11    1    3    3    0    0  0.15768299444E+03  0.60837829628E+03 -0.36737436040E+03  0.72797802082E+03  0.00000000000E+00 0. -1.
        -11    1    3    3    0    0  0.16657769445E+03  0.50667953997E+03 -0.40350553665E+03  0.66879668258E+03  0.00000000000E+00 0.  1.
         22    1    1    2    0    0 -0.32426068890E+03 -0.11150578363E+04 -0.34483994242E+02  0.11617607836E+04  0.00000000000E+00 0. -1.
<mgrwt>
<rscale>  0 0.24284754E+04</rscale>
<asrwt>0</asrwt>
<pdfrwt beam="1">  1        2 0.25876149E+00 0.24284754E+04</pdfrwt>
<pdfrwt beam="2">  1       -2 0.13485936E+00 0.24284754E+04</pdfrwt>
<totfact> 0.35622735E+00</totfact>
</mgrwt>
</event>
<event>
 6    1  0.5040916E-004  0.3069158E+04  0.7818608E-02  0.8224253E-01
         -2   -1    0    0    0  501 -0.00000000000E+00  0.00000000000E+00  0.49389301076E+03  0.49389301076E+03  0.00000000000E+00 0. -1.
          2   -1    0    0  501    0  0.00000000000E+00 -0.00000000000E+00 -0.47681039039E+04  0.47681039039E+04  0.00000000000E+00 0.  1.
         23    2    1    2    0    0  0.13039262591E+01  0.10784242225E+04 -0.27060160040E+03  0.11156867631E+04  0.92364621450E+02 0.  0.
         11    1    3    3    0    0  0.23368612179E+02  0.12521818602E+03 -0.51352955040E+02  0.13734195330E+03  0.00000000000E+00 0. -1.
        -11    1    3    3    0    0 -0.22064685920E+02  0.95320603650E+03 -0.21924864536E+03  0.97834480981E+03  0.00000000000E+00 0.  1.
         22    1    1    2    0    0 -0.13039262591E+01 -0.10784242225E+04 -0.40036092927E+04  0.41463101516E+04  0.00000000000E+00 0.  1.
<mgrwt>
<rscale>  0 0.30691583E+04</rscale>
<asrwt>0</asrwt>
<pdfrwt beam="1">  1        2 0.73355442E+00 0.30691583E+04</pdfrwt>
<pdfrwt beam="2">  1       -2 0.75983542E-01 0.30691583E+04</pdfrwt>
<totfact> 0.85206008E-02</totfact>
</mgrwt>
</event>
<event>
 6    1  0.5040916E-004  0.1906087E+04  0.7818608E-02  0.8651832E-01
         -2   -1    0    0    0  501 -0.00000000000E+00  0.00000000000E+00  0.57626561734E+03  0.57626561734E+03  0.00000000000E+00 0. -1.
          2   -1    0    0  501    0  0.00000000000E+00 -0.00000000000E+00 -0.15761695782E+04  0.15761695782E+04  0.00000000000E+00 0.  1.
         23    2    1    2    0    0 -0.48092078558E+03 -0.80500686913E+03 -0.67880362561E+03  0.11612609996E+04  0.91825300407E+02 0.  0.
         13    1    3    3    0    0 -0.17817972606E+03 -0.25050625936E+03 -0.26665043311E+03  0.40694453459E+03  0.00000000000E+00 0. -1.
        -13    1    3    3    0    0 -0.30274105952E+03 -0.55450060977E+03 -0.41215319250E+03  0.75431646505E+03  0.00000000000E+00 0.  1.
         22    1    1    2    0    0  0.48092078558E+03  0.80500686913E+03 -0.32110033528E+03  0.99117419592E+03  0.00000000000E+00 0. -1.
<mgrwt>
<rscale>  0 0.19060874E+04</rscale>
<asrwt>0</asrwt>
<pdfrwt beam="1">  1        2 0.24248763E+00 0.19060874E+04</pdfrwt>
<pdfrwt beam="2">  1       -2 0.88656249E-01 0.19060874E+04</pdfrwt>
<totfact> 0.11778766E+01</totfact>
</mgrwt>
</event>
<event>
 6    1  0.5040916E-004  0.1498574E+04  0.7818608E-02  0.8885402E-01
         -2   -1    0    0    0  501 -0.00000000000E+00  0.00000000000E+00  0.68306624972E+03  0.68306624972E+03  0.00000000000E+00 0. -1.
          2   -1    0    0  501    0  0.00000000000E+00 -0.00000000000E+00 -0.82192788521E+03  0.82192788521E+03  0.00000000000E+00 0.  1.
         23    2    1    2    0    0  0.50034444628E+03  0.54884460066E+03 -0.14567350952E+03  0.76228196846E+03  0.90983885809E+02 0.  0.
         13    1    3    3    0    0  0.33683897454E+03  0.30744329198E+03 -0.10397583622E+03  0.46775297655E+03  0.00000000000E+00 0. -1.
        -13    1    3    3    0    0  0.16350547173E+03  0.24140130868E+03 -0.41697673304E+02  0.29452899191E+03  0.00000000000E+00 0.  1.
         22    1    1    2    0    0 -0.50034444628E+03 -0.54884460066E+03  0.68118740352E+01  0.74271216647E+03  0.00000000000E+00 0.  1.
<mgrwt>
<rscale>  0 0.14985743E+04</rscale>
<asrwt>0</asrwt>
<pdfrwt beam="1">  1        2 0.12645044E+00 0.14985743E+04</pdfrwt>
<pdfrwt beam="2">  1       -2 0.10508711E+00 0.14985743E+04</pdfrwt>
<totfact> 0.23553075E+01</totfact>
</mgrwt>
</event>
<event>
 6    1  0.5040916E-004  0.2640052E+04  0.7818608E-02  0.8354722E-01
         -2   -1    0    0    0  501 -0.00000000000E+00  0.00000000000E+00  0.89631379804E+03  0.89631379804E+03  0.00000000000E+00 0. -1.
          2   -1    0    0  501    0  0.00000000000E+00 -0.00000000000E+00 -0.19440385654E+04  0.19440385654E+04  0.00000000000E+00 0.  1.
         23    2    1    2    0    0 -0.30602054772E+03  0.17030758605E+03 -0.18920557337E+04  0.19262691997E+04  0.89358159579E+02 0.  0.
         11    1    3    3    0    0 -0.10565109573E+03  0.10463694147E+03 -0.68742330850E+03  0.70332200920E+03  0.00000000000E+00 0. -1.
        -11    1    3    3    0    0 -0.20036945199E+03  0.65670644578E+02 -0.12046324252E+04  0.12229471905E+04  0.00000000000E+00 0.  1.
         22    1    1    2    0    0  0.30602054772E+03 -0.17030758605E+03  0.84433096636E+03  0.91408316375E+03  0.00000000000E+00 0. -1.
<mgrwt>
<rscale>  0 0.26400520E+04</rscale>
<asrwt>0</asrwt>
<pdfrwt beam="1">  1        2 0.29908286E+00 0.26400520E+04</pdfrwt>
<pdfrwt beam="2">  1       -2 0.13789443E+00 0.26400520E+04</pdfrwt>
<totfact> 0.23641295E+00</totfact>
</mgrwt>
</event>
<event>
 6    1  0.8965878E-004  0.2865744E+04  0.7818608E-02  0.8283143E-01
          1   -1    0    0  501    0  0.00000000000E+00  0.00000000000E+00  0.19178157592E+04  0.19178157592E+04  0.00000000000E+00 0.  1.
         -1   -1    0    0    0  501 -0.00000000000E+00 -0.00000000000E+00 -0.10705527109E+04  0.10705527109E+04  0.00000000000E+00 0. -1.
         23    2    1    2    0    0 -0.12177752742E+04  0.29921572664E+02  0.12080166124E+04  0.17179295487E+04  0.90032657923E+02 0.  0.
         11    1    3    3    0    0 -0.68548435110E+03 -0.12609616834E+02  0.63162297868E+03  0.93219921972E+03  0.00000000000E+00 0.  1.
        -11    1    3    3    0    0 -0.53229092313E+03  0.42531189498E+02  0.57639363369E+03  0.78573032899E+03  0.00000000000E+00 0. -1.
         22    1    1    2    0    0  0.12177752742E+04 -0.29921572664E+02 -0.36075356412E+03  0.12704389214E+04  0.00000000000E+00 0. -1.
<mgrwt>
<rscale>  0 0.28657445E+04</rscale>
<asrwt>0</asrwt>
<pdfrwt beam="1">  1        1 0.29504858E+00 0.28657445E+04</pdfrwt>
<pdfrwt beam="2">  1       -1 0.16470042E+00 0.28657445E+04</pdfrwt>
<totfact> 0.78573747E-01</totfact>
</mgrwt>
</event>
<event>
 6    1  0.5040916E-004  0.1030712E+04  0.7818608E-02  0.9275487E-01
          2   -1    0    0  501    0  0.00000000000E+00  0.00000000000E+00  0.18425897179E+03  0.18425897179E+03  0.00000000000E+00 0.  1.
         -2   -1    0    0    0  501 -0.00000000000E+00 -0.00000000000E+00 -0.14414054771E+04  0.14414054771E+04  0.00000000000E+00 0. -1.
         23    2    1    2    0    0  0.79497711908E+02  0.35806297879E+03 -0.70500313267E+02  0.38362653961E+03  0.87578791664E+02 0.  0.
         13    1    3    3    0    0  0.58908437799E+02  0.21100755419E+03 -0.83767895907E+02  0.23454520322E+03  0.00000000000E+00 0. -1.
        -13    1    3    3    0    0  0.20589274109E+02  0.14705542460E+03  0.13267582640E+02  0.14908133640E+03  0.00000000000E+00 0.  1.
         22    1    1    2    0    0 -0.79497711908E+02 -0.35806297879E+03 -0.11866461921E+04  0.12420379093E+04  0.00000000000E+00 0. -1.
<mgrwt>
<rscale>  0 0.10307122E+04</rscale>
<asrwt>0</asrwt>
<pdfrwt beam="1">  1        2 0.28347535E-01 0.10307122E+04</pdfrwt>
<pdfrwt beam="2">  1       -2 0.22175468E+00 0.10307122E+04</pdfrwt>
<totfact> 0.18285482E+01</totfact>
</mgrwt>
</event>
<event>
 6    1  0.5040916E-004  0.5682422E+04  0.7818608E-02  0.7731075E-01
         -2   -1    0    0    0  501 -0.00000000000E+00  0.00000000000E+00  0.23018535188E+04  0.23018535188E+04  0.00000000000E+00 0. -1.
          2   -1    0    0  501    0  0.00000000000E+00 -0.00000000000E+00 -0.35069480654E+04  0.35069480654E+04  0.00000000000E+00 0.  1.
         23    2    1    2    0    0 -0.79142405863E+03  0.12579652402E+04  0.18716842252E+04  0.23918736955E+04  0.95022893385E+02 0.  0.
         11    1    3    3    0    0 -0.30029235254E+03  0.53473258145E+03  0.71520226726E+03  0.94214049576E+03  0.00000000000E+00 0.  1.
        -11    1    3    3    0    0 -0.49113170609E+03  0.72323265879E+03  0.11564819579E+04  0.14497331998E+04  0.00000000000E+00 0. -1.
         22    1    1    2    0    0  0.79142405863E+03 -0.12579652402E+04 -0.30767787718E+04  0.34169278887E+04  0.00000000000E+00 0.  1.
<mgrwt>
<rscale>  0 0.56824223E+04</rscale>
<asrwt>0</asrwt>
<pdfrwt beam="1">  1        2 0.53953047E+00 0.56824223E+04</pdfrwt>
<pdfrwt beam="2">  1       -2 0.35413131E+00 0.56824223E+04</pdfrwt>
<totfact> 0.81087019E-03</totfact>
</mgrwt>
</event>
<event>
 6    1  0.5040916E-004  0.8531060E+03  0.7818608E-02  0.9486178E-01
         -2   -1    0    0    0  501 -0.00000000000E+00  0.00000000000E+00  0.52957228817E+02  0.52957228817E+02  0.00000000000E+00 0. -1.
          2   -1    0    0  501    0  0.00000000000E+00 -0.00000000000E+00 -0.34357434421E+04  0.34357434421E+04  0.00000000000E+00 0.  1.
         23    2    1    2    0    0  0.68958222491E+02 -0.13472033957E+03 -0.33202468152E+04  0.33249448079E+04  0.91182541336E+02 0.  0.
         11    1    3    3    0    0  0.32693217649E+02 -0.33525812709E+02 -0.40190228323E+03  0.40462114609E+03  0.00000000000E+00 0. -1.
        -11    1    3    3    0    0  0.36265004841E+02 -0.10119452686E+03 -0.29183445319E+04  0.29203236618E+04  0.00000000000E+00 0.  1.
         22    1    1    2    0    0 -0.68958222491E+02  0.13472033957E+03 -0.62539398108E+02  0.16375586297E+03  0.00000000000E+00 0. -1.
<mgrwt>
<rscale>  0 0.85310598E+03</rscale>
<asrwt>0</asrwt>
<pdfrwt beam="1">  1        2 0.52857595E+00 0.85310598E+03</pdfrwt>
<pdfrwt beam="2">  1       -2 0.81472654E-02 0.85310598E+03</pdfrwt>
<totfact> 0.91164746E+01</totfact>
</mgrwt>
</event>
<event>
 6    1  0.5040916E-004  0.1648398E+04  0.7818608E-02  0.8791355E-01
          2   -1    0    0  501    0  0.00000000000E+00  0.00000000000E+00  0.10305453030E+04  0.10305453030E+04  0.00000000000E+00 0.  1.
         -2   -1    0    0    0  501 -0.00000000000E+00 -0.00000000000E+00 -0.65916928581E+03  0.65916928581E+03  0.00000000000E+00 0. -1.
         23    2    1    2    0    0 -0.13320135594E+03  0.57834022458E+03 -0.39621091782E+03  0.71945188242E+03  0.91694618878E+02 0.  0.
         11    1    3    3    0    0  0.76437902103E+01  0.13027709326E+03 -0.76241724276E+02  0.15114016368E+03  0.00000000000E+00 0. -1.
        -11    1    3    3    0    0 -0.14084514615E+03  0.44806313132E+03 -0.31996919355E+03  0.56831171874E+03  0.00000000000E+00 0.  1.
         22    1    1    2    0    0  0.13320135594E+03 -0.57834022458E+03  0.76758693498E+03  0.97026270636E+03  0.00000000000E+00 0.  1.
<mgrwt>
<rscale>  0 0.16483978E+04</rscale>
<asrwt>0</asrwt>
<pdfrwt beam="1">  1        2 0.15854543E+00 0.16483978E+04</pdfrwt>
<pdfrwt beam="2">  1       -2 0.10141066E+00 0.16483978E+04</pdfrwt>
<totfact> 0.18383535E+01</totfact>
</mgrwt>
</event>
<event>
 6    1  0.5040916E-004  0.3693257E+04  0.7818608E-02  0.8069458E-01
          2   -1    0    0  501    0  0.00000000000E+00  0.00000000000E+00  0.28677328728E+04  0.28677328728E+04  0.00000000000E+00 0.  1.
         -2   -1    0    0    0  501 -0.00000000000E+00 -0.00000000000E+00 -0.11891053883E+04  0.11891053883E+04  0.00000000000E+00 0. -1.
         23    2    1    2    0    0  0.10554935641E+04 -0.13458570057E+04  0.78614901388E+02  0.17147370657E+04  0.93515550196E+02 0.  0.
         13    1    3    3    0    0  0.92805782103E+03 -0.11828312962E+04  0.38427594527E+02  0.15039474308E+04  0.00000000000E+00 0.  1.
        -13    1    3    3    0    0  0.12743574302E+03 -0.16302570949E+03  0.40187306861E+02  0.21078963491E+03  0.00000000000E+00 0. -1.
         22    1    1    2    0    0 -0.10554935641E+04  0.13458570057E+04  0.16000125831E+04  0.23421011954E+04  0.00000000000E+00 0.  1.
<mgrwt>
<rscale>  0 0.36932569E+04</rscale>
<asrwt>0</asrwt>
<pdfrwt beam="1">  1        2 0.44118967E+00 0.36932569E+04</pdfrwt>
<pdfrwt beam="2">  1       -2 0.18293929E+00 0.36932569E+04</pdfrwt>
<totfact> 0.29424430E-01</totfact>
</mgrwt>
</event>
<event>
 6    1  0.6831132E-004  0.4484115E+04  0.7818608E-02  0.7913424E-01
         -1   -1    0    0    0  501 -0.00000000000E+00  0.00000000000E+00  0.21754021446E+04  0.21754021446E+04  0.00000000000E+00 0. -1.
          1   -1    0    0  501    0  0.00000000000E+00 -0.00000000000E+00 -0.23107554404E+04  0.23107554404E+04  0.00000000000E+00 0.  1.
         23    2    1    2    0    0 -0.10816171792E+04  0.72022082125E+03 -0.18943100220E+04  0.22992550911E+04  0.97722878398E+02 0.  0.
         11    1    3    3    0    0 -0.40066845139E+03  0.21529010123E+03 -0.62959214291E+03  0.77670541523E+03  0.00000000000E+00 0.  1.
        -11    1    3    3    0    0 -0.68094872780E+03  0.50493072002E+03 -0.12647178790E+04  0.15225496759E+04  0.00000000000E+00 0. -1.
         22    1    1    2    0    0  0.10816171792E+04 -0.72022082125E+03  0.17589567262E+04  0.21869024940E+04  0.00000000000E+00 0. -1.
<mgrwt>
<rscale>  0 0.44841152E+04</rscale>
<asrwt>0</asrwt>
<pdfrwt beam="1">  1        1 0.35550084E+00 0.44841152E+04</pdfrwt>
<pdfrwt beam="2">  1       -1 0.33467725E+00 0.44841152E+04</pdfrwt>
<totfact> 0.27003802E-02</totfact>
</mgrwt>
</event>
<event>
 6    1  0.5040916E-004  0.2925642E+04  0.7818608E-02  0.8265289E-01
         -2   -1    0    0    0  501 -0.00000000000E+00  0.00000000000E+00  0.21048911903E+04  0.21048911903E+04  0.00000000000E+00 0. -1.
          2   -1    0    0  501    0  0.00000000000E+00 -0.00000000000E+00 -0.10166063618E+04  0.10166063618E+04  0.00000000000E+00 0.  1.
         23    2    1    2    0    0 -0.15993677681E+03  0.53271529132E+03 -0.89719349067E+03  0.10595835116E+04  0.91628075462E+02 0.  0.
         11    1    3    3    0    0 -0.66414180500E+02  0.27322925383E+03 -0.37141884647E+03  0.46585086458E+03  0.00000000000E+00 0. -1.
        -11    1    3    3    0    0 -0.93522596307E+02  0.25948603749E+03 -0.52577464420E+03  0.59373264704E+03  0.00000000000E+00 0.  1.
         22    1    1    2    0    0  0.15993677681E+03 -0.53271529132E+03  0.19854783192E+04  0.20619140404E+04  0.00000000000E+00 0. -1.
<mgrwt>
<rscale>  0 0.29256423E+04</rscale>
<asrwt>0</asrwt>
<pdfrwt beam="1">  1        2 0.15640098E+00 0.29256423E+04</pdfrwt>
<pdfrwt beam="2">  1       -2 0.32382941E+00 0.29256423E+04</pdfrwt>
<totfact> 0.47989082E-01</totfact>
</mgrwt>
</event>
<event>
 6    1  0.5040916E-004  0.3524416E+04  0.7818608E-02  0.8108028E-01
          2   -1    0    0  501    0  0.00000000000E+00  0.00000000000E+00  0.79468689565E+03  0.79468689565E+03  0.00000000000E+00 0.  1.
         -2   -1    0    0    0  501 -0.00000000000E+00 -0.00000000000E+00 -0.39076742373E+04  0.39076742373E+04  0.00000000000E+00 0. -1.
         23    2    1    2    0    0  0.13046699307E+04  0.75972209924E+03 -0.34710086839E+03  0.15512550923E+04  0.81068195686E+02 0.  0.
         11    1    3    3    0    0  0.81665898454E+03  0.45340592161E+03 -0.24990344524E+03  0.96693358548E+03  0.00000000000E+00 0. -1.
        -11    1    3    3    0    0  0.48801094620E+03  0.30631617763E+03 -0.97197423149E+02  0.58432150684E+03  0.00000000000E+00 0.  1.
         22    1    1    2    0    0 -0.13046699307E+04 -0.75972209924E+03 -0.27658864732E+04  0.31511060406E+04  0.00000000000E+00 0. -1.
<mgrwt>
<rscale>  0 0.35244163E+04</rscale>
<asrwt>0</asrwt>
<pdfrwt beam="1">  1        2 0.12225952E+00 0.35244163E+04</pdfrwt>
<pdfrwt beam="2">  1       -2 0.60118066E+00 0.35244163E+04</pdfrwt>
<totfact> 0.14216077E-02</totfact>
</mgrwt>
</event>
<event>
 6    1  0.5040916E-004  0.3070687E+04  0.7818608E-02  0.8223829E-01
          4   -1    0    0  501    0  0.00000000000E+00  0.00000000000E+00  0.77034851956E+03  0.77034851956E+03  0.00000000000E+00 0.  1.
         -4   -1    0    0    0  501 -0.00000000000E+00 -0.00000000000E+00 -0.30600163018E+04  0.30600163018E+04  0.00000000000E+00 0. -1.
         23    2    1    2    0    0  0.95230235570E+03  0.36823272585E+03 -0.25740694888E+04  0.27704782955E+04  0.85094859953E+02 0.  0.
         11    1    3    3    0    0  0.50552704127E+03  0.15663572814E+03 -0.12706041105E+04  0.13764182309E+04  0.00000000000E+00 0. -1.
        -11    1    3    3    0    0  0.44677531443E+03  0.21159699770E+03 -0.13034653784E+04  0.13940600646E+04  0.00000000000E+00 0.  1.
         22    1    1    2    0    0 -0.95230235570E+03 -0.36823272585E+03  0.28440170659E+03  0.10598865259E+04  0.00000000000E+00 0.  1.
<mgrwt>
<rscale>  0 0.30706866E+04</rscale>
<asrwt>0</asrwt>
<pdfrwt beam="1">  1        4 0.11851515E+00 0.30706866E+04</pdfrwt>
<pdfrwt beam="2">  1       -4 0.47077175E+00 0.30706866E+04</pdfrwt>
<totfact> 0.18918963E-03</totfact>
</mgrwt>
</event>
<event>
 6    1  0.5040916E-004  0.1726208E+04  0.7818608E-02  0.8746557E-01
          2   -1    0    0  501    0  0.00000000000E+00  0.00000000000E+00  0.15212382608E+04  0.15212382608E+04  0.00000000000E+00 0.  1.
         -2   -1    0    0    0  501 -0.00000000000E+00 -0.00000000000E+00 -0.48969858448E+03  0.48969858448E+03  0.00000000000E+00 0. -1.
         23    2    1    2    0    0  0.75973472087E+03  0.20016180986E+03  0.92659557258E+03  0.12182989323E+04  0.91713341424E+02 0.  0.
         11    1    3    3    0    0  0.22304361059E+03  0.73522168695E+02  0.21810872478E+03  0.32050799887E+03  0.00000000000E+00 0. -1.
        -11    1    3    3    0    0  0.53669111028E+03  0.12663964116E+03  0.70848684780E+03  0.89779093339E+03  0.00000000000E+00 0.  1.
         22    1    1    2    0    0 -0.75973472087E+03 -0.20016180986E+03  0.10494410372E+03  0.79263791300E+03  0.00000000000E+00 0. -1.
<mgrwt>
<rscale>  0 0.17262077E+04</rscale>
<asrwt>0</asrwt>
<pdfrwt beam="1">  1        2 0.23403665E+00 0.17262077E+04</pdfrwt>
<pdfrwt beam="2">  1       -2 0.75338244E-01 0.17262077E+04</pdfrwt>
<totfact> 0.18536812E+01</totfact>
</mgrwt>
</event>
<event>
 6    1  0.5040916E-004  0.2333513E+04  0.7818608E-02  0.8464823E-01
          2   -1    0    0  501    0  0.00000000000E+00  0.00000000000E+00  0.10193871891E+04  0.10193871891E+04  0.00000000000E+00 0.  1.
         -2   -1    0    0    0  501 -0.00000000000E+00 -0.00000000000E+00 -0.13354310569E+04  0.13354310569E+04  0.00000000000E+00 0. -1.
         23    2    1    2    0    0 -0.82655686176E+03  0.31012653209E+03  0.60881556082E+03  0.10762488602E+04  0.90997309582E+02 0.  0.
         11    1    3    3    0    0 -0.37796678468E+03  0.15011865643E+03  0.33485349620E+03  0.52680296624E+03  0.00000000000E+00 0. -1.
        -11    1    3    3    0    0 -0.44859007709E+03  0.16000787566E+03  0.27396206462E+03  0.54944589396E+03  0.00000000000E+00 0.  1.
         22    1    1    2    0    0  0.82655686176E+03 -0.31012653209E+03 -0.92485942866E+03  0.12785693858E+04  0.00000000000E+00 0. -1.
<mgrwt>
<rscale>  0 0.23335135E+04</rscale>
<asrwt>0</asrwt>
<pdfrwt beam="1">  1        2 0.15682880E+00 0.23335135E+04</pdfrwt>
<pdfrwt beam="2">  1       -2 0.20545093E+00 0.23335135E+04</pdfrwt>
<totfact> 0.27112394E+00</totfact>
</mgrwt>
</event>
<event>
 6    1  0.5040916E-004  0.3138610E+04  0.7818608E-02  0.8205221E-01
         -2   -1    0    0    0  501 -0.00000000000E+00  0.00000000000E+00  0.75792783496E+03  0.75792783496E+03  0.00000000000E+00 0. -1.
          2   -1    0    0  501    0  0.00000000000E+00 -0.00000000000E+00 -0.32492780661E+04  0.32492780661E+04  0.00000000000E+00 0.  1.
         23    2    1    2    0    0  0.94108667778E+03  0.11770229279E+04 -0.17997099119E+04  0.23490764010E+04  0.90427111769E+02 0.  0.
         11    1    3    3    0    0  0.42460526790E+03  0.51972569472E+03 -0.87084749844E+03  0.10994452223E+04  0.00000000000E+00 0. -1.
        -11    1    3    3    0    0  0.51648140988E+03  0.65729723321E+03 -0.92886241347E+03  0.12496311787E+04  0.00000000000E+00 0.  1.
         22    1    1    2    0    0 -0.94108667778E+03 -0.11770229279E+04 -0.69164031926E+03  0.16581295001E+04  0.00000000000E+00 0.  1.
<mgrwt>
<rscale>  0 0.31386101E+04</rscale>
<asrwt>0</asrwt>
<pdfrwt beam="1">  1        2 0.49988894E+00 0.31386101E+04</pdfrwt>
<pdfrwt beam="2">  1       -2 0.11660428E+00 0.31386101E+04</pdfrwt>
<totfact> 0.58010610E-01</totfact>
</mgrwt>
</event>
<event>
 6    1  0.5040916E-004  0.3974659E+04  0.7818608E-02  0.8009678E-01
         -2   -1    0    0    0  501 -0.00000000000E+00  0.00000000000E+00  0.26301262881E+04  0.26301262881E+04  0.00000000000E+00 0. -1.
          2   -1    0    0  501    0  0.00000000000E+00 -0.00000000000E+00 -0.15016305859E+04  0.15016305859E+04  0.00000000000E+00 0.  1.
         23    2    1    2    0    0  0.13669464081E+04 -0.97150212194E+03 -0.54173355231E+03  0.17648972207E+04  0.95016327694E+02 0.  0.
         13    1    3    3    0    0  0.99353900492E+03 -0.66590804987E+03 -0.41510085322E+03  0.12660418648E+04  0.00000000000E+00 0. -1.
        -13    1    3    3    0    0  0.37340740318E+03 -0.30559407207E+03 -0.12663269909E+03  0.49885535590E+03  0.00000000000E+00 0.  1.
         22    1    1    2    0    0 -0.13669464081E+04  0.97150212194E+03  0.16702292545E+04  0.23668596532E+04  0.00000000000E+00 0. -1.
<mgrwt>
<rscale>  0 0.39746588E+04</rscale>
<asrwt>0</asrwt>
<pdfrwt beam="1">  1        2 0.23102009E+00 0.39746588E+04</pdfrwt>
<pdfrwt beam="2">  1       -2 0.40463481E+00 0.39746588E+04</pdfrwt>
<totfact> 0.69267786E-02</totfact>
</mgrwt>
</event>
<event>
 6    1  0.5040916E-004  0.1973238E+04  0.7818608E-02  0.8619236E-01
          2   -1    0    0  501    0  0.00000000000E+00  0.00000000000E+00  0.10337257473E+04  0.10337257473E+04  0.00000000000E+00 0.  1.
         -2   -1    0    0    0  501 -0.00000000000E+00 -0.00000000000E+00 -0.94165867290E+03  0.94165867290E+03  0.00000000000E+00 0. -1.
         23    2    1    2    0    0 -0.43994954987E+03 -0.88057019927E+03  0.37668961105E+02  0.98952508087E+03  0.93709405959E+02 0.  0.
         11    1    3    3    0    0 -0.43825416391E+03 -0.83474833187E+03  0.32231681468E+02  0.94335060875E+03  0.00000000000E+00 0.  1.
        -11    1    3    3    0    0 -0.16953859664E+01 -0.45821867404E+02  0.54372796363E+01  0.46174472123E+02  0.00000000000E+00 0. -1.
         22    1    1    2    0    0  0.43994954987E+03  0.88057019927E+03  0.54398113337E+02  0.98585933936E+03  0.00000000000E+00 0.  1.
<mgrwt>
<rscale>  0 0.19732378E+04</rscale>
<asrwt>0</asrwt>
<pdfrwt beam="1">  1        2 0.15903473E+00 0.19732378E+04</pdfrwt>
<pdfrwt beam="2">  1       -2 0.14487057E+00 0.19732378E+04</pdfrwt>
<totfact> 0.73296864E+00</totfact>
</mgrwt>
</event>
<event>
 6    1  0.5040916E-004  0.1817133E+04  0.7818608E-02  0.8697241E-01
         -2   -1    0    0    0  501 -0.00000000000E+00  0.00000000000E+00  0.39982603876E+03  0.39982603876E+03  0.00000000000E+00 0. -1.
          2   -1    0    0  501    0  0.00000000000E+00 -0.00000000000E+00 -0.20646303483E+04  0.20646303483E+04  0.00000000000E+00 0.  1.
         23    2    1    2    0    0 -0.11657197277E+03 -0.83627613650E+03 -0.38713351608E+03  0.93298994676E+03  0.87470453029E+02 0.  0.
         11    1    3    3    0    0 -0.16631845753E+02 -0.21925765020E+03 -0.62190667357E+02  0.22851305120E+03  0.00000000000E+00 0. -1.
        -11    1    3    3    0    0 -0.99940127019E+02 -0.61701848630E+03 -0.32494284873E+03  0.70447689555E+03  0.00000000000E+00 0.  1.
         22    1    1    2    0    0  0.11657197277E+03  0.83627613650E+03 -0.12776707934E+04  0.15314664403E+04  0.00000000000E+00 0.  1.
<mgrwt>
<rscale>  0 0.18171329E+04</rscale>
<asrwt>0</asrwt>
<pdfrwt beam="1">  1        2 0.31763544E+00 0.18171329E+04</pdfrwt>
<pdfrwt beam="2">  1       -2 0.61511698E-01 0.18171329E+04</pdfrwt>
<totfact> 0.14243486E+01</totfact>
</mgrwt>
</event>
<event>
 6    1  0.5040916E-004  0.1403264E+04  0.7818608E-02  0.8951459E-01
          2   -1    0    0  501    0  0.00000000000E+00  0.00000000000E+00  0.87862676078E+03  0.87862676078E+03  0.00000000000E+00 0.  1.
         -2   -1    0    0    0  501 -0.00000000000E+00 -0.00000000000E+00 -0.56029191989E+03  0.56029191989E+03  0.00000000000E+00 0. -1.
         23    2    1    2    0    0  0.19077456978E+03 -0.56523817618E+03  0.53285318684E+03  0.80495712581E+03  0.90190483815E+02 0.  0.
         11    1    3    3    0    0  0.41801639356E+02 -0.26259024468E+03  0.22688321599E+03  0.34953827737E+03  0.00000000000E+00 0.  1.
        -11    1    3    3    0    0  0.14897293042E+03 -0.30264793151E+03  0.30596997086E+03  0.45541884843E+03  0.00000000000E+00 0. -1.
         22    1    1    2    0    0 -0.19077456978E+03  0.56523817618E+03 -0.21451834595E+03  0.63396155486E+03  0.00000000000E+00 0. -1.
<mgrwt>
<rscale>  0 0.14032640E+04</rscale>
<asrwt>0</asrwt>
<pdfrwt beam="1">  1        2 0.13517335E+00 0.14032640E+04</pdfrwt>
<pdfrwt beam="2">  1       -2 0.86198757E-01 0.14032640E+04</pdfrwt>
<totfact> 0.34444404E+01</totfact>
</mgrwt>
</event>
<event>
 6    1  0.5040916E-004  0.2597329E+04  0.7818608E-02  0.8369109E-01
          2   -1    0    0  501    0  0.00000000000E+00  0.00000000000E+00  0.38435846215E+04  0.38435846215E+04  0.00000000000E+00 0.  1.
         -2   -1    0    0    0  501 -0.00000000000E+00 -0.00000000000E+00 -0.43879080431E+03  0.43879080431E+03  0.00000000000E+00 0. -1.
         23    2    1    2    0    0  0.15427166219E+03  0.32059948113E+02  0.38272067867E+04  0.38315314364E+04  0.91070161700E+02 0.  0.
         11    1    3    3    0    0  0.86958553475E+02  0.60593791846E+02  0.19191108841E+04  0.19220353751E+04  0.00000000000E+00 0.  1.
        -11    1    3    3    0    0  0.67313108717E+02 -0.28533843733E+02  0.19080959026E+04  0.19094960613E+04  0.00000000000E+00 0. -1.
         22    1    1    2    0    0 -0.15427166219E+03 -0.32059948113E+02 -0.42241296946E+03  0.45084398942E+03  0.00000000000E+00 0. -1.
<mgrwt>
<rscale>  0 0.25973291E+04</rscale>
<asrwt>0</asrwt>
<pdfrwt beam="1">  1        2 0.59132069E+00 0.25973291E+04</pdfrwt>
<pdfrwt beam="2">  1       -2 0.67506280E-01 0.25973291E+04</pdfrwt>
<totfact> 0.81093036E-01</totfact>
</mgrwt>
</event>
<event>
 6    1  0.5040916E-004  0.2578025E+04  0.7818608E-02  0.8375704E-01
          2   -1    0    0  501    0  0.00000000000E+00  0.00000000000E+00  0.17465089852E+04  0.17465089852E+04  0.00000000000E+00 0.  1.
         -2   -1    0    0    0  501 -0.00000000000E+00 -0.00000000000E+00 -0.95135654837E+03  0.95135654837E+03  0.00000000000E+00 0. -1.
         23    2    1    2    0    0 -0.57439145644E+03  0.48964335541E+03  0.14899291779E+04  0.16720044901E+04  0.77678174603E+02 0.  0.
         11    1    3    3    0    0 -0.43213499625E+03  0.40734122380E+03  0.11925641398E+04  0.13322450056E+04  0.00000000000E+00 0. -1.
        -11    1    3    3    0    0 -0.14225646019E+03  0.82302131612E+02  0.29736503816E+03  0.33975948442E+03  0.00000000000E+00 0.  1.
         22    1    1    2    0    0  0.57439145644E+03 -0.48964335541E+03 -0.69477674106E+03  0.10258610435E+04  0.00000000000E+00 0. -1.
<mgrwt>
<rscale>  0 0.25780246E+04</rscale>
<asrwt>0</asrwt>
<pdfrwt beam="1">  1        2 0.26869369E+00 0.25780246E+04</pdfrwt>
<pdfrwt beam="2">  1       -2 0.14636255E+00 0.25780246E+04</pdfrwt>
<totfact> 0.26181853E+00</totfact>
</mgrwt>
</event>
<event>
 6    1  0.5040916E-004  0.1236763E+04  0.7818608E-02  0.9081273E-01
         -2   -1    0    0    0  501 -0.00000000000E+00  0.00000000000E+00  0.11481256654E+04  0.11481256654E+04  0.00000000000E+00 0. -1.
          2   -1    0    0  501    0  0.00000000000E+00 -0.00000000000E+00 -0.33306064173E+03  0.33306064173E+03  0.00000000000E+00 0.  1.
         23    2    1    2    0    0 -0.44781060383E+03 -0.35685286481E+03  0.67698422202E+03  0.89216626348E+03  0.98867086607E+02 0.  0.
         11    1    3    3    0    0 -0.19094566951E+03 -0.11959935519E+03  0.32978458632E+03  0.39940221311E+03  0.00000000000E+00 0.  1.
        -11    1    3    3    0    0 -0.25686493432E+03 -0.23725350962E+03  0.34719963570E+03  0.49276405037E+03  0.00000000000E+00 0. -1.
         22    1    1    2    0    0  0.44781060383E+03  0.35685286481E+03  0.13808080165E+03  0.58902004364E+03  0.00000000000E+00 0. -1.
<mgrwt>
<rscale>  0 0.12367627E+04</rscale>
<asrwt>0</asrwt>
<pdfrwt beam="1">  1        2 0.51240099E-01 0.12367627E+04</pdfrwt>
<pdfrwt beam="2">  1       -2 0.17663472E+00 0.12367627E+04</pdfrwt>
<totfact> 0.18380235E+01</totfact>
</mgrwt>
</event>
<event>
 6    1  0.5040916E-004  0.1039178E+04  0.7818608E-02  0.9266589E-01
          2   -1    0    0  501    0  0.00000000000E+00  0.00000000000E+00  0.52469416147E+03  0.52469416147E+03  0.00000000000E+00 0.  1.
         -2   -1    0    0    0  501 -0.00000000000E+00 -0.00000000000E+00 -0.51453334902E+03  0.51453334902E+03  0.00000000000E+00 0. -1.
         23    2    1    2    0    0  0.50756834419E+03 -0.63725561008E+02  0.67875249165E+02  0.52442897965E+03  0.93445888582E+02 0.  0.
         13    1    3    3    0    0  0.33870969109E+03 -0.70143665670E+02  0.10783837057E+02  0.34606456018E+03  0.00000000000E+00 0.  1.
        -13    1    3    3    0    0  0.16885865311E+03  0.64181046626E+01  0.57091412107E+02  0.17836441947E+03  0.00000000000E+00 0. -1.
         22    1    1    2    0    0 -0.50756834419E+03  0.63725561008E+02 -0.57714436709E+02  0.51479853084E+03  0.00000000000E+00 0. -1.
<mgrwt>
<rscale>  0 0.10391778E+04</rscale>
<asrwt>0</asrwt>
<pdfrwt beam="1">  1        2 0.80722179E-01 0.10391778E+04</pdfrwt>
<pdfrwt beam="2">  1       -2 0.79158977E-01 0.10391778E+04</pdfrwt>
<totfact> 0.82140826E+01</totfact>
</mgrwt>
</event>
<event>
 6    1  0.5040916E-004  0.1014116E+04  0.7818608E-02  0.9293196E-01
         -2   -1    0    0    0  501 -0.00000000000E+00  0.00000000000E+00  0.18039186254E+03  0.18039186254E+03  0.00000000000E+00 0. -1.
          2   -1    0    0  501    0  0.00000000000E+00 -0.00000000000E+00 -0.14252750268E+04  0.14252750268E+04  0.00000000000E+00 0.  1.
         23    2    1    2    0    0 -0.41322619298E+03 -0.75509654167E+02 -0.18754772729E+03  0.46794292428E+03  0.85667006072E+02 0.  0.
         13    1    3    3    0    0 -0.16193778644E+03 -0.72348839638E+02 -0.74376652812E+02  0.19232807324E+03  0.00000000000E+00 0.  1.
        -13    1    3    3    0    0 -0.25128840654E+03 -0.31608145290E+01 -0.11317107448E+03  0.27561485104E+03  0.00000000000E+00 0. -1.
         22    1    1    2    0    0  0.41322619298E+03  0.75509654167E+02 -0.10573354370E+04  0.11377239651E+04  0.00000000000E+00 0.  1.
<mgrwt>
<rscale>  0 0.10141164E+04</rscale>
<asrwt>0</asrwt>
<pdfrwt beam="1">  1        2 0.21927307E+00 0.10141164E+04</pdfrwt>
<pdfrwt beam="2">  1       -2 0.27752595E-01 0.10141164E+04</pdfrwt>
<totfact> 0.16528543E+02</totfact>
</mgrwt>
</event>
<event>
 6    1  0.5040916E-004  0.1877454E+04  0.7818608E-02  0.8666161E-01
          2   -1    0    0  501    0  0.00000000000E+00  0.00000000000E+00  0.38040714170E+04  0.38040714170E+04  0.00000000000E+00 0.  1.
         -2   -1    0    0    0  501 -0.00000000000E+00 -0.00000000000E+00 -0.23164875662E+03  0.23164875662E+03  0.00000000000E+00 0. -1.
         23    2    1    2    0    0  0.85776575063E+03  0.82315823691E+02  0.10021767487E+04  0.13248712246E+04  0.91583559741E+02 0.  0.
         11    1    3    3    0    0  0.31153590060E+03 -0.11353054323E+02  0.38492067084E+03  0.49532558186E+03  0.00000000000E+00 0.  1.
        -11    1    3    3    0    0  0.54622985003E+03  0.93668878013E+02  0.61725607789E+03  0.82954564279E+03  0.00000000000E+00 0. -1.
         22    1    1    2    0    0 -0.85776575063E+03 -0.82315823691E+02  0.25702459117E+04  0.27108489490E+04  0.00000000000E+00 0.  1.
<mgrwt>
<rscale>  0 0.18774540E+04</rscale>
<asrwt>0</asrwt>
<pdfrwt beam="1">  1        2 0.58524171E+00 0.18774540E+04</pdfrwt>
<pdfrwt beam="2">  1       -2 0.35638273E-01 0.18774540E+04</pdfrwt>
<totfact> 0.34209369E+00</totfact>
</mgrwt>
</event>
<event>
 6    1  0.5040916E-004  0.2807556E+04  0.7818608E-02  0.8300926E-01
          2   -1    0    0  501    0  0.00000000000E+00  0.00000000000E+00  0.11149923268E+04  0.11149923268E+04  0.00000000000E+00 0.  1.
         -2   -1    0    0    0  501 -0.00000000000E+00 -0.00000000000E+00 -0.17673603494E+04  0.17673603494E+04  0.00000000000E+00 0. -1.
         23    2    1    2    0    0  0.90457552023E+03  0.27243702616E+03 -0.13904484548E+04  0.16835025899E+04  0.91407109892E+02 0.  0.
         13    1    3    3    0    0  0.55088161618E+03  0.14537864975E+03 -0.90801422418E+03  0.10719586457E+04  0.00000000000E+00 0. -1.
        -13    1    3    3    0    0  0.35369390405E+03  0.12705837641E+03 -0.48243423059E+03  0.61154394415E+03  0.00000000000E+00 0.  1.
         22    1    1    2    0    0 -0.90457552023E+03 -0.27243702616E+03  0.73808043215E+03  0.11988500863E+04  0.00000000000E+00 0.  1.
<mgrwt>
<rscale>  0 0.28075564E+04</rscale>
<asrwt>0</asrwt>
<pdfrwt beam="1">  1        2 0.17153728E+00 0.28075564E+04</pdfrwt>
<pdfrwt beam="2">  1       -2 0.27190159E+00 0.28075564E+04</pdfrwt>
<totfact> 0.87516073E-01</totfact>
</mgrwt>
</event>
<event>
 6    1  0.5040916E-004  0.2309449E+04  0.7818608E-02  0.8474205E-01
         -2   -1    0    0    0  501 -0.00000000000E+00  0.00000000000E+00  0.11403929086E+04  0.11403929086E+04  0.00000000000E+00 0. -1.
          2   -1    0    0  501    0  0.00000000000E+00 -0.00000000000E+00 -0.11692366932E+04  0.11692366932E+04  0.00000000000E+00 0.  1.
         23    2    1    2    0    0  0.11191875187E+04  0.18067023663E+02 -0.28953585106E+03  0.11603396153E+04  0.98233876231E+02 0.  0.
         13    1    3    3    0    0  0.33567355970E+03 -0.14157361087E+02 -0.45318344942E+02  0.33901463382E+03  0.00000000000E+00 0. -1.
        -13    1    3    3    0    0  0.78351395903E+03  0.32224384750E+02 -0.24421750612E+03  0.82132498151E+03  0.00000000000E+00 0.  1.
         22    1    1    2    0    0 -0.11191875187E+04 -0.18067023663E+02  0.26069206650E+03  0.11492899864E+04  0.00000000000E+00 0. -1.
<mgrwt>
<rscale>  0 0.23094495E+04</rscale>
<asrwt>0</asrwt>
<pdfrwt beam="1">  1        2 0.17988257E+00 0.23094495E+04</pdfrwt>
<pdfrwt beam="2">  1       -2 0.17544506E+00 0.23094495E+04</pdfrwt>
<totfact> 0.34927467E+00</totfact>
</mgrwt>
</event>
<event>
 6    1  0.5040916E-004  0.2490725E+04  0.7818608E-02  0.8406297E-01
          2   -1    0    0  501    0  0.00000000000E+00  0.00000000000E+00  0.17757879368E+04  0.17757879368E+04  0.00000000000E+00 0.  1.
         -2   -1    0    0    0  501 -0.00000000000E+00 -0.00000000000E+00 -0.87337419435E+03  0.87337419435E+03  0.00000000000E+00 0. -1.
         23    2    1    2    0    0  0.11389665939E+04  0.49918627781E+03  0.43264460700E+03  0.13198333973E+04  0.91361911548E+02 0.  0.
         13    1    3    3    0    0  0.85807593144E+03  0.34505802318E+03  0.35075948027E+03  0.98913677339E+03  0.00000000000E+00 0. -1.
        -13    1    3    3    0    0  0.28089066244E+03  0.15412825463E+03  0.81885126723E+02  0.33069662396E+03  0.00000000000E+00 0.  1.
         22    1    1    2    0    0 -0.11389665939E+04 -0.49918627781E+03  0.46976913548E+03  0.13293287338E+04  0.00000000000E+00 0.  1.
<mgrwt>
<rscale>  0 0.24907247E+04</rscale>
<asrwt>0</asrwt>
<pdfrwt beam="1">  1        2 0.27319814E+00 0.24907247E+04</pdfrwt>
<pdfrwt beam="2">  1       -2 0.13436526E+00 0.24907247E+04</pdfrwt>
<totfact> 0.31723481E+00</totfact>
</mgrwt>
</event>
<event>
 6    1  0.5040916E-004  0.3331417E+04  0.7818608E-02  0.8154947E-01
         -1   -1    0    0    0  501 -0.00000000000E+00  0.00000000000E+00  0.13884451233E+04  0.13884451233E+04  0.00000000000E+00 0. -1.
          1   -1    0    0  501    0  0.00000000000E+00 -0.00000000000E+00 -0.19983390083E+04  0.19983390083E+04  0.00000000000E+00 0.  1.
         23    2    1    2    0    0  0.13729602611E+04  0.86847494058E+03  0.63118070770E+02  0.16283149981E+04  0.90317447462E+02 0.  0.
         11    1    3    3    0    0  0.78282783359E+03  0.48223494939E+03  0.79147108714E+02  0.92284030486E+03  0.00000000000E+00 0.  1.
        -11    1    3    3    0    0  0.59013242752E+03  0.38623999118E+03 -0.16029037944E+02  0.70547469328E+03  0.00000000000E+00 0. -1.
         22    1    1    2    0    0 -0.13729602611E+04 -0.86847494058E+03 -0.67301195578E+03  0.17584691335E+04  0.00000000000E+00 0.  1.
<mgrwt>
<rscale>  0 0.33314165E+04</rscale>
<asrwt>0</asrwt>
<pdfrwt beam="1">  1        1 0.30743677E+00 0.33314165E+04</pdfrwt>
<pdfrwt beam="2">  1       -1 0.21360694E+00 0.33314165E+04</pdfrwt>
<totfact> 0.30043579E-01</totfact>
</mgrwt>
</event>
<event>
 6    1  0.5040916E-004  0.1202469E+04  0.7818608E-02  0.9110698E-01
         -2   -1    0    0    0  501 -0.00000000000E+00  0.00000000000E+00  0.72888506222E+03  0.72888506222E+03  0.00000000000E+00 0. -1.
          2   -1    0    0  501    0  0.00000000000E+00 -0.00000000000E+00 -0.49593942730E+03  0.49593942730E+03  0.00000000000E+00 0.  1.
         23    2    1    2    0    0 -0.40060044030E+03  0.30927246060E+03 -0.20676473687E+03  0.55439523992E+03  0.92044869413E+02 0.  0.
         13    1    3    3    0    0 -0.13537786580E+03  0.15164570119E+03 -0.55165250445E+02  0.21063425670E+03  0.00000000000E+00 0. -1.
        -13    1    3    3    0    0 -0.26522257449E+03  0.15762675941E+03 -0.15159948643E+03  0.34376098323E+03  0.00000000000E+00 0.  1.
         22    1    1    2    0    0  0.40060044030E+03 -0.30927246060E+03  0.43971037180E+03  0.67042924960E+03  0.00000000000E+00 0. -1.
<mgrwt>
<rscale>  0 0.12024689E+04</rscale>
<asrwt>0</asrwt>
<pdfrwt beam="1">  1        2 0.76298373E-01 0.12024689E+04</pdfrwt>
<pdfrwt beam="2">  1       -2 0.11213616E+00 0.12024689E+04</pdfrwt>
<totfact> 0.38455220E+01</totfact>
</mgrwt>
</event>
<event>
 6    1  0.5040916E-004  0.5444489E+04  0.7818608E-02  0.7763374E-01
         -2   -1    0    0    0  501 -0.00000000000E+00  0.00000000000E+00  0.23903542974E+04  0.23903542974E+04  0.00000000000E+00 0. -1.
          2   -1    0    0  501    0  0.00000000000E+00 -0.00000000000E+00 -0.31002163999E+04  0.31002163999E+04  0.00000000000E+00 0.  1.
         23    2    1    2    0    0  0.55993368943E+03 -0.15219325126E+04 -0.25590606921E+04  0.30310301441E+04  0.92454309609E+02 0.  0.
         13    1    3    3    0    0  0.29589312185E+03 -0.69361236009E+03 -0.11405703328E+04  0.13673154463E+04  0.00000000000E+00 0.  1.
        -13    1    3    3    0    0  0.26404056758E+03 -0.82832015250E+03 -0.14184903592E+04  0.16637146978E+04  0.00000000000E+00 0. -1.
         22    1    1    2    0    0 -0.55993368943E+03  0.15219325126E+04  0.18491985895E+04  0.24595405532E+04  0.00000000000E+00 0. -1.
<mgrwt>
<rscale>  0 0.54444892E+04</rscale>
<asrwt>0</asrwt>
<pdfrwt beam="1">  1        2 0.47695637E+00 0.54444892E+04</pdfrwt>
<pdfrwt beam="2">  1       -2 0.36774681E+00 0.54444892E+04</pdfrwt>
<totfact> 0.12685787E-02</totfact>
</mgrwt>
</event>
<event>
 6    1  0.5040916E-004  0.3281449E+04  0.7818608E-02  0.8167632E-01
          2   -1    0    0  501    0  0.00000000000E+00  0.00000000000E+00  0.26883192805E+04  0.26883192805E+04  0.00000000000E+00 0.  1.
         -2   -1    0    0    0  501 -0.00000000000E+00 -0.00000000000E+00 -0.10013604445E+04  0.10013604445E+04  0.00000000000E+00 0. -1.
         23    2    1    2    0    0 -0.15672130220E+04 -0.47784824470E+03  0.90325320708E+03  0.18734500825E+04  0.97227848133E+02 0.  0.
         13    1    3    3    0    0 -0.13587571148E+04 -0.43411923786E+03  0.75470409856E+03  0.16137715718E+04  0.00000000000E+00 0. -1.
        -13    1    3    3    0    0 -0.20845590717E+03 -0.43729006838E+02  0.14854910853E+03  0.25967851069E+03  0.00000000000E+00 0.  1.
         22    1    1    2    0    0  0.15672130220E+04  0.47784824470E+03  0.78370562892E+03  0.18162296424E+04  0.00000000000E+00 0.  1.
<mgrwt>
<rscale>  0 0.32814488E+04</rscale>
<asrwt>0</asrwt>
<pdfrwt beam="1">  1        2 0.41358758E+00 0.32814488E+04</pdfrwt>
<pdfrwt beam="2">  1       -2 0.15405545E+00 0.32814488E+04</pdfrwt>
<totfact> 0.62964464E-01</totfact>
</mgrwt>
</event>
<event>
 6    1  0.5040916E-004  0.4101071E+04  0.7818608E-02  0.7984462E-01
         -2   -1    0    0    0  501 -0.00000000000E+00  0.00000000000E+00  0.14329728289E+04  0.14329728289E+04  0.00000000000E+00 0.  1.
          2   -1    0    0  501    0  0.00000000000E+00 -0.00000000000E+00 -0.29342468964E+04  0.29342468964E+04  0.00000000000E+00 0. -1.
         23    2    1    2    0    0 -0.26313545916E+02  0.18900727556E+04  0.92384498638E+02  0.18948089484E+04  0.93266451715E+02 0.  0.
         13    1    3    3    0    0 -0.39723209784E-01  0.41907392148E+03  0.58914392087E+02  0.42319482374E+03  0.00000000000E+00 0.  1.
        -13    1    3    3    0    0 -0.26273822707E+02  0.14709988341E+04  0.33470106551E+02  0.14716141246E+04  0.00000000000E+00 0. -1.
         22    1    1    2    0    0  0.26313545916E+02 -0.18900727556E+04 -0.15936585661E+04  0.24724107769E+04  0.00000000000E+00 0.  1.
<mgrwt>
<rscale>  0 0.41010711E+04</rscale>
<asrwt>0</asrwt>
<pdfrwt beam="1">  1        2 0.45142259E+00 0.41010711E+04</pdfrwt>
<pdfrwt beam="2">  1       -2 0.22045736E+00 0.41010711E+04</pdfrwt>
<totfact> 0.14693280E-01</totfact>
</mgrwt>
</event>
<event>
 6    1  0.5040916E-004  0.1396120E+04  0.7818608E-02  0.8956632E-01
         -2   -1    0    0    0  501 -0.00000000000E+00  0.00000000000E+00  0.23542412964E+03  0.23542412964E+03  0.00000000000E+00 0. -1.
          2   -1    0    0  501    0  0.00000000000E+00 -0.00000000000E+00 -0.20698301380E+04  0.20698301380E+04  0.00000000000E+00 0.  1.
         23    2    1    2    0    0  0.50143008204E+03 -0.73733044299E+02 -0.17066390267E+04  0.17825755034E+04  0.89944254006E+02 0.  0.
         13    1    3    3    0    0  0.40325048343E+03 -0.68889843911E+02 -0.12415505630E+04  0.13072125165E+04  0.00000000000E+00 0.  1.
        -13    1    3    3    0    0  0.98179598610E+02 -0.48432003880E+01 -0.46508846372E+03  0.47536298684E+03  0.00000000000E+00 0. -1.
         22    1    1    2    0    0 -0.50143008204E+03  0.73733044299E+02 -0.12776698167E+03  0.52267876426E+03  0.00000000000E+00 0. -1.
<mgrwt>
<rscale>  0 0.13961203E+04</rscale>
<asrwt>0</asrwt>
<pdfrwt beam="1">  1        2 0.31843542E+00 0.13961203E+04</pdfrwt>
<pdfrwt beam="2">  1       -2 0.36219096E-01 0.13961203E+04</pdfrwt>
<totfact> 0.42697372E+01</totfact>
</mgrwt>
</event>
<event>
 6    1  0.5040916E-004  0.2027203E+04  0.7818608E-02  0.8594007E-01
         -1   -1    0    0    0  501 -0.00000000000E+00  0.00000000000E+00  0.92339625269E+03  0.92339625269E+03  0.00000000000E+00 0.  1.
          1   -1    0    0  501    0  0.00000000000E+00 -0.00000000000E+00 -0.11126187161E+04  0.11126187161E+04  0.00000000000E+00 0. -1.
         23    2    1    2    0    0 -0.94358601223E+03 -0.13612712890E+03 -0.43526059287E+03  0.10514237242E+04  0.84586680349E+02 0.  0.
         13    1    3    3    0    0 -0.14225351183E+03 -0.42757974390E+02 -0.91676395267E+02  0.17455333698E+03  0.00000000000E+00 0. -1.
        -13    1    3    3    0    0 -0.80133250040E+03 -0.93369154512E+02 -0.34358419761E+03  0.87687038726E+03  0.00000000000E+00 0.  1.
         22    1    1    2    0    0  0.94358601223E+03  0.13612712890E+03  0.24603812946E+03  0.98459124455E+03  0.00000000000E+00 0. -1.
<mgrwt>
<rscale>  0 0.20272030E+04</rscale>
<asrwt>0</asrwt>
<pdfrwt beam="1">  1        1 0.17117211E+00 0.20272030E+04</pdfrwt>
<pdfrwt beam="2">  1       -1 0.14206096E+00 0.20272030E+04</pdfrwt>
<totfact> 0.46311678E+00</totfact>
</mgrwt>
</event>
<event>
 6    1  0.5040916E-004  0.3740596E+04  0.7818608E-02  0.8059024E-01
         -2   -1    0    0    0  501 -0.00000000000E+00  0.00000000000E+00  0.85356906281E+03  0.85356906281E+03  0.00000000000E+00 0. -1.
          2   -1    0    0  501    0  0.00000000000E+00 -0.00000000000E+00 -0.40981030499E+04  0.40981030499E+04  0.00000000000E+00 0.  1.
         23    2    1    2    0    0 -0.12984604054E+04  0.36075617147E+03 -0.33378551533E+04  0.36008008088E+04  0.91350974835E+02 0.  0.
         11    1    3    3    0    0 -0.44581704459E+03  0.15953864849E+03 -0.11004909761E+04  0.11980341423E+04  0.00000000000E+00 0.  1.
        -11    1    3    3    0    0 -0.85264336080E+03  0.20121752299E+03 -0.22373641773E+04  0.24027666666E+04  0.00000000000E+00 0. -1.
         22    1    1    2    0    0  0.12984604054E+04 -0.36075617147E+03  0.93321166219E+02  0.13508713039E+04  0.00000000000E+00 0. -1.
<mgrwt>
<rscale>  0 0.37405957E+04</rscale>
<asrwt>0</asrwt>
<pdfrwt beam="1">  1        2 0.63047740E+00 0.37405957E+04</pdfrwt>
<pdfrwt beam="2">  1       -2 0.13131832E+00 0.37405957E+04</pdfrwt>
<totfact> 0.96524286E-02</totfact>
</mgrwt>
</event>
<event>
 6    1  0.5040916E-004  0.2075764E+04  0.7818608E-02  0.8571995E-01
          2   -1    0    0  501    0  0.00000000000E+00  0.00000000000E+00  0.16308416897E+04  0.16308416897E+04  0.00000000000E+00 0.  1.
         -2   -1    0    0    0  501 -0.00000000000E+00 -0.00000000000E+00 -0.66051717256E+03  0.66051717256E+03  0.00000000000E+00 0. -1.
         23    2    1    2    0    0 -0.84928539755E+03  0.33880606178E+02 -0.16868235022E+03  0.87017265846E+03  0.79455259724E+02 0.  0.
         13    1    3    3    0    0 -0.81526451777E+03  0.17146192184E+02 -0.16595666822E+03  0.83216094691E+03  0.00000000000E+00 0. -1.
        -13    1    3    3    0    0 -0.34020879778E+02  0.16734413994E+02 -0.27256820020E+01  0.38011711550E+02  0.00000000000E+00 0.  1.
         22    1    1    2    0    0  0.84928539755E+03 -0.33880606178E+02  0.11390068673E+04  0.14211862038E+04  0.00000000000E+00 0.  1.
<mgrwt>
<rscale>  0 0.20757639E+04</rscale>
<asrwt>0</asrwt>
<pdfrwt beam="1">  1        2 0.25089872E+00 0.20757639E+04</pdfrwt>
<pdfrwt beam="2">  1       -2 0.10161803E+00 0.20757639E+04</pdfrwt>
<totfact> 0.78684868E+00</totfact>
</mgrwt>
</event>
<event>
 6    1  0.6030062E-004  0.1716820E+04  0.7818608E-02  0.8751829E-01
         -2   -1    0    0    0  501 -0.00000000000E+00  0.00000000000E+00  0.80931086016E+03  0.80931086016E+03  0.00000000000E+00 0. -1.
          2   -1    0    0  501    0  0.00000000000E+00 -0.00000000000E+00 -0.91048800101E+03  0.91048800101E+03  0.00000000000E+00 0.  1.
         23    2    1    2    0    0 -0.67604175399E+03 -0.72598162350E+02  0.47015386088E+03  0.83169860790E+03  0.91514890445E+02 0.  0.
         13    1    3    3    0    0 -0.21387284417E+03  0.51504929365E+01  0.18697614785E+03  0.28412708586E+03  0.00000000000E+00 0. -1.
        -13    1    3    3    0    0 -0.46216890981E+03 -0.77748655286E+02  0.28317771303E+03  0.54757152204E+03  0.00000000000E+00 0.  1.
         22    1    1    2    0    0  0.67604175399E+03  0.72598162350E+02 -0.57133100173E+03  0.88810025326E+03  0.00000000000E+00 0. -1.
<mgrwt>
<rscale>  0 0.17168201E+04</rscale>
<asrwt>0</asrwt>
<pdfrwt beam="1">  1        2 0.14007508E+00 0.17168201E+04</pdfrwt>
<pdfrwt beam="2">  1       -2 0.12450936E+00 0.17168201E+04</pdfrwt>
<totfact> 0.13274173E+01</totfact>
</mgrwt>
</event>
<event>
 6    1  0.5040916E-004  0.5204124E+03  0.7818608E-02  0.1008584E+00
          2   -1    0    0  501    0  0.00000000000E+00  0.00000000000E+00  0.13300800744E+04  0.13300800744E+04  0.00000000000E+00 0.  1.
         -2   -1    0    0    0  501 -0.00000000000E+00 -0.00000000000E+00 -0.50904652450E+02  0.50904652450E+02  0.00000000000E+00 0. -1.
         23    2    1    2    0    0 -0.12101455478E+03  0.58712911634E+01  0.12462886980E+04  0.12554437729E+04  0.90689323545E+02 0.  0.
         11    1    3    3    0    0 -0.76013100082E+02 -0.37371145572E+02  0.85806987767E+03  0.86224040085E+03  0.00000000000E+00 0.  1.
        -11    1    3    3    0    0 -0.45001454696E+02  0.43242436736E+02  0.38821882038E+03  0.39320337201E+03  0.00000000000E+00 0. -1.
         22    1    1    2    0    0  0.12101455478E+03 -0.58712911634E+01  0.32886723947E+02  0.12554095404E+03  0.00000000000E+00 0. -1.
<mgrwt>
<rscale>  0 0.52041239E+03</rscale>
<asrwt>0</asrwt>
<pdfrwt beam="1">  1        2 0.20462768E+00 0.52041239E+03</pdfrwt>
<pdfrwt beam="2">  1       -2 0.78314860E-02 0.52041239E+03</pdfrwt>
<totfact> 0.16404504E+03</totfact>
</mgrwt>
</event>
<event>
 6    1  0.5040916E-004  0.5314654E+03  0.7818608E-02  0.1005877E+00
         -2   -1    0    0    0  501 -0.00000000000E+00  0.00000000000E+00  0.15893362361E+04  0.15893362361E+04  0.00000000000E+00 0. -1.
          2   -1    0    0  501    0  0.00000000000E+00 -0.00000000000E+00 -0.44429791076E+02  0.44429791076E+02  0.00000000000E+00 0.  1.
         23    2    1    2    0    0 -0.43020361025E+02  0.22903021838E+03  0.45601127636E+03  0.52021392658E+03  0.91491271992E+02 0.  0.
         13    1    3    3    0    0 -0.42185156018E+02  0.13036867853E+03  0.34756915706E+03  0.37360393289E+03  0.00000000000E+00 0. -1.
        -13    1    3    3    0    0 -0.83520500653E+00  0.98661539853E+02  0.10844211930E+03  0.14660999370E+03  0.00000000000E+00 0.  1.
         22    1    1    2    0    0  0.43020361025E+02 -0.22903021838E+03  0.10888951687E+04  0.11135521006E+04  0.00000000000E+00 0. -1.
<mgrwt>
<rscale>  0 0.53146543E+03</rscale>
<asrwt>0</asrwt>
<pdfrwt beam="1">  1        2 0.68353537E-02 0.53146543E+03</pdfrwt>
<pdfrwt beam="2">  1       -2 0.24451322E+00 0.53146543E+03</pdfrwt>
<totfact> 0.78825624E+01</totfact>
</mgrwt>
</event>
<event>
 6    1  0.5040916E-004  0.1538884E+04  0.7818608E-02  0.8859000E-01
         -2   -1    0    0    0  501 -0.00000000000E+00  0.00000000000E+00  0.65176834975E+03  0.65176834975E+03  0.00000000000E+00 0. -1.
          2   -1    0    0  501    0  0.00000000000E+00 -0.00000000000E+00 -0.90836090488E+03  0.90836090488E+03  0.00000000000E+00 0.  1.
         23    2    1    2    0    0  0.41130583081E+03  0.42429908552E+03 -0.62407997633E+03  0.86424908883E+03  0.90821089291E+02 0.  0.
         13    1    3    3    0    0  0.36219040580E+03  0.36311691799E+03 -0.58009368218E+03  0.77430256766E+03  0.00000000000E+00 0.  1.
        -13    1    3    3    0    0  0.49115425009E+02  0.61182167524E+02 -0.43986294148E+02  0.89946521165E+02  0.00000000000E+00 0. -1.
         22    1    1    2    0    0 -0.41130583081E+03 -0.42429908552E+03  0.36748742119E+03  0.69588016581E+03  0.00000000000E+00 0. -1.
<mgrwt>
<rscale>  0 0.15388839E+04</rscale>
<asrwt>0</asrwt>
<pdfrwt beam="1">  1        2 0.13974783E+00 0.15388839E+04</pdfrwt>
<pdfrwt beam="2">  1       -2 0.10027205E+00 0.15388839E+04</pdfrwt>
<totfact> 0.22887750E+01</totfact>
</mgrwt>
</event>
<event>
 6    1  0.5040916E-004  0.1682479E+04  0.7818608E-02  0.8771421E-01
          2   -1    0    0  501    0  0.00000000000E+00  0.00000000000E+00  0.16242023023E+04  0.16242023023E+04  0.00000000000E+00 0.  1.
         -2   -1    0    0    0  501 -0.00000000000E+00 -0.00000000000E+00 -0.43571162715E+03  0.43571162715E+03  0.00000000000E+00 0. -1.
         23    2    1    2    0    0  0.48085877546E+03 -0.39945012840E+03 -0.87512331887E+02  0.63900955511E+03  0.99444639259E+02 0.  0.
         11    1    3    3    0    0  0.22992017685E+03 -0.23598328074E+03 -0.81779625069E+02  0.33946914969E+03  0.00000000000E+00 0. -1.
        -11    1    3    3    0    0  0.25093859861E+03 -0.16346684766E+03 -0.57327068174E+01  0.29954040542E+03  0.00000000000E+00 0.  1.
         22    1    1    2    0    0 -0.48085877546E+03  0.39945012840E+03  0.12760030070E+04  0.14209043743E+04  0.00000000000E+00 0.  1.
<mgrwt>
<rscale>  0 0.16824789E+04</rscale>
<asrwt>0</asrwt>
<pdfrwt beam="1">  1        2 0.24987727E+00 0.16824789E+04</pdfrwt>
<pdfrwt beam="2">  1       -2 0.67032559E-01 0.16824789E+04</pdfrwt>
<totfact> 0.21037521E+01</totfact>
</mgrwt>
</event>
<event>
 6    1  0.5040916E-004  0.2273839E+04  0.7818608E-02  0.8488308E-01
          2   -1    0    0  501    0  0.00000000000E+00  0.00000000000E+00  0.17786441992E+04  0.17786441992E+04  0.00000000000E+00 0.  1.
         -2   -1    0    0    0  501 -0.00000000000E+00 -0.00000000000E+00 -0.72672552086E+03  0.72672552086E+03  0.00000000000E+00 0. -1.
         23    2    1    2    0    0  0.44888576520E+03 -0.73849506019E+03  0.13376076520E+04  0.15951545950E+04  0.91926966654E+02 0.  0.
         13    1    3    3    0    0  0.68495420102E+02 -0.95405952744E+02  0.24243320676E+03  0.26938407179E+03  0.00000000000E+00 0. -1.
        -13    1    3    3    0    0  0.38039034509E+03 -0.64308910744E+03  0.10951744452E+04  0.13257705232E+04  0.00000000000E+00 0.  1.
         22    1    1    2    0    0 -0.44888576520E+03  0.73849506019E+03 -0.28568897369E+03  0.91021512501E+03  0.00000000000E+00 0. -1.
<mgrwt>
<rscale>  0 0.22738392E+04</rscale>
<asrwt>0</asrwt>
<pdfrwt beam="1">  1        2 0.27363757E+00 0.22738392E+04</pdfrwt>
<pdfrwt beam="2">  1       -2 0.11180393E+00 0.22738392E+04</pdfrwt>
<totfact> 0.50887556E+00</totfact>
</mgrwt>
</event>
<event>
 6    1  0.5040916E-004  0.5988003E+03  0.7818608E-02  0.9907898E-01
         -2   -1    0    0    0  501 -0.00000000000E+00  0.00000000000E+00  0.23812797458E+03  0.23812797458E+03  0.00000000000E+00 0. -1.
          2   -1    0    0  501    0  0.00000000000E+00 -0.00000000000E+00 -0.37643813026E+03  0.37643813026E+03  0.00000000000E+00 0.  1.
         23    2    1    2    0    0  0.43900425077E+02 -0.22148877300E+03  0.11993552702E+03  0.27152768641E+03  0.91423355665E+02 0.  0.
         13    1    3    3    0    0  0.15092583323E+02 -0.21081474382E+03  0.93969837057E+02  0.23130277248E+03  0.00000000000E+00 0.  1.
        -13    1    3    3    0    0  0.28807841753E+02 -0.10674029182E+02  0.25965689961E+02  0.40224913929E+02  0.00000000000E+00 0. -1.
         22    1    1    2    0    0 -0.43900425077E+02  0.22148877300E+03 -0.25824568270E+03  0.34303841843E+03  0.00000000000E+00 0.  1.
<mgrwt>
<rscale>  0 0.59880030E+03</rscale>
<asrwt>0</asrwt>
<pdfrwt beam="1">  1        2 0.57913559E-01 0.59880030E+03</pdfrwt>
<pdfrwt beam="2">  1       -2 0.36635073E-01 0.59880030E+03</pdfrwt>
<totfact> 0.60160766E+02</totfact>
</mgrwt>
</event>
<event>
 6    1  0.5040916E-004  0.3300498E+04  0.7818608E-02  0.8162769E-01
         -2   -1    0    0    0  501 -0.00000000000E+00  0.00000000000E+00  0.13931927559E+04  0.13931927559E+04  0.00000000000E+00 0. -1.
          2   -1    0    0  501    0  0.00000000000E+00 -0.00000000000E+00 -0.19547345564E+04  0.19547345564E+04  0.00000000000E+00 0.  1.
         23    2    1    2    0    0 -0.12938416500E+04  0.61297619502E+03  0.54896021820E+03  0.15360275455E+04  0.90869513908E+02 0.  0.
         13    1    3    3    0    0 -0.40209288353E+03  0.14468033441E+03  0.16712060865E+03  0.45884679794E+03  0.00000000000E+00 0. -1.
        -13    1    3    3    0    0 -0.89174876648E+03  0.46829586062E+03  0.38183960955E+03  0.10771807476E+04  0.00000000000E+00 0.  1.
         22    1    1    2    0    0  0.12938416500E+04 -0.61297619502E+03 -0.11105020187E+04  0.18118997667E+04  0.00000000000E+00 0.  1.
<mgrwt>
<rscale>  0 0.33004982E+04</rscale>
<asrwt>0</asrwt>
<pdfrwt beam="1">  1        2 0.30072839E+00 0.33004982E+04</pdfrwt>
<pdfrwt beam="2">  1       -2 0.21433735E+00 0.33004982E+04</pdfrwt>
<totfact> 0.63507187E-01</totfact>
</mgrwt>
</event>
<event>
 6    1  0.5040916E-004  0.1868872E+04  0.7818608E-02  0.8670508E-01
          2   -1    0    0  501    0  0.00000000000E+00  0.00000000000E+00  0.17227970593E+04  0.17227970593E+04  0.00000000000E+00 0.  1.
         -2   -1    0    0    0  501 -0.00000000000E+00 -0.00000000000E+00 -0.50683295548E+03  0.50683295548E+03  0.00000000000E+00 0. -1.
         23    2    1    2    0    0 -0.29107775954E+03  0.58836576452E+03 -0.18027918793E+03  0.68677685758E+03  0.90891867353E+02 0.  0.
         13    1    3    3    0    0 -0.19642714368E+03  0.48085488684E+03 -0.14383817382E+03  0.53897538461E+03  0.00000000000E+00 0.  1.
        -13    1    3    3    0    0 -0.94650615859E+02  0.10751087768E+03 -0.36441014104E+02  0.14780147297E+03  0.00000000000E+00 0. -1.
         22    1    1    2    0    0  0.29107775954E+03 -0.58836576452E+03  0.13962432917E+04  0.15428531572E+04  0.00000000000E+00 0.  1.
<mgrwt>
<rscale>  0 0.18688717E+04</rscale>
<asrwt>0</asrwt>
<pdfrwt beam="1">  1        2 0.26504570E+00 0.18688717E+04</pdfrwt>
<pdfrwt beam="2">  1       -2 0.77974302E-01 0.18688717E+04</pdfrwt>
<totfact> 0.13092809E+01</totfact>
</mgrwt>
</event>
<event>
 6    1  0.5040916E-004  0.2057677E+04  0.7818608E-02  0.8580119E-01
          2   -1    0    0  501    0  0.00000000000E+00  0.00000000000E+00  0.23490110837E+04  0.23490110837E+04  0.00000000000E+00 0.  1.
         -2   -1    0    0    0  501 -0.00000000000E+00 -0.00000000000E+00 -0.45061895260E+03  0.45061895260E+03  0.00000000000E+00 0. -1.
         23    2    1    2    0    0 -0.79328499268E+03  0.44387630952E+03  0.16006458507E+04  0.18430841120E+04  0.92545377416E+02 0.  0.
         11    1    3    3    0    0 -0.50402157657E+03  0.25291158004E+03  0.10647698484E+04  0.12048804285E+04  0.00000000000E+00 0. -1.
        -11    1    3    3    0    0 -0.28926341611E+03  0.19096472948E+03  0.53587600234E+03  0.63820368354E+03  0.00000000000E+00 0.  1.
         22    1    1    2    0    0  0.79328499268E+03 -0.44387630952E+03  0.29774628041E+03  0.95654592428E+03  0.00000000000E+00 0.  1.
<mgrwt>
<rscale>  0 0.20576772E+04</rscale>
<asrwt>0</asrwt>
<pdfrwt beam="1">  1        2 0.36138631E+00 0.20576772E+04</pdfrwt>
<pdfrwt beam="2">  1       -2 0.69325994E-01 0.20576772E+04</pdfrwt>
<totfact> 0.74656282E+00</totfact>
</mgrwt>
</event>
<event>
 6    1  0.5040916E-004  0.1890089E+04  0.7818608E-02  0.8659805E-01
         -2   -1    0    0    0  501 -0.00000000000E+00  0.00000000000E+00  0.96466974375E+03  0.96466974375E+03  0.00000000000E+00 0. -1.
          2   -1    0    0  501    0  0.00000000000E+00 -0.00000000000E+00 -0.92581850981E+03  0.92581850981E+03  0.00000000000E+00 0.  1.
         23    2    1    2    0    0  0.18469127224E+03 -0.59922336531E+03 -0.68473816921E+03  0.93301181420E+03  0.92006399192E+02 0.  0.
         13    1    3    3    0    0  0.14382935272E+03 -0.37622522491E+03 -0.48873618161E+03  0.63332089637E+03  0.00000000000E+00 0. -1.
        -13    1    3    3    0    0  0.40861919516E+02 -0.22299814040E+03 -0.19600198760E+03  0.29969091783E+03  0.00000000000E+00 0.  1.
         22    1    1    2    0    0 -0.18469127224E+03  0.59922336531E+03  0.72358940315E+03  0.95747643936E+03  0.00000000000E+00 0. -1.
<mgrwt>
<rscale>  0 0.18900890E+04</rscale>
<asrwt>0</asrwt>
<pdfrwt beam="1">  1        2 0.14243362E+00 0.18900890E+04</pdfrwt>
<pdfrwt beam="2">  1       -2 0.14841073E+00 0.18900890E+04</pdfrwt>
<totfact> 0.81365589E+00</totfact>
</mgrwt>
</event>
<event>
 6    1  0.5040916E-004  0.3035146E+04  0.7818608E-02  0.8233765E-01
          2   -1    0    0  501    0  0.00000000000E+00  0.00000000000E+00  0.19744429053E+04  0.19744429053E+04  0.00000000000E+00 0.  1.
         -2   -1    0    0    0  501 -0.00000000000E+00 -0.00000000000E+00 -0.11664188062E+04  0.11664188062E+04  0.00000000000E+00 0. -1.
         23    2    1    2    0    0 -0.88886753326E+03 -0.28979656073E+03  0.16397130533E+04  0.18895527748E+04  0.87654169563E+02 0.  0.
         13    1    3    3    0    0 -0.73160558207E+03 -0.23375466605E+03  0.14095556168E+04  0.16052211712E+04  0.00000000000E+00 0. -1.
        -13    1    3    3    0    0 -0.15726195119E+03 -0.56041894680E+02  0.23015743650E+03  0.28433160364E+03  0.00000000000E+00 0.  1.
         22    1    1    2    0    0  0.88886753326E+03  0.28979656073E+03 -0.83168895423E+03  0.12513089366E+04  0.00000000000E+00 0. -1.
<mgrwt>
<rscale>  0 0.30351457E+04</rscale>
<asrwt>0</asrwt>
<pdfrwt beam="1">  1        2 0.30376045E+00 0.30351457E+04</pdfrwt>
<pdfrwt beam="2">  1       -2 0.17944905E+00 0.30351457E+04</pdfrwt>
<totfact> 0.10780069E+00</totfact>
</mgrwt>
</event>
<event>
 6    1  0.5040916E-004  0.4356038E+04  0.7818608E-02  0.7936337E-01
          2   -1    0    0  501    0  0.00000000000E+00  0.00000000000E+00  0.18618913857E+04  0.18618913857E+04  0.00000000000E+00 0.  1.
         -2   -1    0    0    0  501 -0.00000000000E+00 -0.00000000000E+00 -0.25478219359E+04  0.25478219359E+04  0.00000000000E+00 0. -1.
         23    2    1    2    0    0 -0.19018529829E+04 -0.35432367554E+03 -0.13539950649E+04  0.23630330263E+04  0.89623724366E+02 0.  0.
         11    1    3    3    0    0 -0.11285783018E+04 -0.25038928986E+03 -0.83199480365E+03  0.14242889921E+04  0.00000000000E+00 0.  1.
        -11    1    3    3    0    0 -0.77327468106E+03 -0.10393438569E+03 -0.52200026125E+03  0.93874403414E+03  0.00000000000E+00 0. -1.
         22    1    1    2    0    0  0.19018529829E+04  0.35432367554E+03  0.66806451475E+03  0.20466802954E+04  0.00000000000E+00 0.  1.
<mgrwt>
<rscale>  0 0.43560384E+04</rscale>
<asrwt>0</asrwt>
<pdfrwt beam="1">  1        2 0.28644483E+00 0.43560384E+04</pdfrwt>
<pdfrwt beam="2">  1       -2 0.39197261E+00 0.43560384E+04</pdfrwt>
<totfact> 0.51171374E-02</totfact>
</mgrwt>
</event>
<event>
 6    1  0.5040916E-004  0.1751283E+04  0.7818608E-02  0.8732645E-01
         -2   -1    0    0    0  501 -0.00000000000E+00  0.00000000000E+00  0.70130939121E+03  0.70130939121E+03  0.00000000000E+00 0. -1.
          2   -1    0    0  501    0  0.00000000000E+00 -0.00000000000E+00 -0.10933088793E+04  0.10933088793E+04  0.00000000000E+00 0.  1.
         23    2    1    2    0    0  0.30887237714E+03  0.63849759661E+03  0.32555541159E+03  0.78567508067E+03  0.90651421009E+02 0.  0.
         13    1    3    3    0    0  0.18711212203E+03  0.32541228363E+03  0.13158452626E+03  0.39776700228E+03  0.00000000000E+00 0. -1.
        -13    1    3    3    0    0  0.12176025512E+03  0.31308531298E+03  0.19397088533E+03  0.38790807839E+03  0.00000000000E+00 0.  1.
         22    1    1    2    0    0 -0.30887237714E+03 -0.63849759661E+03 -0.71755489963E+03  0.10089431898E+04  0.00000000000E+00 0.  1.
<mgrwt>
<rscale>  0 0.17512827E+04</rscale>
<asrwt>0</asrwt>
<pdfrwt beam="1">  1        2 0.16820136E+00 0.17512827E+04</pdfrwt>
<pdfrwt beam="2">  1       -2 0.10789375E+00 0.17512827E+04</pdfrwt>
<totfact> 0.14353807E+01</totfact>
</mgrwt>
</event>
<event>
 6    1  0.5040916E-004  0.3600857E+04  0.7818608E-02  0.8090295E-01
          2   -1    0    0  501    0  0.00000000000E+00  0.00000000000E+00  0.13585213726E+04  0.13585213726E+04  0.00000000000E+00 0.  1.
         -2   -1    0    0    0  501 -0.00000000000E+00 -0.00000000000E+00 -0.23860814263E+04  0.23860814263E+04  0.00000000000E+00 0. -1.
         23    2    1    2    0    0  0.13440086342E+04  0.21275990098E+03  0.71009816161E+03  0.15375500000E+04  0.90524135806E+02 0.  0.
         11    1    3    3    0    0  0.11549963309E+04  0.16060425644E+03  0.58140570851E+03  0.13030129890E+04  0.00000000000E+00 0.  1.
        -11    1    3    3    0    0  0.18901230323E+03  0.52155644540E+02  0.12869245310E+03  0.23453701097E+03  0.00000000000E+00 0. -1.
         22    1    1    2    0    0 -0.13440086342E+04 -0.21275990098E+03 -0.17376582153E+04  0.22070527990E+04  0.00000000000E+00 0. -1.
<mgrwt>
<rscale>  0 0.36008569E+04</rscale>
<asrwt>0</asrwt>
<pdfrwt beam="1">  1        2 0.20900329E+00 0.36008569E+04</pdfrwt>
<pdfrwt beam="2">  1       -2 0.36708945E+00 0.36008569E+04</pdfrwt>
<totfact> 0.15090201E-01</totfact>
</mgrwt>
</event>
<event>
 6    1  0.5040916E-004  0.1676633E+04  0.7818608E-02  0.8774805E-01
         -2   -1    0    0    0  501 -0.00000000000E+00  0.00000000000E+00  0.27587431140E+03  0.27587431140E+03  0.00000000000E+00 0. -1.
          2   -1    0    0  501    0  0.00000000000E+00 -0.00000000000E+00 -0.25474456451E+04  0.25474456451E+04  0.00000000000E+00 0.  1.
         23    2    1    2    0    0  0.34584000409E+03  0.74312036676E+03 -0.86372735913E+03  0.11942534003E+04  0.91558971346E+02 0.  0.
         13    1    3    3    0    0  0.20014257326E+03  0.40638148994E+03 -0.41235473048E+03  0.61256786460E+03  0.00000000000E+00 0. -1.
        -13    1    3    3    0    0  0.14569743082E+03  0.33673887682E+03 -0.45137262865E+03  0.58168553567E+03  0.00000000000E+00 0.  1.
         22    1    1    2    0    0 -0.34584000409E+03 -0.74312036676E+03 -0.14078439746E+04  0.16290665562E+04  0.00000000000E+00 0. -1.
<mgrwt>
<rscale>  0 0.16766333E+04</rscale>
<asrwt>0</asrwt>
<pdfrwt beam="1">  1        2 0.39191470E+00 0.16766333E+04</pdfrwt>
<pdfrwt beam="2">  1       -2 0.42442204E-01 0.16766333E+04</pdfrwt>
<totfact> 0.16419909E+01</totfact>
</mgrwt>
</event>
<event>
 6    1  0.5040916E-004  0.1725870E+04  0.7818608E-02  0.8746746E-01
          2   -1    0    0  501    0  0.00000000000E+00  0.00000000000E+00  0.13919215973E+04  0.13919215973E+04  0.00000000000E+00 0.  1.
         -2   -1    0    0    0  501 -0.00000000000E+00 -0.00000000000E+00 -0.53498497273E+03  0.53498497273E+03  0.00000000000E+00 0. -1.
         23    2    1    2    0    0 -0.75087144997E+03  0.18286705152E+03  0.85237563759E+03  0.11540747025E+04  0.89977210776E+02 0.  0.
         11    1    3    3    0    0 -0.42975175994E+03  0.72887414710E+02  0.43101415547E+03  0.61300273458E+03  0.00000000000E+00 0. -1.
        -11    1    3    3    0    0 -0.32111969004E+03  0.10997963681E+03  0.42136148212E+03  0.54107196791E+03  0.00000000000E+00 0.  1.
         22    1    1    2    0    0  0.75087144997E+03 -0.18286705152E+03  0.45609869969E+01  0.77283186756E+03  0.00000000000E+00 0. -1.
<mgrwt>
<rscale>  0 0.17258704E+04</rscale>
<asrwt>0</asrwt>
<pdfrwt beam="1">  1        2 0.21414178E+00 0.17258704E+04</pdfrwt>
<pdfrwt beam="2">  1       -2 0.82305381E-01 0.17258704E+04</pdfrwt>
<totfact> 0.18006566E+01</totfact>
</mgrwt>
</event>
<event>
 6    1  0.5040916E-004  0.3587533E+04  0.7818608E-02  0.8093353E-01
          1   -1    0    0  501    0  0.00000000000E+00  0.00000000000E+00  0.21383390013E+04  0.21383390013E+04  0.00000000000E+00 0.  1.
         -1   -1    0    0    0  501 -0.00000000000E+00 -0.00000000000E+00 -0.15047184154E+04  0.15047184154E+04  0.00000000000E+00 0. -1.
         23    2    1    2    0    0 -0.17092896093E+04 -0.39561657357E+03  0.69038827873E+03  0.18876640099E+04  0.91956496444E+02 0.  0.
         13    1    3    3    0    0 -0.23554740975E+03 -0.25619740407E+02  0.78366931853E+02  0.24956027197E+03  0.00000000000E+00 0.  1.
        -13    1    3    3    0    0 -0.14737421995E+04 -0.36999683316E+03  0.61202134687E+03  0.16381037379E+04  0.00000000000E+00 0. -1.
         22    1    1    2    0    0  0.17092896093E+04  0.39561657357E+03 -0.56767692837E+02  0.17553934068E+04  0.00000000000E+00 0.  1.
<mgrwt>
<rscale>  0 0.35875329E+04</rscale>
<asrwt>0</asrwt>
<pdfrwt beam="1">  1        1 0.32897523E+00 0.35875329E+04</pdfrwt>
<pdfrwt beam="2">  1       -1 0.23149514E+00 0.35875329E+04</pdfrwt>
<totfact> 0.17933714E-01</totfact>
</mgrwt>
</event>
<event>
 6    1  0.5040916E-004  0.5221228E+04  0.7818608E-02  0.7795258E-01
          1   -1    0    0  501    0  0.00000000000E+00  0.00000000000E+00  0.26905524627E+04  0.26905524627E+04  0.00000000000E+00 0.  1.
         -1   -1    0    0    0  501 -0.00000000000E+00 -0.00000000000E+00 -0.25330506619E+04  0.25330506619E+04  0.00000000000E+00 0. -1.
         23    2    1    2    0    0 -0.37245233701E+03  0.14442505769E+04 -0.20638086144E+04  0.25480096516E+04  0.92014756162E+02 0.  0.
         13    1    3    3    0    0 -0.11060889495E+03  0.29774197701E+03 -0.40781356061E+03  0.51691054616E+03  0.00000000000E+00 0. -1.
        -13    1    3    3    0    0 -0.26184344205E+03  0.11465085999E+04 -0.16559950538E+04  0.20310991054E+04  0.00000000000E+00 0.  1.
         22    1    1    2    0    0  0.37245233701E+03 -0.14442505769E+04  0.22213104153E+04  0.26755934731E+04  0.00000000000E+00 0.  1.
<mgrwt>
<rscale>  0 0.52212281E+04</rscale>
<asrwt>0</asrwt>
<pdfrwt beam="1">  1        1 0.41393115E+00 0.52212281E+04</pdfrwt>
<pdfrwt beam="2">  1       -1 0.38970010E+00 0.52212281E+04</pdfrwt>
<totfact> 0.59485961E-03</totfact>
</mgrwt>
</event>
<event>
 6    1  0.5040916E-004  0.2611873E+04  0.7818608E-02  0.8364179E-01
          2   -1    0    0  501    0  0.00000000000E+00  0.00000000000E+00  0.21915734674E+04  0.21915734674E+04  0.00000000000E+00 0.  1.
         -2   -1    0    0    0  501 -0.00000000000E+00 -0.00000000000E+00 -0.77819433438E+03  0.77819433438E+03  0.00000000000E+00 0. -1.
         23    2    1    2    0    0 -0.26812696209E+02 -0.86635712527E+03  0.18158602922E+04  0.20141085148E+04  0.89391942806E+02 0.  0.
         13    1    3    3    0    0  0.62897275745E+01 -0.72519317540E+03  0.14730183608E+04  0.16418671669E+04  0.00000000000E+00 0.  1.
        -13    1    3    3    0    0 -0.33102423784E+02 -0.14116394987E+03  0.34284193138E+03  0.37224134794E+03  0.00000000000E+00 0. -1.
         22    1    1    2    0    0  0.26812696209E+02  0.86635712527E+03 -0.40248115922E+03  0.95565928693E+03  0.00000000000E+00 0. -1.
<mgrwt>
<rscale>  0 0.26118729E+04</rscale>
<asrwt>0</asrwt>
<pdfrwt beam="1">  1        2 0.33716515E+00 0.26118729E+04</pdfrwt>
<pdfrwt beam="2">  1       -2 0.11972221E+00 0.26118729E+04</pdfrwt>
<totfact> 0.24636416E+00</totfact>
</mgrwt>
</event>
<event>
 6    1  0.5040916E-004  0.2625788E+04  0.7818608E-02  0.8359494E-01
         -2   -1    0    0    0  501 -0.00000000000E+00  0.00000000000E+00  0.10473223410E+04  0.10473223410E+04  0.00000000000E+00 0. -1.
          2   -1    0    0  501    0  0.00000000000E+00 -0.00000000000E+00 -0.16458075798E+04  0.16458075798E+04  0.00000000000E+00 0.  1.
         23    2    1    2    0    0 -0.22841591680E+03 -0.12766929659E+04 -0.10122366856E+03  0.13041058644E+04  0.91253023826E+02 0.  0.
         13    1    3    3    0    0 -0.19841805016E+03 -0.89887196579E+03 -0.52930978954E+02  0.92203157323E+03  0.00000000000E+00 0.  1.
        -13    1    3    3    0    0 -0.29997866636E+02 -0.37782100007E+03 -0.48292689608E+02  0.38207429117E+03  0.00000000000E+00 0. -1.
         22    1    1    2    0    0  0.22841591680E+03  0.12766929659E+04 -0.49726157028E+03  0.13890240565E+04  0.00000000000E+00 0.  1.
<mgrwt>
<rscale>  0 0.26257883E+04</rscale>
<asrwt>0</asrwt>
<pdfrwt beam="1">  1        2 0.25320117E+00 0.26257883E+04</pdfrwt>
<pdfrwt beam="2">  1       -2 0.16112651E+00 0.26257883E+04</pdfrwt>
<totfact> 0.22935831E+00</totfact>
</mgrwt>
</event>
<event>
 6    1  0.5040916E-004  0.2673557E+04  0.7818608E-02  0.8343636E-01
         -2   -1    0    0    0  501 -0.00000000000E+00  0.00000000000E+00  0.10714715679E+04  0.10714715679E+04  0.00000000000E+00 0. -1.
          2   -1    0    0  501    0  0.00000000000E+00 -0.00000000000E+00 -0.16677781523E+04  0.16677781523E+04  0.00000000000E+00 0.  1.
         23    2    1    2    0    0 -0.11747800012E+04  0.60860038989E+03 -0.11402839101E+03  0.13310257530E+04  0.90136537040E+02 0.  0.
         13    1    3    3    0    0 -0.10610243604E+04  0.55930957053E+03 -0.12817502167E+03  0.12062457151E+04  0.00000000000E+00 0.  1.
        -13    1    3    3    0    0 -0.11375564085E+03  0.49290819357E+02  0.14146630663E+02  0.12478003790E+03  0.00000000000E+00 0. -1.
         22    1    1    2    0    0  0.11747800012E+04 -0.60860038989E+03 -0.48227819342E+03  0.14082239672E+04  0.00000000000E+00 0.  1.
<mgrwt>
<rscale>  0 0.26735571E+04</rscale>
<asrwt>0</asrwt>
<pdfrwt beam="1">  1        2 0.25658125E+00 0.26735571E+04</pdfrwt>
<pdfrwt beam="2">  1       -2 0.16484178E+00 0.26735571E+04</pdfrwt>
<totfact> 0.20863031E+00</totfact>
</mgrwt>
</event>
<event>
 6    1  0.5040916E-004  0.2044750E+04  0.7818608E-02  0.8585980E-01
         -2   -1    0    0    0  501 -0.00000000000E+00  0.00000000000E+00  0.27927212201E+04  0.27927212201E+04  0.00000000000E+00 0. -1.
          2   -1    0    0  501    0  0.00000000000E+00 -0.00000000000E+00 -0.37427658646E+03  0.37427658646E+03  0.00000000000E+00 0.  1.
         23    2    1    2    0    0  0.75954335527E+03 -0.63688402875E+03  0.83608704086E+03  0.12998119759E+04  0.89119348651E+02 0.  0.
         11    1    3    3    0    0  0.31788297538E+03 -0.27678493093E+03  0.41259526535E+03  0.58982568359E+03  0.00000000000E+00 0.  1.
        -11    1    3    3    0    0  0.44166037989E+03 -0.36009909782E+03  0.42349177551E+03  0.70998629235E+03  0.00000000000E+00 0. -1.
         22    1    1    2    0    0 -0.75954335527E+03  0.63688402875E+03  0.15823575928E+04  0.18671858306E+04  0.00000000000E+00 0. -1.
<mgrwt>
<rscale>  0 0.20447495E+04</rscale>
<asrwt>0</asrwt>
<pdfrwt beam="1">  1        2 0.57581015E-01 0.20447495E+04</pdfrwt>
<pdfrwt beam="2">  1       -2 0.42964940E+00 0.20447495E+04</pdfrwt>
<totfact> 0.37635684E-01</totfact>
</mgrwt>
</event>
<event>
 6    1  0.5040916E-004  0.3204186E+04  0.7818608E-02  0.8187713E-01
          2   -1    0    0  501    0  0.00000000000E+00  0.00000000000E+00  0.15328711431E+04  0.15328711431E+04  0.00000000000E+00 0.  1.
         -2   -1    0    0    0  501 -0.00000000000E+00 -0.00000000000E+00 -0.16744409463E+04  0.16744409463E+04  0.00000000000E+00 0. -1.
         23    2    1    2    0    0 -0.91117679480E+03  0.11619267219E+04 -0.68949642320E+03  0.16323389343E+04  0.93852119849E+02 0.  0.
         13    1    3    3    0    0 -0.24529298588E+03  0.35114112950E+03 -0.16122140265E+03  0.45766918448E+03  0.00000000000E+00 0. -1.
        -13    1    3    3    0    0 -0.66588380892E+03  0.81078559239E+03 -0.52827502055E+03  0.11746697498E+04  0.00000000000E+00 0.  1.
         22    1    1    2    0    0  0.91117679480E+03 -0.11619267219E+04  0.54792662000E+03  0.15749731551E+04  0.00000000000E+00 0. -1.
<mgrwt>
<rscale>  0 0.32041861E+04</rscale>
<asrwt>0</asrwt>
<pdfrwt beam="1">  1        2 0.23582633E+00 0.32041861E+04</pdfrwt>
<pdfrwt beam="2">  1       -2 0.25760630E+00 0.32041861E+04</pdfrwt>
<totfact> 0.59085920E-01</totfact>
</mgrwt>
</event>
<event>
 6    1  0.5040916E-004  0.4334108E+03  0.7818608E-02  0.1032788E+00
          2   -1    0    0  501    0  0.00000000000E+00  0.00000000000E+00  0.85245505300E+02  0.85245505300E+02  0.00000000000E+00 0.  1.
         -2   -1    0    0    0  501 -0.00000000000E+00 -0.00000000000E+00 -0.55089403617E+03  0.55089403617E+03  0.00000000000E+00 0. -1.
         23    2    1    2    0    0  0.98923980676E+02  0.42490834347E+01 -0.51019685717E+03  0.52756439681E+03  0.90660636726E+02 0.  0.
         11    1    3    3    0    0  0.74533615297E+02 -0.38251216107E+02 -0.28280628876E+03  0.29495391556E+03  0.00000000000E+00 0.  1.
        -11    1    3    3    0    0  0.24390365380E+02  0.42500299542E+02 -0.22739056841E+03  0.23261048125E+03  0.00000000000E+00 0. -1.
         22    1    1    2    0    0 -0.98923980676E+02 -0.42490834347E+01  0.44548326297E+02  0.10857514466E+03  0.00000000000E+00 0.  1.
<mgrwt>
<rscale>  0 0.43341085E+03</rscale>
<asrwt>0</asrwt>
<pdfrwt beam="1">  1        2 0.13114693E-01 0.43341085E+03</pdfrwt>
<pdfrwt beam="2">  1       -2 0.84752926E-01 0.43341085E+03</pdfrwt>
<totfact> 0.57742360E+02</totfact>
</mgrwt>
</event>
<event>
 6    1  0.5040916E-004  0.1467899E+04  0.7818608E-02  0.8906085E-01
          2   -1    0    0  501    0  0.00000000000E+00  0.00000000000E+00  0.93162118838E+03  0.93162118838E+03  0.00000000000E+00 0.  1.
         -2   -1    0    0    0  501 -0.00000000000E+00 -0.00000000000E+00 -0.57822006971E+03  0.57822006971E+03  0.00000000000E+00 0. -1.
         23    2    1    2    0    0 -0.10388698363E+03 -0.56406704639E+03 -0.28937324413E+03  0.64837563507E+03  0.87692368801E+02 0.  0.
         13    1    3    3    0    0 -0.79975988080E+02 -0.51245623377E+03 -0.28378703571E+03  0.59122130530E+03  0.00000000000E+00 0.  1.
        -13    1    3    3    0    0 -0.23910995548E+02 -0.51610812615E+02 -0.55862084149E+01  0.57154329769E+02  0.00000000000E+00 0. -1.
         22    1    1    2    0    0  0.10388698363E+03  0.56406704639E+03  0.64277436279E+03  0.86146562302E+03  0.00000000000E+00 0.  1.
<mgrwt>
<rscale>  0 0.14678993E+04</rscale>
<asrwt>0</asrwt>
<pdfrwt beam="1">  1        2 0.14332634E+00 0.14678993E+04</pdfrwt>
<pdfrwt beam="2">  1       -2 0.88956934E-01 0.14678993E+04</pdfrwt>
<totfact> 0.29365635E+01</totfact>
</mgrwt>
</event>
<event>
 6    1  0.5040916E-004  0.9610214E+03  0.7818608E-02  0.9352360E-01
          2   -1    0    0  501    0  0.00000000000E+00  0.00000000000E+00  0.23938026055E+03  0.23938026055E+03  0.00000000000E+00 0.  1.
         -2   -1    0    0    0  501 -0.00000000000E+00 -0.00000000000E+00 -0.96453462020E+03  0.96453462020E+03  0.00000000000E+00 0. -1.
         23    2    1    2    0    0  0.83488602770E+01 -0.17988758214E+03  0.18627534404E+03  0.27486517786E+03  0.91777538261E+02 0.  0.
         13    1    3    3    0    0 -0.35361067208E+02 -0.63261095370E+02  0.99383322212E+02  0.12300169103E+03  0.00000000000E+00 0.  1.
        -13    1    3    3    0    0  0.43709927485E+02 -0.11662648677E+03  0.86892021826E+02  0.15186348684E+03  0.00000000000E+00 0. -1.
         22    1    1    2    0    0 -0.83488602770E+01  0.17988758214E+03 -0.91142970368E+03  0.92904970289E+03  0.00000000000E+00 0. -1.
<mgrwt>
<rscale>  0 0.96102143E+03</rscale>
<asrwt>0</asrwt>
<pdfrwt beam="1">  1        2 0.36827733E-01 0.96102143E+03</pdfrwt>
<pdfrwt beam="2">  1       -2 0.14838994E+00 0.96102143E+03</pdfrwt>
<totfact> 0.43544945E+01</totfact>
</mgrwt>
</event>
<event>
 6    1  0.5040916E-004  0.2557069E+04  0.7818608E-02  0.8382932E-01
          2   -1    0    0  501    0  0.00000000000E+00  0.00000000000E+00  0.11299746622E+04  0.11299746622E+04  0.00000000000E+00 0.  1.
         -2   -1    0    0    0  501 -0.00000000000E+00 -0.00000000000E+00 -0.14466261287E+04  0.14466261287E+04  0.00000000000E+00 0. -1.
         23    2    1    2    0    0  0.12105686636E+04  0.21865066123E+03  0.18652747951E+03  0.12475132645E+04  0.90621429527E+02 0.  0.
         11    1    3    3    0    0  0.87149521160E+03  0.12403346249E+03  0.10846421754E+03  0.88693443396E+03  0.00000000000E+00 0. -1.
        -11    1    3    3    0    0  0.33907345203E+03  0.94617198739E+02  0.78063261966E+02  0.36057883055E+03  0.00000000000E+00 0.  1.
         22    1    1    2    0    0 -0.12105686636E+04 -0.21865066123E+03 -0.50317894606E+03  0.13290875264E+04  0.00000000000E+00 0.  1.
<mgrwt>
<rscale>  0 0.25570693E+04</rscale>
<asrwt>0</asrwt>
<pdfrwt beam="1">  1        2 0.17384226E+00 0.25570693E+04</pdfrwt>
<pdfrwt beam="2">  1       -2 0.22255786E+00 0.25570693E+04</pdfrwt>
<totfact> 0.17648662E+00</totfact>
</mgrwt>
</event>
<event>
 6    1  0.5040916E-004  0.1079041E+04  0.7818608E-02  0.9225864E-01
          2   -1    0    0  501    0  0.00000000000E+00  0.00000000000E+00  0.91001260620E+03  0.91001260620E+03  0.00000000000E+00 0.  1.
         -2   -1    0    0    0  501 -0.00000000000E+00 -0.00000000000E+00 -0.31986632296E+03  0.31986632296E+03  0.00000000000E+00 0. -1.
         23    2    1    2    0    0  0.13582009809E+01  0.30469384884E+03 -0.20457540844E+03  0.37874864920E+03  0.93590893249E+02 0.  0.
         13    1    3    3    0    0  0.47121067591E+02  0.16986020365E+03 -0.10884653966E+03  0.20717251987E+03  0.00000000000E+00 0. -1.
        -13    1    3    3    0    0 -0.45762866610E+02  0.13483364519E+03 -0.95728868779E+02  0.17157612932E+03  0.00000000000E+00 0.  1.
         22    1    1    2    0    0 -0.13582009809E+01 -0.30469384884E+03  0.79472169168E+03  0.85113027996E+03  0.00000000000E+00 0.  1.
<mgrwt>
<rscale>  0 0.10790410E+04</rscale>
<asrwt>0</asrwt>
<pdfrwt beam="1">  1        2 0.14000194E+00 0.10790410E+04</pdfrwt>
<pdfrwt beam="2">  1       -2 0.49210204E-01 0.10790410E+04</pdfrwt>
<totfact> 0.11216452E+02</totfact>
</mgrwt>
</event>
<event>
 6    1  0.5040916E-004  0.4092128E+04  0.7818608E-02  0.7986215E-01
          2   -1    0    0  501    0  0.00000000000E+00  0.00000000000E+00  0.26768174530E+04  0.26768174530E+04  0.00000000000E+00 0.  1.
         -2   -1    0    0    0  501 -0.00000000000E+00 -0.00000000000E+00 -0.15639386384E+04  0.15639386384E+04  0.00000000000E+00 0. -1.
         23    2    1    2    0    0  0.56643879531E+03  0.53178147897E+03  0.25171158422E+04  0.26359115257E+04  0.92265693740E+02 0.  0.
         11    1    3    3    0    0  0.38721352775E+03  0.36458515510E+03  0.15719967194E+04  0.16595271426E+04  0.00000000000E+00 0.  1.
        -11    1    3    3    0    0  0.17922526756E+03  0.16719632387E+03  0.94511912281E+03  0.97638438310E+03  0.00000000000E+00 0. -1.
         22    1    1    2    0    0 -0.56643879531E+03 -0.53178147897E+03 -0.14042370276E+04  0.16048445656E+04  0.00000000000E+00 0. -1.
<mgrwt>
<rscale>  0 0.40921282E+04</rscale>
<asrwt>0</asrwt>
<pdfrwt beam="1">  1        2 0.41181807E+00 0.40921282E+04</pdfrwt>
<pdfrwt beam="2">  1       -2 0.24060594E+00 0.40921282E+04</pdfrwt>
<totfact> 0.15761551E-01</totfact>
</mgrwt>
</event>
<event>
 6    1  0.5040916E-004  0.1450451E+04  0.7818608E-02  0.8918088E-01
          2   -1    0    0  501    0  0.00000000000E+00  0.00000000000E+00  0.18485052907E+04  0.18485052907E+04  0.00000000000E+00 0.  1.
         -2   -1    0    0    0  501 -0.00000000000E+00 -0.00000000000E+00 -0.28452825403E+03  0.28452825403E+03  0.00000000000E+00 0. -1.
         23    2    1    2    0    0  0.48399584113E+03 -0.52912797860E+03  0.91320663660E+03  0.11646686829E+04  0.90985646506E+02 0.  0.
         11    1    3    3    0    0  0.18507650582E+03 -0.25403440693E+03  0.35262812883E+03  0.47236997169E+03  0.00000000000E+00 0. -1.
        -11    1    3    3    0    0  0.29891933531E+03 -0.27509357167E+03  0.56057850777E+03  0.69229871123E+03  0.00000000000E+00 0.  1.
         22    1    1    2    0    0 -0.48399584113E+03  0.52912797860E+03  0.65077040007E+03  0.96836486180E+03  0.00000000000E+00 0.  1.
<mgrwt>
<rscale>  0 0.14504509E+04</rscale>
<asrwt>0</asrwt>
<pdfrwt beam="1">  1        2 0.28438542E+00 0.14504509E+04</pdfrwt>
<pdfrwt beam="2">  1       -2 0.43773579E-01 0.14504509E+04</pdfrwt>
<totfact> 0.38925867E+01</totfact>
</mgrwt>
</event>
<event>
 6    1  0.5040916E-004  0.1913109E+04  0.7818608E-02  0.8648359E-01
         -2   -1    0    0    0  501 -0.00000000000E+00  0.00000000000E+00  0.78524066822E+03  0.78524066822E+03  0.00000000000E+00 0. -1.
          2   -1    0    0  501    0  0.00000000000E+00 -0.00000000000E+00 -0.11652434517E+04  0.11652434517E+04  0.00000000000E+00 0.  1.
         23    2    1    2    0    0  0.65974138488E+03 -0.44101899086E+02 -0.89181360721E+03  0.11143298329E+04  0.95894702718E+02 0.  0.
         13    1    3    3    0    0  0.32256645626E+03 -0.35416398025E+02 -0.36089971705E+03  0.48533704342E+03  0.00000000000E+00 0. -1.
        -13    1    3    3    0    0  0.33717492862E+03 -0.86855010604E+01 -0.53091389016E+03  0.62899278945E+03  0.00000000000E+00 0.  1.
         22    1    1    2    0    0 -0.65974138488E+03  0.44101899086E+02  0.51181082374E+03  0.83615428703E+03  0.00000000000E+00 0. -1.
<mgrwt>
<rscale>  0 0.19131090E+04</rscale>
<asrwt>0</asrwt>
<pdfrwt beam="1">  1        2 0.17926822E+00 0.19131090E+04</pdfrwt>
<pdfrwt beam="2">  1       -2 0.12080626E+00 0.19131090E+04</pdfrwt>
<totfact> 0.97119864E+00</totfact>
</mgrwt>
</event>
<event>
 6    1  0.5040916E-004  0.3468879E+04  0.7818608E-02  0.8121205E-01
          2   -1    0    0  501    0  0.00000000000E+00  0.00000000000E+00  0.17821748765E+04  0.17821748765E+04  0.00000000000E+00 0.  1.
         -2   -1    0    0    0  501 -0.00000000000E+00 -0.00000000000E+00 -0.16879828382E+04  0.16879828382E+04  0.00000000000E+00 0. -1.
         23    2    1    2    0    0 -0.95582376346E+03 -0.14219116479E+04 -0.21502062656E+03  0.17291682623E+04  0.91417766375E+02 0.  0.
         13    1    3    3    0    0 -0.16866303811E+03 -0.28988229785E+03 -0.71449719874E+02  0.34290527774E+03  0.00000000000E+00 0. -1.
        -13    1    3    3    0    0 -0.78716072535E+03 -0.11320293501E+04 -0.14357090669E+03  0.13862629845E+04  0.00000000000E+00 0.  1.
         22    1    1    2    0    0  0.95582376346E+03  0.14219116479E+04  0.30921266490E+03  0.17409894524E+04  0.00000000000E+00 0.  1.
<mgrwt>
<rscale>  0 0.34688791E+04</rscale>
<asrwt>0</asrwt>
<pdfrwt beam="1">  1        2 0.27418075E+00 0.34688791E+04</pdfrwt>
<pdfrwt beam="2">  1       -2 0.25968967E+00 0.34688791E+04</pdfrwt>
<totfact> 0.40753457E-01</totfact>
</mgrwt>
</event>
<event>
 6    1  0.5040916E-004  0.1820562E+04  0.7818608E-02  0.8695441E-01
          2   -1    0    0  501    0  0.00000000000E+00  0.00000000000E+00  0.96233888764E+03  0.96233888764E+03  0.00000000000E+00 0.  1.
         -2   -1    0    0    0  501 -0.00000000000E+00 -0.00000000000E+00 -0.86103873640E+03  0.86103873640E+03  0.00000000000E+00 0. -1.
         23    2    1    2    0    0 -0.22925791023E+03  0.64599372539E+03 -0.54534157852E+03  0.88103341447E+03  0.94632750676E+02 0.  0.
         13    1    3    3    0    0 -0.68265930750E+02  0.25206943747E+03 -0.26108043817E+03  0.36927257386E+03  0.00000000000E+00 0. -1.
        -13    1    3    3    0    0 -0.16099197948E+03  0.39392428791E+03 -0.28426114034E+03  0.51176084060E+03  0.00000000000E+00 0.  1.
         22    1    1    2    0    0  0.22925791023E+03 -0.64599372539E+03  0.64664172976E+03  0.94234420957E+03  0.00000000000E+00 0.  1.
<mgrwt>
<rscale>  0 0.18205615E+04</rscale>
<asrwt>0</asrwt>
<pdfrwt beam="1">  1        2 0.14805214E+00 0.18205615E+04</pdfrwt>
<pdfrwt beam="2">  1       -2 0.13246750E+00 0.18205615E+04</pdfrwt>
<totfact> 0.10398676E+01</totfact>
</mgrwt>
</event>
<event>
 6    1  0.5040916E-004  0.4129311E+04  0.7818608E-02  0.7978957E-01
          2   -1    0    0  501    0  0.00000000000E+00  0.00000000000E+00  0.10983925978E+04  0.10983925978E+04  0.00000000000E+00 0.  1.
         -2   -1    0    0    0  501 -0.00000000000E+00 -0.00000000000E+00 -0.38809455444E+04  0.38809455444E+04  0.00000000000E+00 0. -1.
         23    2    1    2    0    0  0.97799488341E+03  0.22831369611E+03  0.78190847750E+03  0.12760981581E+04  0.91893993781E+02 0.  0.
         11    1    3    3    0    0  0.68954832105E+03  0.14924277752E+03  0.49670026782E+03  0.86282179490E+03  0.00000000000E+00 0.  1.
        -11    1    3    3    0    0  0.28844656236E+03  0.79070918593E+02  0.28520820967E+03  0.41327636319E+03  0.00000000000E+00 0. -1.
         22    1    1    2    0    0 -0.97799488341E+03 -0.22831369611E+03 -0.35644614242E+04  0.37032399841E+04  0.00000000000E+00 0. -1.
<mgrwt>
<rscale>  0 0.41293108E+04</rscale>
<asrwt>0</asrwt>
<pdfrwt beam="1">  1        2 0.16898348E+00 0.41293108E+04</pdfrwt>
<pdfrwt beam="2">  1       -2 0.59706854E+00 0.41293108E+04</pdfrwt>
<totfact> 0.88927277E-03</totfact>
</mgrwt>
</event>
<event>
 6    1  0.5040916E-004  0.5937507E+04  0.7818608E-02  0.7698199E-01
          2   -1    0    0  501    0  0.00000000000E+00  0.00000000000E+00  0.32689641926E+04  0.32689641926E+04  0.00000000000E+00 0. -1.
         -2   -1    0    0    0  501 -0.00000000000E+00 -0.00000000000E+00 -0.26961134899E+04  0.26961134899E+04  0.00000000000E+00 0.  1.
         23    2    1    2    0    0  0.23035072157E+04  0.18165028138E+04 -0.16766235741E+03  0.29394888873E+04  0.81586072396E+02 0.  0.
         11    1    3    3    0    0  0.18002357360E+04  0.14521375096E+04 -0.15361467794E+03  0.23180055050E+04  0.00000000000E+00 0.  1.
        -11    1    3    3    0    0  0.50327147969E+03  0.36436530420E+03 -0.14047679472E+02  0.62148338230E+03  0.00000000000E+00 0. -1.
         22    1    1    2    0    0 -0.23035072157E+04 -0.18165028138E+04  0.74051306007E+03  0.30255887952E+04  0.00000000000E+00 0. -1.
<mgrwt>
<rscale>  0 0.59375074E+04</rscale>
<asrwt>0</asrwt>
<pdfrwt beam="1">  1        2 0.50291757E+00 0.59375074E+04</pdfrwt>
<pdfrwt beam="2">  1       -2 0.41478669E+00 0.59375074E+04</pdfrwt>
<totfact> 0.46927148E-03</totfact>
</mgrwt>
</event>
<event>
 6    1  0.5040916E-004  0.1949789E+04  0.7818608E-02  0.8630463E-01
          2   -1    0    0  501    0  0.00000000000E+00  0.00000000000E+00  0.19846380247E+04  0.19846380247E+04  0.00000000000E+00 0.  1.
         -2   -1    0    0    0  501 -0.00000000000E+00 -0.00000000000E+00 -0.47888789638E+03  0.47888789638E+03  0.00000000000E+00 0. -1.
         23    2    1    2    0    0 -0.58690064151E+03  0.12684891503E+03  0.17214887015E+04  0.18254928951E+04  0.91421826902E+02 0.  0.
         11    1    3    3    0    0 -0.14076273172E+03  0.57970025868E+01  0.31730063822E+03  0.34717063081E+03  0.00000000000E+00 0. -1.
        -11    1    3    3    0    0 -0.44613790979E+03  0.12105191244E+03  0.14041880633E+04  0.14783222643E+04  0.00000000000E+00 0.  1.
         22    1    1    2    0    0  0.58690064151E+03 -0.12684891503E+03 -0.21573857319E+03  0.63803302595E+03  0.00000000000E+00 0. -1.
<mgrwt>
<rscale>  0 0.19497888E+04</rscale>
<asrwt>0</asrwt>
<pdfrwt beam="1">  1        2 0.30532892E+00 0.19497888E+04</pdfrwt>
<pdfrwt beam="2">  1       -2 0.73675062E-01 0.19497888E+04</pdfrwt>
<totfact> 0.10557776E+01</totfact>
</mgrwt>
</event>
<event>
 6    1  0.5040916E-004  0.1477795E+04  0.7818608E-02  0.8899355E-01
          2   -1    0    0  501    0  0.00000000000E+00  0.00000000000E+00  0.11366964890E+04  0.11366964890E+04  0.00000000000E+00 0. -1.
         -2   -1    0    0    0  501 -0.00000000000E+00 -0.00000000000E+00 -0.48031250659E+03  0.48031250659E+03  0.00000000000E+00 0.  1.
         23    2    1    2    0    0  0.67104842234E+03 -0.24105229399E+03  0.12982262022E+03  0.73062360441E+03  0.92437790118E+02 0.  0.
         13    1    3    3    0    0  0.28878212512E+03 -0.77810922768E+02  0.93600558448E+02  0.31338589635E+03  0.00000000000E+00 0.  1.
        -13    1    3    3    0    0  0.38226629721E+03 -0.16324137122E+03  0.36222061772E+02  0.41723770805E+03  0.00000000000E+00 0. -1.
         22    1    1    2    0    0 -0.67104842234E+03  0.24105229399E+03  0.52656136219E+03  0.88638539119E+03  0.00000000000E+00 0. -1.
<mgrwt>
<rscale>  0 0.14777950E+04</rscale>
<asrwt>0</asrwt>
<pdfrwt beam="1">  1        2 0.17487638E+00 0.14777950E+04</pdfrwt>
<pdfrwt beam="2">  1       -2 0.73894232E-01 0.14777950E+04</pdfrwt>
<totfact> 0.33040120E+01</totfact>
</mgrwt>
</event>
<event>
 6    1  0.5040916E-004  0.1081014E+04  0.7818608E-02  0.9223897E-01
         -2   -1    0    0    0  501 -0.00000000000E+00  0.00000000000E+00  0.48005867809E+03  0.48005867809E+03  0.00000000000E+00 0. -1.
          2   -1    0    0  501    0  0.00000000000E+00 -0.00000000000E+00 -0.60856651649E+03  0.60856651649E+03  0.00000000000E+00 0.  1.
         23    2    1    2    0    0  0.29777606424E+03  0.44582259016E+03 -0.33283822801E+02  0.54411075080E+03  0.86719835961E+02 0.  0.
         13    1    3    3    0    0  0.33894125609E+02  0.86768653978E+02 -0.32058402206E+02  0.98515746030E+02  0.00000000000E+00 0.  1.
        -13    1    3    3    0    0  0.26388193863E+03  0.35905393618E+03 -0.12254205947E+01  0.44559500477E+03  0.00000000000E+00 0. -1.
         22    1    1    2    0    0 -0.29777606424E+03 -0.44582259016E+03 -0.95224015595E+02  0.54451444377E+03  0.00000000000E+00 0.  1.
<mgrwt>
<rscale>  0 0.10810137E+04</rscale>
<asrwt>0</asrwt>
<pdfrwt beam="1">  1        2 0.93625618E-01 0.10810137E+04</pdfrwt>
<pdfrwt beam="2">  1       -2 0.73855181E-01 0.10810137E+04</pdfrwt>
<totfact> 0.80110682E+01</totfact>
</mgrwt>
</event>
<event>
 6    1  0.5040916E-004  0.1667901E+04  0.7818608E-02  0.8779886E-01
         -2   -1    0    0    0  501 -0.00000000000E+00  0.00000000000E+00  0.22917968715E+04  0.22917968715E+04  0.00000000000E+00 0. -1.
          2   -1    0    0  501    0  0.00000000000E+00 -0.00000000000E+00 -0.30346224658E+03  0.30346224658E+03  0.00000000000E+00 0.  1.
         23    2    1    2    0    0  0.14416321790E+03 -0.23586037773E+03  0.22172874579E+04  0.22363266023E+04  0.91541521207E+02 0.  0.
         11    1    3    3    0    0  0.56137602533E+02 -0.16335943585E+03  0.15187703276E+04  0.15285617566E+04  0.00000000000E+00 0. -1.
        -11    1    3    3    0    0  0.88025615364E+02 -0.72500941884E+02  0.69851713029E+03  0.70776484573E+03  0.00000000000E+00 0.  1.
         22    1    1    2    0    0 -0.14416321790E+03  0.23586037773E+03 -0.22895283295E+03  0.35893251579E+03  0.00000000000E+00 0.  1.
<mgrwt>
<rscale>  0 0.16679015E+04</rscale>
<asrwt>0</asrwt>
<pdfrwt beam="1">  1        2 0.46686501E-01 0.16679015E+04</pdfrwt>
<pdfrwt beam="2">  1       -2 0.35258412E+00 0.16679015E+04</pdfrwt>
<totfact> 0.15573308E+00</totfact>
</mgrwt>
</event>
<event>
 6    1  0.5040916E-004  0.3083666E+04  0.7818608E-02  0.8220235E-01
          2   -1    0    0  501    0  0.00000000000E+00  0.00000000000E+00  0.20753331854E+04  0.20753331854E+04  0.00000000000E+00 0.  1.
         -2   -1    0    0    0  501 -0.00000000000E+00 -0.00000000000E+00 -0.11454781978E+04  0.11454781978E+04  0.00000000000E+00 0. -1.
         23    2    1    2    0    0  0.38264790153E+03 -0.11121475054E+04 -0.57378321173E+03  0.13118275371E+04  0.91503128663E+02 0.  0.
         13    1    3    3    0    0  0.25874966470E+03 -0.78166474810E+03 -0.44637828818E+03  0.93659209027E+03  0.00000000000E+00 0.  1.
        -13    1    3    3    0    0  0.12389823683E+03 -0.33048275734E+03 -0.12740492354E+03  0.37523544680E+03  0.00000000000E+00 0. -1.
         22    1    1    2    0    0 -0.38264790153E+03  0.11121475054E+04  0.15036381993E+04  0.19089838461E+04  0.00000000000E+00 0.  1.
<mgrwt>
<rscale>  0 0.30836659E+04</rscale>
<asrwt>0</asrwt>
<pdfrwt beam="1">  1        2 0.31928203E+00 0.30836659E+04</pdfrwt>
<pdfrwt beam="2">  1       -2 0.17622742E+00 0.30836659E+04</pdfrwt>
<totfact> 0.99331864E-01</totfact>
</mgrwt>
</event>
<event>
 6    1  0.5040916E-004  0.2783482E+04  0.7818608E-02  0.8308415E-01
         -2   -1    0    0    0  501 -0.00000000000E+00  0.00000000000E+00  0.21135161012E+04  0.21135161012E+04  0.00000000000E+00 0. -1.
          2   -1    0    0  501    0  0.00000000000E+00 -0.00000000000E+00 -0.91645553372E+03  0.91645553372E+03  0.00000000000E+00 0.  1.
         23    2    1    2    0    0  0.98755650958E+03  0.20176491816E+03  0.16413660358E+04  0.19284343950E+04  0.93807305353E+02 0.  0.
         13    1    3    3    0    0  0.32853428408E+03  0.79995441169E+02  0.47164685219E+03  0.58033162898E+03  0.00000000000E+00 0. -1.
        -13    1    3    3    0    0  0.65902222550E+03  0.12176947699E+03  0.11697191836E+04  0.13481027660E+04  0.00000000000E+00 0.  1.
         22    1    1    2    0    0 -0.98755650958E+03 -0.20176491816E+03 -0.44430546829E+03  0.11015372399E+04  0.00000000000E+00 0.  1.
<mgrwt>
<rscale>  0 0.27834824E+04</rscale>
<asrwt>0</asrwt>
<pdfrwt beam="1">  1        2 0.14099316E+00 0.27834824E+04</pdfrwt>
<pdfrwt beam="2">  1       -2 0.32515632E+00 0.27834824E+04</pdfrwt>
<totfact> 0.55405175E-01</totfact>
</mgrwt>
</event>
<event>
 6    1  0.5040916E-004  0.1788282E+04  0.7818608E-02  0.8712556E-01
          4   -1    0    0  501    0  0.00000000000E+00  0.00000000000E+00  0.11452304883E+04  0.11452304883E+04  0.00000000000E+00 0.  1.
         -4   -1    0    0    0  501 -0.00000000000E+00 -0.00000000000E+00 -0.69810245413E+03  0.69810245413E+03  0.00000000000E+00 0. -1.
         23    2    1    2    0    0 -0.18874413390E+03  0.75551096442E+03 -0.22366028654E+03  0.81553036575E+03  0.92976815677E+02 0.  0.
         13    1    3    3    0    0 -0.17304644983E+03  0.63224001177E+03 -0.21923614290E+03  0.69118520863E+03  0.00000000000E+00 0.  1.
        -13    1    3    3    0    0 -0.15697684076E+02  0.12327095265E+03 -0.44241436379E+01  0.12434515712E+03  0.00000000000E+00 0. -1.
         22    1    1    2    0    0  0.18874413390E+03 -0.75551096442E+03  0.67078832075E+03  0.10278025767E+04  0.00000000000E+00 0.  1.
<mgrwt>
<rscale>  0 0.17882821E+04</rscale>
<asrwt>0</asrwt>
<pdfrwt beam="1">  1        4 0.17618931E+00 0.17882821E+04</pdfrwt>
<pdfrwt beam="2">  1       -4 0.10740038E+00 0.17882821E+04</pdfrwt>
<totfact> 0.25119539E-01</totfact>
</mgrwt>
</event>
<event>
 6    1  0.5040916E-004  0.3606325E+04  0.7818608E-02  0.8089045E-01
          2   -1    0    0  501    0  0.00000000000E+00  0.00000000000E+00  0.25129595275E+04  0.25129595275E+04  0.00000000000E+00 0.  1.
         -2   -1    0    0    0  501 -0.00000000000E+00 -0.00000000000E+00 -0.12938506424E+04  0.12938506424E+04  0.00000000000E+00 0. -1.
         23    2    1    2    0    0 -0.36928753295E+03 -0.13833204139E+04  0.17643693532E+04  0.22747339226E+04  0.10708199908E+03 0.  0.
         11    1    3    3    0    0 -0.28111920073E+03 -0.11865310798E+04  0.14723769930E+04  0.19117473729E+04  0.00000000000E+00 0. -1.
        -11    1    3    3    0    0 -0.88168332217E+02 -0.19678933411E+03  0.29199236016E+03  0.36298654964E+03  0.00000000000E+00 0.  1.
         22    1    1    2    0    0  0.36928753295E+03  0.13833204139E+04 -0.54526046815E+03  0.15320762473E+04  0.00000000000E+00 0. -1.
<mgrwt>
<rscale>  0 0.36063246E+04</rscale>
<asrwt>0</asrwt>
<pdfrwt beam="1">  1        2 0.38660916E+00 0.36063246E+04</pdfrwt>
<pdfrwt beam="2">  1       -2 0.19905395E+00 0.36063246E+04</pdfrwt>
<totfact> 0.37599226E-01</totfact>
</mgrwt>
</event>
<event>
 6    1  0.5040916E-004  0.3829642E+04  0.7818608E-02  0.8039824E-01
         -2   -1    0    0    0  501 -0.00000000000E+00  0.00000000000E+00  0.14703849732E+04  0.14703849732E+04  0.00000000000E+00 0. -1.
          2   -1    0    0  501    0  0.00000000000E+00 -0.00000000000E+00 -0.24935908970E+04  0.24935908970E+04  0.00000000000E+00 0.  1.
         23    2    1    2    0    0  0.56393677658E+03 -0.52307986212E+03 -0.23257848051E+04  0.24512468885E+04  0.87744621202E+02 0.  0.
         11    1    3    3    0    0  0.15000569622E+03 -0.17062578114E+03 -0.58604659413E+03  0.62854234271E+03  0.00000000000E+00 0. -1.
        -11    1    3    3    0    0  0.41393108036E+03 -0.35245408097E+03 -0.17397382109E+04  0.18227045458E+04  0.00000000000E+00 0.  1.
         22    1    1    2    0    0 -0.56393677658E+03  0.52307986212E+03  0.13025788813E+04  0.15127289818E+04  0.00000000000E+00 0. -1.
<mgrwt>
<rscale>  0 0.38296415E+04</rscale>
<asrwt>0</asrwt>
<pdfrwt beam="1">  1        2 0.38362937E+00 0.38296415E+04</pdfrwt>
<pdfrwt beam="2">  1       -2 0.22621307E+00 0.38296415E+04</pdfrwt>
<totfact> 0.25360167E-01</totfact>
</mgrwt>
</event>
<event>
 6    1  0.5040916E-004  0.4381036E+04  0.7818608E-02  0.7931801E-01
         -2   -1    0    0    0  501 -0.00000000000E+00  0.00000000000E+00  0.22379911828E+04  0.22379911828E+04  0.00000000000E+00 0. -1.
          2   -1    0    0  501    0  0.00000000000E+00 -0.00000000000E+00 -0.21440520397E+04  0.21440520397E+04  0.00000000000E+00 0.  1.
         23    2    1    2    0    0 -0.50270287963E+03  0.16675553722E+04  0.13742164000E+04  0.22204324899E+04  0.91644005379E+02 0.  0.
         13    1    3    3    0    0 -0.99301942951E+02  0.47131317675E+03  0.37953376618E+03  0.61322334114E+03  0.00000000000E+00 0.  1.
        -13    1    3    3    0    0 -0.40340093668E+03  0.11962421954E+04  0.99468263386E+03  0.16072091488E+04  0.00000000000E+00 0. -1.
         22    1    1    2    0    0  0.50270287963E+03 -0.16675553722E+04 -0.12802772569E+04  0.21616107325E+04  0.00000000000E+00 0.  1.
<mgrwt>
<rscale>  0 0.43810362E+04</rscale>
<asrwt>0</asrwt>
<pdfrwt beam="1">  1        2 0.32985416E+00 0.43810362E+04</pdfrwt>
<pdfrwt beam="2">  1       -2 0.34430634E+00 0.43810362E+04</pdfrwt>
<totfact> 0.71754698E-02</totfact>
</mgrwt>
</event>
<event>
 6    1  0.5040916E-004  0.3107298E+04  0.7818608E-02  0.8213738E-01
         -1   -1    0    0    0  501 -0.00000000000E+00  0.00000000000E+00  0.10489168196E+04  0.10489168196E+04  0.00000000000E+00 0. -1.
          1   -1    0    0  501    0  0.00000000000E+00 -0.00000000000E+00 -0.23012552165E+04  0.23012552165E+04  0.00000000000E+00 0.  1.
         23    2    1    2    0    0 -0.47503120341E+03  0.92237370482E+03 -0.18716855946E+04  0.21418596399E+04  0.89038511025E+02 0.  0.
         13    1    3    3    0    0 -0.34207828953E+03  0.62657117742E+03 -0.12077287733E+04  0.14029318538E+04  0.00000000000E+00 0.  1.
        -13    1    3    3    0    0 -0.13295291388E+03  0.29580252739E+03 -0.66395682129E+03  0.73892778609E+03  0.00000000000E+00 0. -1.
         22    1    1    2    0    0  0.47503120341E+03 -0.92237370482E+03  0.61934719775E+03  0.12083123962E+04  0.00000000000E+00 0. -1.
<mgrwt>
<rscale>  0 0.31072981E+04</rscale>
<asrwt>0</asrwt>
<pdfrwt beam="1">  1        1 0.35403926E+00 0.31072981E+04</pdfrwt>
<pdfrwt beam="2">  1       -1 0.16137182E+00 0.31072981E+04</pdfrwt>
<totfact> 0.44686967E-01</totfact>
</mgrwt>
</event>
<event>
 6    1  0.5040916E-004  0.2961243E+04  0.7818608E-02  0.8254885E-01
          2   -1    0    0  501    0  0.00000000000E+00  0.00000000000E+00  0.37094939399E+04  0.37094939399E+04  0.00000000000E+00 0.  1.
         -2   -1    0    0    0  501 -0.00000000000E+00 -0.00000000000E+00 -0.59098098534E+03  0.59098098534E+03  0.00000000000E+00 0. -1.
         23    2    1    2    0    0 -0.51081426833E+03 -0.11579946069E+04  0.26725966666E+04  0.29585643238E+04  0.91908592901E+02 0.  0.
         11    1    3    3    0    0 -0.36630222580E+03 -0.87239354473E+03  0.20785635433E+04  0.22837850645E+04  0.00000000000E+00 0. -1.
        -11    1    3    3    0    0 -0.14451204253E+03 -0.28560106220E+03  0.59403312326E+03  0.67477925924E+03  0.00000000000E+00 0.  1.
         22    1    1    2    0    0  0.51081426833E+03  0.11579946069E+04  0.44591628800E+03  0.13419106015E+04  0.00000000000E+00 0. -1.
<mgrwt>
<rscale>  0 0.29612432E+04</rscale>
<asrwt>0</asrwt>
<pdfrwt beam="1">  1        2 0.57069136E+00 0.29612432E+04</pdfrwt>
<pdfrwt beam="2">  1       -2 0.90920154E-01 0.29612432E+04</pdfrwt>
<totfact> 0.50879666E-01</totfact>
</mgrwt>
</event>
<event>
 6    1  0.5040916E-004  0.1241227E+04  0.7818608E-02  0.9077517E-01
         -2   -1    0    0    0  501 -0.00000000000E+00  0.00000000000E+00  0.66544624535E+03  0.66544624535E+03  0.00000000000E+00 0. -1.
          2   -1    0    0  501    0  0.00000000000E+00 -0.00000000000E+00 -0.57880133431E+03  0.57880133431E+03  0.00000000000E+00 0.  1.
         23    2    1    2    0    0  0.29692086715E+03 -0.23391303345E+03 -0.44538754120E+03  0.59160997823E+03  0.93568135165E+02 0.  0.
         13    1    3    3    0    0  0.64856216916E+02 -0.79842870257E+02 -0.71102471881E+02  0.12504708837E+03  0.00000000000E+00 0.  1.
        -13    1    3    3    0    0  0.23206465023E+03 -0.15407016319E+03 -0.37428506932E+03  0.46656288985E+03  0.00000000000E+00 0. -1.
         22    1    1    2    0    0 -0.29692086715E+03  0.23391303345E+03  0.53203245224E+03  0.65263760143E+03  0.00000000000E+00 0. -1.
<mgrwt>
<rscale>  0 0.12412271E+04</rscale>
<asrwt>0</asrwt>
<pdfrwt beam="1">  1        2 0.89046360E-01 0.12412271E+04</pdfrwt>
<pdfrwt beam="2">  1       -2 0.10237634E+00 0.12412271E+04</pdfrwt>
<totfact> 0.39818592E+01</totfact>
</mgrwt>
</event>
<event>
 6    1  0.5040916E-004  0.2145135E+04  0.7818608E-02  0.8541618E-01
          2   -1    0    0  501    0  0.00000000000E+00  0.00000000000E+00  0.11794332340E+04  0.11794332340E+04  0.00000000000E+00 0.  1.
         -2   -1    0    0    0  501 -0.00000000000E+00 -0.00000000000E+00 -0.97538438235E+03  0.97538438235E+03  0.00000000000E+00 0. -1.
         23    2    1    2    0    0 -0.35249079157E+02  0.93585473513E+03  0.62339463768E+03  0.11286999472E+04  0.90973147650E+02 0.  0.
         13    1    3    3    0    0  0.59268904016E+01  0.75058706810E+03  0.48219849267E+03  0.89214990958E+03  0.00000000000E+00 0.  1.
        -13    1    3    3    0    0 -0.41175969558E+02  0.18526766703E+03  0.14119614501E+03  0.23655003758E+03  0.00000000000E+00 0. -1.
         22    1    1    2    0    0  0.35249079157E+02 -0.93585473513E+03 -0.41934578600E+03  0.10261176692E+04  0.00000000000E+00 0. -1.
<mgrwt>
<rscale>  0 0.21451347E+04</rscale>
<asrwt>0</asrwt>
<pdfrwt beam="1">  1        2 0.18145127E+00 0.21451347E+04</pdfrwt>
<pdfrwt beam="2">  1       -2 0.15005914E+00 0.21451347E+04</pdfrwt>
<totfact> 0.53555865E+00</totfact>
</mgrwt>
</event>
<event>
 6    1  0.5040916E-004  0.8183768E+03  0.7818608E-02  0.9533792E-01
         -1   -1    0    0    0  501 -0.00000000000E+00  0.00000000000E+00  0.14383472871E+04  0.14383472871E+04  0.00000000000E+00 0. -1.
          1   -1    0    0  501    0  0.00000000000E+00 -0.00000000000E+00 -0.11640801335E+03  0.11640801335E+03  0.00000000000E+00 0.  1.
         23    2    1    2    0    0  0.23228272106E+03  0.31094893496E+03  0.88241636116E+03  0.96838946470E+03  0.92059862272E+02 0.  0.
         13    1    3    3    0    0  0.23870364291E+03  0.29586902884E+03  0.81963566160E+03  0.90350458169E+03  0.00000000000E+00 0.  1.
        -13    1    3    3    0    0 -0.64209218504E+01  0.15079906115E+02  0.62780699563E+02  0.64884883012E+02  0.00000000000E+00 0. -1.
         22    1    1    2    0    0 -0.23228272106E+03 -0.31094893496E+03  0.43952291263E+03  0.58636583579E+03  0.00000000000E+00 0.  1.
<mgrwt>
<rscale>  0 0.81837681E+03</rscale>
<asrwt>0</asrwt>
<pdfrwt beam="1">  1        1 0.17908926E-01 0.81837681E+03</pdfrwt>
<pdfrwt beam="2">  1       -1 0.22128419E+00 0.81837681E+03</pdfrwt>
<totfact> 0.33469249E+01</totfact>
</mgrwt>
</event>
<event>
 6    1  0.5040916E-004  0.3135345E+04  0.7818608E-02  0.8206104E-01
          2   -1    0    0  501    0  0.00000000000E+00  0.00000000000E+00  0.17240257622E+04  0.17240257622E+04  0.00000000000E+00 0.  1.
         -2   -1    0    0    0  501 -0.00000000000E+00 -0.00000000000E+00 -0.14254993884E+04  0.14254993884E+04  0.00000000000E+00 0. -1.
         23    2    1    2    0    0  0.64194697909E+03 -0.12774067722E+04  0.79170164313E+03  0.16372137303E+04  0.99062210247E+02 0.  0.
         11    1    3    3    0    0  0.34600483182E+03 -0.79445706853E+03  0.46839045821E+03  0.98502334933E+03  0.00000000000E+00 0.  1.
        -11    1    3    3    0    0  0.29594214727E+03 -0.48294970364E+03  0.32331118492E+03  0.65219038100E+03  0.00000000000E+00 0. -1.
         22    1    1    2    0    0 -0.64194697909E+03  0.12774067722E+04 -0.49317526926E+03  0.15123114202E+04  0.00000000000E+00 0. -1.
<mgrwt>
<rscale>  0 0.31353454E+04</rscale>
<asrwt>0</asrwt>
<pdfrwt beam="1">  1        2 0.26523473E+00 0.31353454E+04</pdfrwt>
<pdfrwt beam="2">  1       -2 0.21930760E+00 0.31353454E+04</pdfrwt>
<totfact> 0.80381929E-01</totfact>
</mgrwt>
</event>
<event>
 6    1  0.5040916E-004  0.1727873E+04  0.7818608E-02  0.8745625E-01
         -2   -1    0    0    0  501 -0.00000000000E+00  0.00000000000E+00  0.19576290417E+03  0.19576290417E+03  0.00000000000E+00 0. -1.
          2   -1    0    0  501    0  0.00000000000E+00 -0.00000000000E+00 -0.38127053871E+04  0.38127053871E+04  0.00000000000E+00 0.  1.
         23    2    1    2    0    0  0.63281952287E+03 -0.10932508343E+01 -0.31698709947E+04  0.32336556305E+04  0.89358099685E+02 0.  0.
         13    1    3    3    0    0  0.45814186322E+03 -0.27339126413E+02 -0.21295719858E+04  0.21784669466E+04  0.00000000000E+00 0. -1.
        -13    1    3    3    0    0  0.17467765965E+03  0.26245875579E+02 -0.10402990089E+04  0.10551886839E+04  0.00000000000E+00 0.  1.
         22    1    1    2    0    0 -0.63281952287E+03  0.10932508343E+01 -0.44707148828E+03  0.77481266081E+03  0.00000000000E+00 0. -1.
<mgrwt>
<rscale>  0 0.17278730E+04</rscale>
<asrwt>0</asrwt>
<pdfrwt beam="1">  1        2 0.58657010E+00 0.17278730E+04</pdfrwt>
<pdfrwt beam="2">  1       -2 0.30117368E-01 0.17278730E+04</pdfrwt>
<totfact> 0.47058259E+00</totfact>
</mgrwt>
</event>
<event>
 6    1  0.5040916E-004  0.8370541E+03  0.7818608E-02  0.9507879E-01
         -2   -1    0    0    0  501 -0.00000000000E+00  0.00000000000E+00  0.44259164045E+03  0.44259164045E+03  0.00000000000E+00 0. -1.
          2   -1    0    0  501    0  0.00000000000E+00 -0.00000000000E+00 -0.39577086719E+03  0.39577086719E+03  0.00000000000E+00 0.  1.
         23    2    1    2    0    0  0.12020140130E+03 -0.13840083930E+03  0.39480022910E+03  0.44505236172E+03  0.92742733309E+02 0.  0.
         13    1    3    3    0    0  0.47197799756E+02 -0.33593969698E+02  0.22639281733E+03  0.23368760096E+03  0.00000000000E+00 0. -1.
        -13    1    3    3    0    0  0.73003601548E+02 -0.10480686960E+03  0.16840741178E+03  0.21136476077E+03  0.00000000000E+00 0.  1.
         22    1    1    2    0    0 -0.12020140130E+03  0.13840083930E+03 -0.34797945584E+03  0.39331014592E+03  0.00000000000E+00 0.  1.
<mgrwt>
<rscale>  0 0.83705407E+03</rscale>
<asrwt>0</asrwt>
<pdfrwt beam="1">  1        2 0.60887826E-01 0.83705407E+03</pdfrwt>
<pdfrwt beam="2">  1       -2 0.68091022E-01 0.83705407E+03</pdfrwt>
<totfact> 0.15993991E+02</totfact>
</mgrwt>
</event>
<event>
 6    1  0.5040916E-004  0.4187390E+04  0.7818608E-02  0.7967775E-01
         -2   -1    0    0    0  501 -0.00000000000E+00  0.00000000000E+00  0.16082726310E+04  0.16082726310E+04  0.00000000000E+00 0. -1.
          2   -1    0    0  501    0  0.00000000000E+00 -0.00000000000E+00 -0.27256318364E+04  0.27256318364E+04  0.00000000000E+00 0.  1.
         23    2    1    2    0    0 -0.73991731485E+03  0.10375844301E+04  0.11590915985E+04  0.17250182405E+04  0.90197082894E+02 0.  0.
         13    1    3    3    0    0 -0.41644886841E+03  0.59800498703E+03  0.72159553505E+03  0.10255436318E+04  0.00000000000E+00 0.  1.
        -13    1    3    3    0    0 -0.32346844644E+03  0.43957944312E+03  0.43749606345E+03  0.69947460868E+03  0.00000000000E+00 0. -1.
         22    1    1    2    0    0  0.73991731485E+03 -0.10375844301E+04 -0.22764508039E+04  0.26088862269E+04  0.00000000000E+00 0.  1.
<mgrwt>
<rscale>  0 0.41873902E+04</rscale>
<asrwt>0</asrwt>
<pdfrwt beam="1">  1        2 0.41932797E+00 0.41873902E+04</pdfrwt>
<pdfrwt beam="2">  1       -2 0.24742656E+00 0.41873902E+04</pdfrwt>
<totfact> 0.13274729E-01</totfact>
</mgrwt>
</event>
<event>
 6    1  0.5040916E-004  0.3957190E+04  0.7818608E-02  0.8013239E-01
         -2   -1    0    0    0  501 -0.00000000000E+00  0.00000000000E+00  0.18915894868E+04  0.18915894868E+04  0.00000000000E+00 0. -1.
          2   -1    0    0  501    0  0.00000000000E+00 -0.00000000000E+00 -0.20696022832E+04  0.20696022832E+04  0.00000000000E+00 0.  1.
         23    2    1    2    0    0 -0.11222998823E+04 -0.70101530085E+03  0.13820209645E+04  0.19155415524E+04  0.91312732062E+02 0.  0.
         11    1    3    3    0    0 -0.21555308662E+03 -0.97162935350E+02  0.22595074073E+03  0.32704358485E+03  0.00000000000E+00 0. -1.
        -11    1    3    3    0    0 -0.90674679567E+03 -0.60385236550E+03  0.11560702237E+04  0.15884979676E+04  0.00000000000E+00 0.  1.
         22    1    1    2    0    0  0.11222998823E+04  0.70101530085E+03 -0.15600337608E+04  0.20456502176E+04  0.00000000000E+00 0.  1.
<mgrwt>
<rscale>  0 0.39571899E+04</rscale>
<asrwt>0</asrwt>
<pdfrwt beam="1">  1        2 0.31840035E+00 0.39571899E+04</pdfrwt>
<pdfrwt beam="2">  1       -2 0.29101377E+00 0.39571899E+04</pdfrwt>
<totfact> 0.17448312E-01</totfact>
</mgrwt>
</event>
<event>
 6    1  0.5040916E-004  0.2092343E+04  0.7818608E-02  0.8564624E-01
          2   -1    0    0  501    0  0.00000000000E+00  0.00000000000E+00  0.55286598127E+03  0.55286598127E+03  0.00000000000E+00 0.  1.
         -2   -1    0    0    0  501 -0.00000000000E+00 -0.00000000000E+00 -0.19796392884E+04  0.19796392884E+04  0.00000000000E+00 0. -1.
         23    2    1    2    0    0 -0.60742699781E+03 -0.83209540448E+03 -0.51118863630E+03  0.11542289515E+04  0.97879163835E+02 0.  0.
         11    1    3    3    0    0 -0.46707460117E+02 -0.41660621525E+02 -0.10673268886E+02  0.63491045709E+02  0.00000000000E+00 0.  1.
        -11    1    3    3    0    0 -0.56071953769E+03 -0.79043478296E+03 -0.50051536742E+03  0.10907379058E+04  0.00000000000E+00 0. -1.
         22    1    1    2    0    0  0.60742699781E+03  0.83209540448E+03 -0.91558467080E+03  0.13782763182E+04  0.00000000000E+00 0.  1.
<mgrwt>
<rscale>  0 0.20923434E+04</rscale>
<asrwt>0</asrwt>
<pdfrwt beam="1">  1        2 0.85056305E-01 0.20923434E+04</pdfrwt>
<pdfrwt beam="2">  1       -2 0.30455989E+00 0.20923434E+04</pdfrwt>
<totfact> 0.15049590E+00</totfact>
</mgrwt>
</event>
<event>
 6    1  0.5040916E-004  0.1697009E+04  0.7818608E-02  0.8763072E-01
         -2   -1    0    0    0  501 -0.00000000000E+00  0.00000000000E+00  0.28943636222E+03  0.28943636222E+03  0.00000000000E+00 0. -1.
          2   -1    0    0  501    0  0.00000000000E+00 -0.00000000000E+00 -0.24874534571E+04  0.24874534571E+04  0.00000000000E+00 0.  1.
         23    2    1    2    0    0 -0.39463991691E+03  0.60293442463E+02 -0.23233860926E+04  0.23584482478E+04  0.69132038911E+02 0.  0.
         13    1    3    3    0    0 -0.17694938494E+03  0.51235885872E+02 -0.92165818836E+03  0.93988830028E+03  0.00000000000E+00 0. -1.
        -13    1    3    3    0    0 -0.21769053197E+03  0.90575565917E+01 -0.14017279043E+04  0.14185599475E+04  0.00000000000E+00 0.  1.
         22    1    1    2    0    0  0.39463991691E+03 -0.60293442463E+02  0.12536899774E+03  0.41844157157E+03  0.00000000000E+00 0. -1.
<mgrwt>
<rscale>  0 0.16970085E+04</rscale>
<asrwt>0</asrwt>
<pdfrwt beam="1">  1        2 0.38268514E+00 0.16970085E+04</pdfrwt>
<pdfrwt beam="2">  1       -2 0.44528671E-01 0.16970085E+04</pdfrwt>
<totfact> 0.16140101E+01</totfact>
</mgrwt>
</event>
<event>
 6    1  0.5040916E-004  0.1034781E+04  0.7818608E-02  0.9271200E-01
          2   -1    0    0  501    0  0.00000000000E+00  0.00000000000E+00  0.15116657424E+04  0.15116657424E+04  0.00000000000E+00 0.  1.
         -2   -1    0    0    0  501 -0.00000000000E+00 -0.00000000000E+00 -0.17708462172E+03  0.17708462172E+03  0.00000000000E+00 0. -1.
         23    2    1    2    0    0  0.25386549785E+03  0.21136873005E+03  0.30646707025E+02  0.34362234562E+03  0.89513489022E+02 0.  0.
         11    1    3    3    0    0  0.70942985461E+02  0.23966220440E+02  0.32762373681E+02  0.81735304719E+02  0.00000000000E+00 0. -1.
        -11    1    3    3    0    0  0.18292251239E+03  0.18740250961E+03 -0.21156666565E+01  0.26188704090E+03  0.00000000000E+00 0.  1.
         22    1    1    2    0    0 -0.25386549785E+03 -0.21136873005E+03  0.13039344136E+04  0.13451280185E+04  0.00000000000E+00 0.  1.
<mgrwt>
<rscale>  0 0.10347807E+04</rscale>
<asrwt>0</asrwt>
<pdfrwt beam="1">  1        2 0.23256395E+00 0.10347807E+04</pdfrwt>
<pdfrwt beam="2">  1       -2 0.27243789E-01 0.10347807E+04</pdfrwt>
<totfact> 0.15263900E+02</totfact>
</mgrwt>
</event>
<event>
 6    1  0.5040916E-004  0.2461241E+04  0.7818608E-02  0.8416925E-01
          2   -1    0    0  501    0  0.00000000000E+00  0.00000000000E+00  0.32035296018E+04  0.32035296018E+04  0.00000000000E+00 0.  1.
         -2   -1    0    0    0  501 -0.00000000000E+00 -0.00000000000E+00 -0.47273706889E+03  0.47273706889E+03  0.00000000000E+00 0. -1.
         23    2    1    2    0    0 -0.91963386786E+03  0.80930719044E+03  0.12212461987E+04  0.17321898423E+04  0.91295085476E+02 0.  0.
         13    1    3    3    0    0 -0.32374474336E+03  0.33896028403E+03  0.49155127104E+03  0.67921085465E+03  0.00000000000E+00 0. -1.
        -13    1    3    3    0    0 -0.59588912450E+03  0.47034690641E+03  0.72969492767E+03  0.10529789877E+04  0.00000000000E+00 0.  1.
         22    1    1    2    0    0  0.91963386786E+03 -0.80930719044E+03  0.15095463342E+04  0.19440768283E+04  0.00000000000E+00 0.  1.
<mgrwt>
<rscale>  0 0.24612413E+04</rscale>
<asrwt>0</asrwt>
<pdfrwt beam="1">  1        2 0.49285069E+00 0.24612413E+04</pdfrwt>
<pdfrwt beam="2">  1       -2 0.72728782E-01 0.24612413E+04</pdfrwt>
<totfact> 0.19739442E+00</totfact>
</mgrwt>
</event>
<event>
 6    1  0.5040916E-004  0.1865785E+04  0.7818608E-02  0.8672077E-01
          2   -1    0    0  501    0  0.00000000000E+00  0.00000000000E+00  0.89220588948E+03  0.89220588948E+03  0.00000000000E+00 0.  1.
         -2   -1    0    0    0  501 -0.00000000000E+00 -0.00000000000E+00 -0.97543437388E+03  0.97543437388E+03  0.00000000000E+00 0. -1.
         23    2    1    2    0    0 -0.53321280416E+03  0.42183976142E+03  0.59434386870E+03  0.90776059771E+03  0.92303790022E+02 0.  0.
         13    1    3    3    0    0 -0.27752940150E+03  0.27759981411E+03  0.33524783369E+03  0.51621249064E+03  0.00000000000E+00 0. -1.
        -13    1    3    3    0    0 -0.25568340266E+03  0.14423994731E+03  0.25909603501E+03  0.39154810707E+03  0.00000000000E+00 0.  1.
         22    1    1    2    0    0  0.53321280416E+03 -0.42183976142E+03 -0.67757235310E+03  0.95987966565E+03  0.00000000000E+00 0. -1.
<mgrwt>
<rscale>  0 0.18657849E+04</rscale>
<asrwt>0</asrwt>
<pdfrwt beam="1">  1        2 0.13726245E+00 0.18657849E+04</pdfrwt>
<pdfrwt beam="2">  1       -2 0.15006683E+00 0.18657849E+04</pdfrwt>
<totfact> 0.83397514E+00</totfact>
</mgrwt>
</event>
<event>
 6    1  0.5040916E-004  0.2752230E+04  0.7818608E-02  0.8318254E-01
          2   -1    0    0  501    0  0.00000000000E+00  0.00000000000E+00  0.25122388803E+04  0.25122388803E+04  0.00000000000E+00 0.  1.
         -2   -1    0    0    0  501 -0.00000000000E+00 -0.00000000000E+00 -0.75378672618E+03  0.75378672618E+03  0.00000000000E+00 0. -1.
         23    2    1    2    0    0  0.62494280013E+03  0.80210699494E+03  0.19772393829E+04  0.22259309058E+04  0.10660058775E+03 0.  0.
         11    1    3    3    0    0  0.71635757465E+02  0.54788232031E+02  0.13550038186E+03  0.16276911747E+03  0.00000000000E+00 0. -1.
        -11    1    3    3    0    0  0.55330704266E+03  0.74731876291E+03  0.18417390011E+04  0.20631617884E+04  0.00000000000E+00 0.  1.
         22    1    1    2    0    0 -0.62494280013E+03 -0.80210699494E+03 -0.21878722884E+03  0.10400947006E+04  0.00000000000E+00 0. -1.
<mgrwt>
<rscale>  0 0.27522299E+04</rscale>
<asrwt>0</asrwt>
<pdfrwt beam="1">  1        2 0.38649829E+00 0.27522299E+04</pdfrwt>
<pdfrwt beam="2">  1       -2 0.11596719E+00 0.27522299E+04</pdfrwt>
<totfact> 0.17278268E+00</totfact>
</mgrwt>
</event>
<event>
 6    1  0.5040916E-004  0.1203632E+04  0.7818608E-02  0.9109683E-01
         -4   -1    0    0    0  501 -0.00000000000E+00  0.00000000000E+00  0.49714413373E+03  0.49714413373E+03  0.00000000000E+00 0. -1.
          4   -1    0    0  501    0  0.00000000000E+00 -0.00000000000E+00 -0.72852630955E+03  0.72852630955E+03  0.00000000000E+00 0.  1.
         23    2    1    2    0    0 -0.23456300740E+02  0.28752808686E+03  0.41720335102E+03  0.51582131536E+03  0.93757103675E+02 0.  0.
         13    1    3    3    0    0  0.27000870643E+01  0.25120069996E+02  0.10086702263E+03  0.10398300169E+03  0.00000000000E+00 0.  1.
        -13    1    3    3    0    0 -0.26156387805E+02  0.26240801687E+03  0.31633632840E+03  0.41183831367E+03  0.00000000000E+00 0. -1.
         22    1    1    2    0    0  0.23456300740E+02 -0.28752808686E+03 -0.64858552685E+03  0.70984912792E+03  0.00000000000E+00 0.  1.
<mgrwt>
<rscale>  0 0.12036321E+04</rscale>
<asrwt>0</asrwt>
<pdfrwt beam="1">  1        4 0.11208097E+00 0.12036321E+04</pdfrwt>
<pdfrwt beam="2">  1       -4 0.76483713E-01 0.12036321E+04</pdfrwt>
<totfact> 0.18932417E+00</totfact>
</mgrwt>
</event>
<event>
 6    1  0.5040916E-004  0.2089654E+04  0.7818608E-02  0.8565815E-01
          2   -1    0    0  501    0  0.00000000000E+00  0.00000000000E+00  0.17849480478E+04  0.17849480478E+04  0.00000000000E+00 0.  1.
         -2   -1    0    0    0  501 -0.00000000000E+00 -0.00000000000E+00 -0.61159371309E+03  0.61159371309E+03  0.00000000000E+00 0. -1.
         23    2    1    2    0    0  0.65895538247E+03 -0.63867094287E+03  0.11556706832E+04  0.14786989199E+04  0.94090372091E+02 0.  0.
         11    1    3    3    0    0  0.45272993745E+03 -0.37594503550E+03  0.74127431135E+03  0.94646007346E+03  0.00000000000E+00 0. -1.
        -11    1    3    3    0    0  0.20622544502E+03 -0.26272590737E+03  0.41439637190E+03  0.53223884640E+03  0.00000000000E+00 0.  1.
         22    1    1    2    0    0 -0.65895538247E+03  0.63867094287E+03  0.17683651494E+02  0.91784284106E+03  0.00000000000E+00 0. -1.
<mgrwt>
<rscale>  0 0.20896536E+04</rscale>
<asrwt>0</asrwt>
<pdfrwt beam="1">  1        2 0.27460739E+00 0.20896536E+04</pdfrwt>
<pdfrwt beam="2">  1       -2 0.94091341E-01 0.20896536E+04</pdfrwt>
<totfact> 0.77332025E+00</totfact>
</mgrwt>
</event>
<event>
 6    1  0.5040916E-004  0.7929130E+03  0.7818608E-02  0.9570332E-01
         -1   -1    0    0    0  501 -0.00000000000E+00  0.00000000000E+00  0.22452278850E+03  0.22452278850E+03  0.00000000000E+00 0. -1.
          1   -1    0    0  501    0  0.00000000000E+00 -0.00000000000E+00 -0.70005265404E+03  0.70005265404E+03  0.00000000000E+00 0.  1.
         23    2    1    2    0    0  0.21695343304E+03 -0.29005756842E+03 -0.41342743537E+03  0.55707184128E+03  0.90579285293E+02 0.  0.
         11    1    3    3    0    0  0.11463802714E+03 -0.84558190038E+02 -0.18176532865E+03  0.23093418861E+03  0.00000000000E+00 0.  1.
        -11    1    3    3    0    0  0.10231540590E+03 -0.20549937838E+03 -0.23166210672E+03  0.32613765267E+03  0.00000000000E+00 0. -1.
         22    1    1    2    0    0 -0.21695343304E+03  0.29005756842E+03 -0.62102430174E+02  0.36750360126E+03  0.00000000000E+00 0. -1.
<mgrwt>
<rscale>  0 0.79291304E+03</rscale>
<asrwt>0</asrwt>
<pdfrwt beam="1">  1        1 0.10770041E+00 0.79291304E+03</pdfrwt>
<pdfrwt beam="2">  1       -1 0.34541968E-01 0.79291304E+03</pdfrwt>
<totfact> 0.21865766E+02</totfact>
</mgrwt>
</event>
<event>
 6    1  0.5040916E-004  0.1774338E+04  0.7818608E-02  0.8720066E-01
          1   -1    0    0  501    0  0.00000000000E+00  0.00000000000E+00  0.17179980314E+04  0.17179980314E+04  0.00000000000E+00 0.  1.
         -1   -1    0    0    0  501 -0.00000000000E+00 -0.00000000000E+00 -0.45813151721E+03  0.45813151721E+03  0.00000000000E+00 0. -1.
         23    2    1    2    0    0 -0.10737727158E+03  0.19744555680E+03  0.16812817142E+04  0.16985257409E+04  0.88129810515E+02 0.  0.
         11    1    3    3    0    0 -0.11785382594E+03  0.14875534260E+03  0.14093580025E+04  0.14220786390E+04  0.00000000000E+00 0.  1.
        -11    1    3    3    0    0  0.10476554365E+02  0.48690214198E+02  0.27192371171E+03  0.27644710188E+03  0.00000000000E+00 0. -1.
         22    1    1    2    0    0  0.10737727158E+03 -0.19744555680E+03 -0.42141520003E+03  0.47760380774E+03  0.00000000000E+00 0. -1.
<mgrwt>
<rscale>  0 0.17743382E+04</rscale>
<asrwt>0</asrwt>
<pdfrwt beam="1">  1        1 0.26430739E+00 0.17743382E+04</pdfrwt>
<pdfrwt beam="2">  1       -1 0.70481773E-01 0.17743382E+04</pdfrwt>
<totfact> 0.89125141E+00</totfact>
</mgrwt>
</event>
<event>
 6    1  0.5040916E-004  0.2332762E+04  0.7818608E-02  0.8465115E-01
          2   -1    0    0  501    0  0.00000000000E+00  0.00000000000E+00  0.28213771335E+04  0.28213771335E+04  0.00000000000E+00 0.  1.
         -2   -1    0    0    0  501 -0.00000000000E+00 -0.00000000000E+00 -0.48219151938E+03  0.48219151938E+03  0.00000000000E+00 0. -1.
         23    2    1    2    0    0  0.63812176631E+02  0.72494363276E+03  0.24589390254E+04  0.25660348272E+04  0.92403134837E+02 0.  0.
         13    1    3    3    0    0  0.67701746620E+02  0.58620884399E+03  0.20952692825E+04  0.21767815006E+04  0.00000000000E+00 0. -1.
        -13    1    3    3    0    0 -0.38895699889E+01  0.13873478876E+03  0.36366974291E+03  0.38925332661E+03  0.00000000000E+00 0.  1.
         22    1    1    2    0    0 -0.63812176631E+02 -0.72494363276E+03 -0.11975341122E+03  0.73753382571E+03  0.00000000000E+00 0. -1.
<mgrwt>
<rscale>  0 0.23327616E+04</rscale>
<asrwt>0</asrwt>
<pdfrwt beam="1">  1        2 0.43405801E+00 0.23327616E+04</pdfrwt>
<pdfrwt beam="2">  1       -2 0.74183313E-01 0.23327616E+04</pdfrwt>
<totfact> 0.33211679E+00</totfact>
</mgrwt>
</event>
<event>
 6    1  0.5040916E-004  0.1365169E+04  0.7818608E-02  0.8979424E-01
          1   -1    0    0  501    0  0.00000000000E+00  0.00000000000E+00  0.28570732464E+03  0.28570732464E+03  0.00000000000E+00 0.  1.
         -1   -1    0    0    0  501 -0.00000000000E+00 -0.00000000000E+00 -0.16307659416E+04  0.16307659416E+04  0.00000000000E+00 0. -1.
         23    2    1    2    0    0 -0.18780714883E+03  0.38752812102E+03 -0.14134689242E+04  0.14804348048E+04  0.91341348003E+02 0.  0.
         11    1    3    3    0    0 -0.72093516228E+02  0.73940536260E+02 -0.40777511689E+03  0.42064857534E+03  0.00000000000E+00 0. -1.
        -11    1    3    3    0    0 -0.11571363260E+03  0.31358758475E+03 -0.10056938073E+04  0.10597862295E+04  0.00000000000E+00 0.  1.
         22    1    1    2    0    0  0.18780714883E+03 -0.38752812102E+03  0.68410307237E+02  0.43603846145E+03  0.00000000000E+00 0.  1.
<mgrwt>
<rscale>  0 0.13651693E+04</rscale>
<asrwt>0</asrwt>
<pdfrwt beam="1">  1        1 0.43954973E-01 0.13651693E+04</pdfrwt>
<pdfrwt beam="2">  1       -1 0.25088707E+00 0.13651693E+04</pdfrwt>
<totfact> 0.62928722E+00</totfact>
</mgrwt>
</event>
<event>
 6    1  0.5040916E-004  0.1842030E+04  0.7818608E-02  0.8684262E-01
         -2   -1    0    0    0  501 -0.00000000000E+00  0.00000000000E+00  0.38231482602E+03  0.38231482602E+03  0.00000000000E+00 0. -1.
          2   -1    0    0  501    0  0.00000000000E+00 -0.00000000000E+00 -0.22187710509E+04  0.22187710509E+04  0.00000000000E+00 0.  1.
         23    2    1    2    0    0  0.72418638167E+02 -0.89310085365E+03 -0.12088119480E+04  0.15070973339E+04  0.85102610332E+02 0.  0.
         11    1    3    3    0    0  0.66927204874E+02 -0.58650667989E+03 -0.85361790106E+03  0.10378501131E+04  0.00000000000E+00 0.  1.
        -11    1    3    3    0    0  0.54914332927E+01 -0.30659417375E+03 -0.35519404691E+03  0.46924722074E+03  0.00000000000E+00 0. -1.
         22    1    1    2    0    0 -0.72418638167E+02  0.89310085365E+03 -0.62764427689E+03  0.10939885430E+04  0.00000000000E+00 0.  1.
<mgrwt>
<rscale>  0 0.18420305E+04</rscale>
<asrwt>0</asrwt>
<pdfrwt beam="1">  1        2 0.34134939E+00 0.18420305E+04</pdfrwt>
<pdfrwt beam="2">  1       -2 0.58817666E-01 0.18420305E+04</pdfrwt>
<totfact> 0.12811470E+01</totfact>
</mgrwt>
</event>
<event>
 6    1  0.5040916E-004  0.1901062E+04  0.7818608E-02  0.8654328E-01
          1   -1    0    0  501    0  0.00000000000E+00  0.00000000000E+00  0.20000187015E+04  0.20000187015E+04  0.00000000000E+00 0.  1.
         -1   -1    0    0    0  501 -0.00000000000E+00 -0.00000000000E+00 -0.45175044212E+03  0.45175044212E+03  0.00000000000E+00 0. -1.
         23    2    1    2    0    0 -0.53451542673E+03 -0.44471452987E+03  0.16074991955E+04  0.17539252798E+04  0.93394161042E+02 0.  0.
         11    1    3    3    0    0 -0.14355207876E+03 -0.69948614637E+02  0.34460015669E+03  0.37980162716E+03  0.00000000000E+00 0. -1.
        -11    1    3    3    0    0 -0.39096334797E+03 -0.37476591523E+03  0.12628990388E+04  0.13741236527E+04  0.00000000000E+00 0.  1.
         22    1    1    2    0    0  0.53451542673E+03  0.44471452987E+03 -0.59230936046E+02  0.69784386382E+03  0.00000000000E+00 0. -1.
<mgrwt>
<rscale>  0 0.19010622E+04</rscale>
<asrwt>0</asrwt>
<pdfrwt beam="1">  1        1 0.30769518E+00 0.19010622E+04</pdfrwt>
<pdfrwt beam="2">  1       -1 0.69500069E-01 0.19010622E+04</pdfrwt>
<totfact> 0.58372753E+00</totfact>
</mgrwt>
</event>
<event>
 6    1  0.5040916E-004  0.1017391E+04  0.7818608E-02  0.9289673E-01
         -2   -1    0    0    0  501 -0.00000000000E+00  0.00000000000E+00  0.16986434842E+03  0.16986434842E+03  0.00000000000E+00 0.  1.
          2   -1    0    0  501    0  0.00000000000E+00 -0.00000000000E+00 -0.15233993041E+04  0.15233993041E+04  0.00000000000E+00 0. -1.
         23    2    1    2    0    0 -0.31234650893E+03 -0.19844445124E+03 -0.12524632961E+04  0.13096544474E+04  0.97928145479E+02 0.  0.
         13    1    3    3    0    0 -0.21527587539E+03 -0.80017167911E+02 -0.75039823988E+03  0.78475726699E+03  0.00000000000E+00 0.  1.
        -13    1    3    3    0    0 -0.97070633541E+02 -0.11842728333E+03 -0.50206505619E+03  0.52489718039E+03  0.00000000000E+00 0. -1.
         22    1    1    2    0    0  0.31234650893E+03  0.19844445124E+03 -0.10107165956E+03  0.38360920509E+03  0.00000000000E+00 0.  1.
<mgrwt>
<rscale>  0 0.10173912E+04</rscale>
<asrwt>0</asrwt>
<pdfrwt beam="1">  1        2 0.23436913E+00 0.10173912E+04</pdfrwt>
<pdfrwt beam="2">  1       -2 0.26132976E-01 0.10173912E+04</pdfrwt>
<totfact> 0.16241516E+02</totfact>
</mgrwt>
</event>
<event>
 6    1  0.5040916E-004  0.8459140E+03  0.7818608E-02  0.9495837E-01
          2   -1    0    0  501    0  0.00000000000E+00  0.00000000000E+00  0.19565584859E+04  0.19565584859E+04  0.00000000000E+00 0.  1.
         -2   -1    0    0    0  501 -0.00000000000E+00 -0.00000000000E+00 -0.91432294429E+02  0.91432294429E+02  0.00000000000E+00 0. -1.
         23    2    1    2    0    0  0.25621734598E+03 -0.12248581501E+03  0.16868689323E+04  0.17126912818E+04  0.84466140381E+02 0.  0.
         11    1    3    3    0    0  0.10856127732E+03 -0.14751806107E+02  0.77271972319E+03  0.78044790814E+03  0.00000000000E+00 0. -1.
        -11    1    3    3    0    0  0.14765606866E+03 -0.10773400890E+03  0.91414920907E+03  0.93224337366E+03  0.00000000000E+00 0.  1.
         22    1    1    2    0    0 -0.25621734598E+03  0.12248581501E+03  0.17825725923E+03  0.33529949855E+03  0.00000000000E+00 0.  1.
<mgrwt>
<rscale>  0 0.84591402E+03</rscale>
<asrwt>0</asrwt>
<pdfrwt beam="1">  1        2 0.30100897E+00 0.84591402E+03</pdfrwt>
<pdfrwt beam="2">  1       -2 0.14066508E-01 0.84591402E+03</pdfrwt>
<totfact> 0.27999106E+02</totfact>
</mgrwt>
</event>
<event>
 6    1  0.5040916E-004  0.1685109E+04  0.7818608E-02  0.8769903E-01
          2   -1    0    0  501    0  0.00000000000E+00  0.00000000000E+00  0.14935270274E+04  0.14935270274E+04  0.00000000000E+00 0. -1.
         -2   -1    0    0    0  501 -0.00000000000E+00 -0.00000000000E+00 -0.47531676979E+03  0.47531676979E+03  0.00000000000E+00 0.  1.
         23    2    1    2    0    0 -0.32739901587E+03 -0.45233537798E+03 -0.22273972964E+03  0.60805201276E+03  0.91196783376E+02 0.  0.
         13    1    3    3    0    0 -0.24903962139E+03 -0.39609135816E+03 -0.16786099591E+03  0.49707787215E+03  0.00000000000E+00 0. -1.
        -13    1    3    3    0    0 -0.78359394475E+02 -0.56244019811E+02 -0.54878733730E+02  0.11097414060E+03  0.00000000000E+00 0.  1.
         22    1    1    2    0    0  0.32739901587E+03  0.45233537798E+03  0.12409499872E+04  0.13607917844E+04  0.00000000000E+00 0. -1.
<mgrwt>
<rscale>  0 0.16851094E+04</rscale>
<asrwt>0</asrwt>
<pdfrwt beam="1">  1        2 0.22977339E+00 0.16851094E+04</pdfrwt>
<pdfrwt beam="2">  1       -2 0.73125658E-01 0.16851094E+04</pdfrwt>
<totfact> 0.20594429E+01</totfact>
</mgrwt>
</event>
<event>
 6    1  0.5040916E-004  0.1497714E+04  0.7818608E-02  0.8885975E-01
          2   -1    0    0  501    0  0.00000000000E+00  0.00000000000E+00  0.34387824195E+04  0.34387824195E+04  0.00000000000E+00 0.  1.
         -2   -1    0    0    0  501 -0.00000000000E+00 -0.00000000000E+00 -0.16307713601E+03  0.16307713601E+03  0.00000000000E+00 0. -1.
         23    2    1    2    0    0 -0.56399403364E+03  0.29011744280E+03  0.69907380758E+03  0.94831717535E+03  0.91344819363E+02 0.  0.
         13    1    3    3    0    0 -0.27984776220E+03  0.13780958008E+03  0.27679448753E+03  0.41703889351E+03  0.00000000000E+00 0. -1.
        -13    1    3    3    0    0 -0.28414627144E+03  0.15230786273E+03  0.42227932005E+03  0.53127828185E+03  0.00000000000E+00 0.  1.
         22    1    1    2    0    0  0.56399403364E+03 -0.29011744280E+03  0.25766314759E+04  0.26535423802E+04  0.00000000000E+00 0.  1.
<mgrwt>
<rscale>  0 0.14977140E+04</rscale>
<asrwt>0</asrwt>
<pdfrwt beam="1">  1        2 0.52904340E+00 0.14977140E+04</pdfrwt>
<pdfrwt beam="2">  1       -2 0.25088793E-01 0.14977140E+04</pdfrwt>
<totfact> 0.12516804E+01</totfact>
</mgrwt>
</event>
<event>
 6    1  0.5040916E-004  0.2230301E+04  0.7818608E-02  0.8505921E-01
         -2   -1    0    0    0  501 -0.00000000000E+00  0.00000000000E+00  0.73303658253E+03  0.73303658253E+03  0.00000000000E+00 0. -1.
          2   -1    0    0  501    0  0.00000000000E+00 -0.00000000000E+00 -0.16964505800E+04  0.16964505800E+04  0.00000000000E+00 0.  1.
         23    2    1    2    0    0  0.27968175988E+03  0.73020039966E+03  0.38080106272E+03  0.87438953264E+03  0.90183673394E+02 0.  0.
         11    1    3    3    0    0  0.63224124504E+02  0.15218448029E+03  0.12233760221E+03  0.20524106527E+03  0.00000000000E+00 0. -1.
        -11    1    3    3    0    0  0.21645763537E+03  0.57801591938E+03  0.25846346051E+03  0.66914846737E+03  0.00000000000E+00 0.  1.
         22    1    1    2    0    0 -0.27968175988E+03 -0.73020039966E+03 -0.13442150602E+04  0.15550976299E+04  0.00000000000E+00 0.  1.
<mgrwt>
<rscale>  0 0.22303007E+04</rscale>
<asrwt>0</asrwt>
<pdfrwt beam="1">  1        2 0.26099239E+00 0.22303007E+04</pdfrwt>
<pdfrwt beam="2">  1       -2 0.11277486E+00 0.22303007E+04</pdfrwt>
<totfact> 0.55555614E+00</totfact>
</mgrwt>
</event>
<event>
 6    1  0.5040916E-004  0.5052885E+03  0.7818608E-02  0.1012408E+00
          2   -1    0    0  501    0  0.00000000000E+00  0.00000000000E+00  0.10458933040E+04  0.10458933040E+04  0.00000000000E+00 0.  1.
         -2   -1    0    0    0  501 -0.00000000000E+00 -0.00000000000E+00 -0.61028314893E+02  0.61028314893E+02  0.00000000000E+00 0. -1.
         23    2    1    2    0    0  0.16758129325E+03  0.16976389369E+03  0.39121538414E+03  0.46713796567E+03  0.90912775463E+02 0.  0.
         11    1    3    3    0    0  0.39785530072E+02  0.69010467900E+02  0.65877428578E+02  0.10336908957E+03  0.00000000000E+00 0.  1.
        -11    1    3    3    0    0  0.12779576318E+03  0.10075342579E+03  0.32533795556E+03  0.36376887610E+03  0.00000000000E+00 0. -1.
         22    1    1    2    0    0 -0.16758129325E+03 -0.16976389369E+03  0.59364960498E+03  0.63978365323E+03  0.00000000000E+00 0.  1.
<mgrwt>
<rscale>  0 0.50528846E+03</rscale>
<asrwt>0</asrwt>
<pdfrwt beam="1">  1        2 0.16090665E+00 0.50528846E+03</pdfrwt>
<pdfrwt beam="2">  1       -2 0.93889723E-02 0.50528846E+03</pdfrwt>
<totfact> 0.18040209E+03</totfact>
</mgrwt>
</event>
<event>
 6    1  0.5040916E-004  0.1709118E+04  0.7818608E-02  0.8756181E-01
         -2   -1    0    0    0  501 -0.00000000000E+00  0.00000000000E+00  0.55218522935E+03  0.55218522935E+03  0.00000000000E+00 0. -1.
          2   -1    0    0  501    0  0.00000000000E+00 -0.00000000000E+00 -0.13225112866E+04  0.13225112866E+04  0.00000000000E+00 0.  1.
         23    2    1    2    0    0 -0.28795922161E+03  0.35681789416E+03 -0.11740693935E+04  0.12637560897E+04  0.91656917926E+02 0.  0.
         11    1    3    3    0    0 -0.10357325384E+03  0.19801463265E+03 -0.59854633421E+03  0.63890134438E+03  0.00000000000E+00 0. -1.
        -11    1    3    3    0    0 -0.18438596777E+03  0.15880326150E+03 -0.57552305926E+03  0.62485474529E+03  0.00000000000E+00 0.  1.
         22    1    1    2    0    0  0.28795922161E+03 -0.35681789416E+03  0.40374333623E+03  0.61094042627E+03  0.00000000000E+00 0. -1.
<mgrwt>
<rscale>  0 0.17091181E+04</rscale>
<asrwt>0</asrwt>
<pdfrwt beam="1">  1        2 0.20346327E+00 0.17091181E+04</pdfrwt>
<pdfrwt beam="2">  1       -2 0.84951574E-01 0.17091181E+04</pdfrwt>
<totfact> 0.18402471E+01</totfact>
</mgrwt>
</event>
<event>
 6    1  0.5040916E-004  0.5733180E+04  0.7818608E-02  0.7724394E-01
          2   -1    0    0  501    0  0.00000000000E+00  0.00000000000E+00  0.39612964974E+04  0.39612964974E+04  0.00000000000E+00 0.  1.
         -2   -1    0    0    0  501 -0.00000000000E+00 -0.00000000000E+00 -0.20744059513E+04  0.20744059513E+04  0.00000000000E+00 0. -1.
         23    2    1    2    0    0 -0.92216771781E+03  0.23415221080E+04  0.23872219810E+04  0.34698788721E+04  0.90063967515E+02 0.  0.
         13    1    3    3    0    0 -0.59220284411E+03  0.16179271281E+04  0.16329333825E+04  0.23737868127E+04  0.00000000000E+00 0.  1.
        -13    1    3    3    0    0 -0.32996487370E+03  0.72359497994E+03  0.75428859848E+03  0.10960920594E+04  0.00000000000E+00 0. -1.
         22    1    1    2    0    0  0.92216771781E+03 -0.23415221080E+04 -0.50033143486E+03  0.25658235767E+04  0.00000000000E+00 0. -1.
<mgrwt>
<rscale>  0 0.57331796E+04</rscale>
<asrwt>0</asrwt>
<pdfrwt beam="1">  1        2 0.60943023E+00 0.57331796E+04</pdfrwt>
<pdfrwt beam="2">  1       -2 0.31913938E+00 0.57331796E+04</pdfrwt>
<totfact> 0.60916371E-03</totfact>
</mgrwt>
</event>
<event>
 6    1  0.5040916E-004  0.2441821E+04  0.7818608E-02  0.8424010E-01
         -2   -1    0    0    0  501 -0.00000000000E+00  0.00000000000E+00  0.46547999184E+03  0.46547999184E+03  0.00000000000E+00 0.  1.
          2   -1    0    0  501    0  0.00000000000E+00 -0.00000000000E+00 -0.32023330786E+04  0.32023330786E+04  0.00000000000E+00 0. -1.
         23    2    1    2    0    0 -0.15991813498E+03 -0.70909521712E+03 -0.28405704977E+04  0.29335466759E+04  0.92008208737E+02 0.  0.
         13    1    3    3    0    0 -0.40964379849E+02 -0.36957923984E+03 -0.13629866993E+04  0.14127985127E+04  0.00000000000E+00 0. -1.
        -13    1    3    3    0    0 -0.11895375513E+03 -0.33951597729E+03 -0.14775837984E+04  0.15207481632E+04  0.00000000000E+00 0.  1.
         22    1    1    2    0    0  0.15991813498E+03  0.70909521712E+03  0.10371741092E+03  0.73426639455E+03  0.00000000000E+00 0.  1.
<mgrwt>
<rscale>  0 0.24418206E+04</rscale>
<asrwt>0</asrwt>
<pdfrwt beam="1">  1        2 0.49266664E+00 0.24418206E+04</pdfrwt>
<pdfrwt beam="2">  1       -2 0.71612305E-01 0.24418206E+04</pdfrwt>
<totfact> 0.20494247E+00</totfact>
</mgrwt>
</event>
<event>
 6    1  0.5040916E-004  0.1725058E+04  0.7818608E-02  0.8747201E-01
         -2   -1    0    0    0  501 -0.00000000000E+00  0.00000000000E+00  0.15491317538E+04  0.15491317538E+04  0.00000000000E+00 0. -1.
          2   -1    0    0  501    0  0.00000000000E+00 -0.00000000000E+00 -0.48024054219E+03  0.48024054219E+03  0.00000000000E+00 0.  1.
         23    2    1    2    0    0 -0.71589081572E+03  0.46180029154E+03  0.67548662646E+03  0.10910086474E+04  0.90876382597E+02 0.  0.
         13    1    3    3    0    0 -0.33733045308E+03  0.24113858917E+03  0.27644436678E+03  0.49835844699E+03  0.00000000000E+00 0. -1.
        -13    1    3    3    0    0 -0.37856036264E+03  0.22066170237E+03  0.39904225968E+03  0.59265020043E+03  0.00000000000E+00 0.  1.
         22    1    1    2    0    0  0.71589081572E+03 -0.46180029154E+03  0.39340458512E+03  0.93836364854E+03  0.00000000000E+00 0. -1.
<mgrwt>
<rscale>  0 0.17250575E+04</rscale>
<asrwt>0</asrwt>
<pdfrwt beam="1">  1        2 0.73883161E-01 0.17250575E+04</pdfrwt>
<pdfrwt beam="2">  1       -2 0.23832796E+00 0.17250575E+04</pdfrwt>
<totfact> 0.46478733E+00</totfact>
</mgrwt>
</event>
<event>
 6    1  0.5040916E-004  0.9859960E+03  0.7818608E-02  0.9324039E-01
         -2   -1    0    0    0  501 -0.00000000000E+00  0.00000000000E+00  0.26047826987E+03  0.26047826987E+03  0.00000000000E+00 0. -1.
          2   -1    0    0  501    0  0.00000000000E+00 -0.00000000000E+00 -0.93307985641E+03  0.93307985641E+03  0.00000000000E+00 0.  1.
         23    2    1    2    0    0  0.15427905639E+02 -0.46449454053E+03 -0.51837879014E+03  0.70388694132E+03  0.10366801650E+03 0.  0.
         11    1    3    3    0    0  0.38916098349E+01 -0.32074821730E+03 -0.42348661938E+03  0.53125839317E+03  0.00000000000E+00 0.  1.
        -11    1    3    3    0    0  0.11536295805E+02 -0.14374632323E+03 -0.94892170757E+02  0.17262854814E+03  0.00000000000E+00 0. -1.
         22    1    1    2    0    0 -0.15427905639E+02  0.46449454053E+03 -0.15422279641E+03  0.48967118496E+03  0.00000000000E+00 0. -1.
<mgrwt>
<rscale>  0 0.98599600E+03</rscale>
<asrwt>0</asrwt>
<pdfrwt beam="1">  1        2 0.14355075E+00 0.98599600E+03</pdfrwt>
<pdfrwt beam="2">  1       -2 0.40073580E-01 0.98599600E+03</pdfrwt>
<totfact> 0.16388922E+02</totfact>
</mgrwt>
</event>
<event>
 6    1  0.5040916E-004  0.1809066E+04  0.7818608E-02  0.8701493E-01
         -2   -1    0    0    0  501 -0.00000000000E+00  0.00000000000E+00  0.43050855940E+03  0.43050855940E+03  0.00000000000E+00 0. -1.
          2   -1    0    0  501    0  0.00000000000E+00 -0.00000000000E+00 -0.19004964649E+04  0.19004964649E+04  0.00000000000E+00 0.  1.
         23    2    1    2    0    0  0.81429400252E+03  0.12506931552E+03 -0.12104192838E+04  0.14672383164E+04  0.94638144370E+02 0.  0.
         13    1    3    3    0    0  0.51651595029E+03  0.44637997151E+02 -0.81164900459E+03  0.96309676790E+03  0.00000000000E+00 0.  1.
        -13    1    3    3    0    0  0.29777805223E+03  0.80431318366E+02 -0.39877027916E+03  0.50414154849E+03  0.00000000000E+00 0. -1.
         22    1    1    2    0    0 -0.81429400252E+03 -0.12506931552E+03 -0.25956862170E+03  0.86376670786E+03  0.00000000000E+00 0.  1.
<mgrwt>
<rscale>  0 0.18090661E+04</rscale>
<asrwt>0</asrwt>
<pdfrwt beam="1">  1        2 0.29238406E+00 0.18090661E+04</pdfrwt>
<pdfrwt beam="2">  1       -2 0.66232088E-01 0.18090661E+04</pdfrwt>
<totfact> 0.15007671E+01</totfact>
</mgrwt>
</event>
<event>
 6    1  0.5040916E-004  0.1050570E+04  0.7818608E-02  0.9254756E-01
         -2   -1    0    0    0  501 -0.00000000000E+00  0.00000000000E+00  0.22244806752E+03  0.22244806752E+03  0.00000000000E+00 0. -1.
          2   -1    0    0  501    0  0.00000000000E+00 -0.00000000000E+00 -0.12403990810E+04  0.12403990810E+04  0.00000000000E+00 0.  1.
         23    2    1    2    0    0 -0.50739379244E+03  0.12068587558E+03 -0.52418977878E+03  0.74464543726E+03  0.87797277195E+02 0.  0.
         11    1    3    3    0    0 -0.37411295846E+03  0.73172602393E+02 -0.32886801278E+03  0.50345695472E+03  0.00000000000E+00 0. -1.
        -11    1    3    3    0    0 -0.13328083398E+03  0.47513273186E+02 -0.19532176600E+03  0.24118848254E+03  0.00000000000E+00 0.  1.
         22    1    1    2    0    0  0.50739379244E+03 -0.12068587558E+03 -0.49376123469E+03  0.71820171126E+03  0.00000000000E+00 0.  1.
<mgrwt>
<rscale>  0 0.10505701E+04</rscale>
<asrwt>0</asrwt>
<pdfrwt beam="1">  1        2 0.19083063E+00 0.10505701E+04</pdfrwt>
<pdfrwt beam="2">  1       -2 0.34222780E-01 0.10505701E+04</pdfrwt>
<totfact> 0.14252413E+02</totfact>
</mgrwt>
</event>
<event>
 6    1  0.5040916E-004  0.2572796E+04  0.7818608E-02  0.8377501E-01
          2   -1    0    0  501    0  0.00000000000E+00  0.00000000000E+00  0.14224712575E+04  0.14224712575E+04  0.00000000000E+00 0.  1.
         -2   -1    0    0    0  501 -0.00000000000E+00 -0.00000000000E+00 -0.11633413627E+04  0.11633413627E+04  0.00000000000E+00 0. -1.
         23    2    1    2    0    0  0.44243120996E+03  0.87197129469E+03  0.96720434164E+03  0.13785642047E+04  0.94211006281E+02 0.  0.
         13    1    3    3    0    0  0.13380854553E+03  0.32824622965E+03  0.30211757633E+03  0.46575244933E+03  0.00000000000E+00 0.  1.
        -13    1    3    3    0    0  0.30862266443E+03  0.54372506505E+03  0.66508676531E+03  0.91281175537E+03  0.00000000000E+00 0. -1.
         22    1    1    2    0    0 -0.44243120996E+03 -0.87197129469E+03 -0.70807444689E+03  0.12072484155E+04  0.00000000000E+00 0. -1.
<mgrwt>
<rscale>  0 0.25727959E+04</rscale>
<asrwt>0</asrwt>
<pdfrwt beam="1">  1        2 0.21884173E+00 0.25727959E+04</pdfrwt>
<pdfrwt beam="2">  1       -2 0.17897559E+00 0.25727959E+04</pdfrwt>
<totfact> 0.22958705E+00</totfact>
</mgrwt>
</event>
<event>
 6    1  0.5040916E-004  0.2322195E+04  0.7818608E-02  0.8469221E-01
          2   -1    0    0  501    0  0.00000000000E+00  0.00000000000E+00  0.68201260755E+03  0.68201260755E+03  0.00000000000E+00 0.  1.
         -2   -1    0    0    0  501 -0.00000000000E+00 -0.00000000000E+00 -0.19767197847E+04  0.19767197847E+04  0.00000000000E+00 0. -1.
         23    2    1    2    0    0  0.52256324017E+03  0.52920928038E+03 -0.16665058881E+04  0.18272463227E+04  0.91937185144E+02 0.  0.
         13    1    3    3    0    0  0.17213422370E+03  0.17037743237E+03 -0.44209463371E+03  0.50408960075E+03  0.00000000000E+00 0. -1.
        -13    1    3    3    0    0  0.35042901648E+03  0.35883184801E+03 -0.12244112544E+04  0.13231567219E+04  0.00000000000E+00 0.  1.
         22    1    1    2    0    0 -0.52256324017E+03 -0.52920928038E+03  0.37179871100E+03  0.83148606959E+03  0.00000000000E+00 0.  1.
<mgrwt>
<rscale>  0 0.23221954E+04</rscale>
<asrwt>0</asrwt>
<pdfrwt beam="1">  1        2 0.10492502E+00 0.23221954E+04</pdfrwt>
<pdfrwt beam="2">  1       -2 0.30411073E+00 0.23221954E+04</pdfrwt>
<totfact> 0.11497655E+00</totfact>
</mgrwt>
</event>
<event>
 6    1  0.5040916E-004  0.3374254E+04  0.7818608E-02  0.8144254E-01
         -2   -1    0    0    0  501 -0.00000000000E+00  0.00000000000E+00  0.67093082992E+03  0.67093082992E+03  0.00000000000E+00 0. -1.
          2   -1    0    0  501    0  0.00000000000E+00 -0.00000000000E+00 -0.42424601944E+04  0.42424601944E+04  0.00000000000E+00 0.  1.
         23    2    1    2    0    0  0.42102889055E+03 -0.11012191416E+04 -0.32359583390E+02  0.11830195061E+04  0.92407167626E+02 0.  0.
         13    1    3    3    0    0  0.84408263839E+02 -0.32349865715E+03 -0.28796820475E+02  0.33556727054E+03  0.00000000000E+00 0. -1.
        -13    1    3    3    0    0  0.33662062671E+03 -0.77772048447E+03 -0.35627629151E+01  0.84745223557E+03  0.00000000000E+00 0.  1.
         22    1    1    2    0    0 -0.42102889055E+03  0.11012191416E+04 -0.35391697811E+04  0.37303715183E+04  0.00000000000E+00 0.  1.
<mgrwt>
<rscale>  0 0.33742539E+04</rscale>
<asrwt>0</asrwt>
<pdfrwt beam="1">  1        2 0.65268618E+00 0.33742539E+04</pdfrwt>
<pdfrwt beam="2">  1       -2 0.10322013E+00 0.33742539E+04</pdfrwt>
<totfact> 0.13531106E-01</totfact>
</mgrwt>
</event>
<event>
 6    1  0.5040916E-004  0.6076506E+03  0.7818608E-02  0.9889659E-01
          2   -1    0    0  501    0  0.00000000000E+00  0.00000000000E+00  0.19817811296E+03  0.19817811296E+03  0.00000000000E+00 0.  1.
         -2   -1    0    0    0  501 -0.00000000000E+00 -0.00000000000E+00 -0.46579210277E+03  0.46579210277E+03  0.00000000000E+00 0. -1.
         23    2    1    2    0    0  0.18045120671E+03 -0.13613383325E+03 -0.34618000218E+03  0.42466355711E+03  0.96971564243E+02 0.  0.
         13    1    3    3    0    0  0.11021794933E+03 -0.75040727891E+02 -0.28098548008E+03  0.31101759952E+03  0.00000000000E+00 0. -1.
        -13    1    3    3    0    0  0.70233257382E+02 -0.61093105362E+02 -0.65194522103E+02  0.11364595759E+03  0.00000000000E+00 0.  1.
         22    1    1    2    0    0 -0.18045120671E+03  0.13613383325E+03  0.78566012367E+02  0.23930665862E+03  0.00000000000E+00 0.  1.
<mgrwt>
<rscale>  0 0.60765056E+03</rscale>
<asrwt>0</asrwt>
<pdfrwt beam="1">  1        2 0.30488941E-01 0.60765056E+03</pdfrwt>
<pdfrwt beam="2">  1       -2 0.71660322E-01 0.60765056E+03</pdfrwt>
<totfact> 0.31181090E+02</totfact>
</mgrwt>
</event>
<event>
 6    1  0.5040916E-004  0.4598252E+03  0.7818608E-02  0.1024832E+00
         -2   -1    0    0    0  501 -0.00000000000E+00  0.00000000000E+00  0.15549106394E+03  0.15549106394E+03  0.00000000000E+00 0. -1.
          2   -1    0    0  501    0  0.00000000000E+00 -0.00000000000E+00 -0.33995401155E+03  0.33995401155E+03  0.00000000000E+00 0.  1.
         23    2    1    2    0    0 -0.15193282564E+03 -0.45636649558E+02 -0.26122151187E+03  0.31921180827E+03  0.92158629463E+02 0.  0.
         13    1    3    3    0    0  0.71183668224E+01 -0.19593660454E+02 -0.18604093904E+02  0.27940919566E+02  0.00000000000E+00 0. -1.
        -13    1    3    3    0    0 -0.15905119246E+03 -0.26042989104E+02 -0.24261741797E+03  0.29127088870E+03  0.00000000000E+00 0.  1.
         22    1    1    2    0    0  0.15193282564E+03  0.45636649558E+02  0.76758564261E+02  0.17623326722E+03  0.00000000000E+00 0. -1.
<mgrwt>
<rscale>  0 0.45982523E+03</rscale>
<asrwt>0</asrwt>
<pdfrwt beam="1">  1        2 0.52300617E-01 0.45982523E+03</pdfrwt>
<pdfrwt beam="2">  1       -2 0.23921702E-01 0.45982523E+03</pdfrwt>
<totfact> 0.14765116E+03</totfact>
</mgrwt>
</event>
<event>
 6    1  0.5040916E-004  0.3403182E+04  0.7818608E-02  0.8137126E-01
          2   -1    0    0  501    0  0.00000000000E+00  0.00000000000E+00  0.16388243923E+04  0.16388243923E+04  0.00000000000E+00 0.  1.
         -2   -1    0    0    0  501 -0.00000000000E+00 -0.00000000000E+00 -0.17667611403E+04  0.17667611403E+04  0.00000000000E+00 0. -1.
         23    2    1    2    0    0  0.54372891270E+03 -0.14945882086E+04  0.53783930507E+03  0.16814356561E+04  0.92302240561E+02 0.  0.
         13    1    3    3    0    0  0.15691920633E+03 -0.31978660495E+03  0.12528503161E+03  0.37760223670E+03  0.00000000000E+00 0.  1.
        -13    1    3    3    0    0  0.38680970637E+03 -0.11748016037E+04  0.41255427346E+03  0.13038334194E+04  0.00000000000E+00 0. -1.
         22    1    1    2    0    0 -0.54372891270E+03  0.14945882086E+04 -0.66577605311E+03  0.17241498765E+04  0.00000000000E+00 0.  1.
<mgrwt>
<rscale>  0 0.34031816E+04</rscale>
<asrwt>0</asrwt>
<pdfrwt beam="1">  1        2 0.25212683E+00 0.34031816E+04</pdfrwt>
<pdfrwt beam="2">  1       -2 0.27180941E+00 0.34031816E+04</pdfrwt>
<totfact> 0.41512556E-01</totfact>
</mgrwt>
</event>
<event>
 6    1  0.5040916E-004  0.2027641E+04  0.7818608E-02  0.8593806E-01
         -4   -1    0    0    0  501 -0.00000000000E+00  0.00000000000E+00  0.39010778336E+03  0.39010778336E+03  0.00000000000E+00 0. -1.
          4   -1    0    0  501    0  0.00000000000E+00 -0.00000000000E+00 -0.26347378116E+04  0.26347378116E+04  0.00000000000E+00 0.  1.
         23    2    1    2    0    0 -0.17508661186E+03 -0.59213619175E+03 -0.23198719741E+04  0.24027990199E+04  0.10176719715E+03 0.  0.
         13    1    3    3    0    0 -0.15538782667E+03 -0.44683155274E+03 -0.16163861508E+04  0.16841935760E+04  0.00000000000E+00 0. -1.
        -13    1    3    3    0    0 -0.19698785192E+02 -0.14530463901E+03 -0.70348582334E+03  0.71860544383E+03  0.00000000000E+00 0.  1.
         22    1    1    2    0    0  0.17508661186E+03  0.59213619175E+03  0.75241945822E+02  0.62204657514E+03  0.00000000000E+00 0. -1.
<mgrwt>
<rscale>  0 0.20276407E+04</rscale>
<asrwt>0</asrwt>
<pdfrwt beam="1">  1        4 0.40534427E+00 0.20276407E+04</pdfrwt>
<pdfrwt beam="2">  1       -4 0.60016583E-01 0.20276407E+04</pdfrwt>
<totfact> 0.30536017E-02</totfact>
</mgrwt>
</event>
<event>
 6    1  0.5040916E-004  0.2697343E+04  0.7818608E-02  0.8335867E-01
         -2   -1    0    0    0  501 -0.00000000000E+00  0.00000000000E+00  0.53436619448E+03  0.53436619448E+03  0.00000000000E+00 0. -1.
          2   -1    0    0  501    0  0.00000000000E+00 -0.00000000000E+00 -0.34038743019E+04  0.34038743019E+04  0.00000000000E+00 0.  1.
         23    2    1    2    0    0  0.36826525812E+03 -0.60330728296E+03 -0.31106086853E+04  0.31914282933E+04  0.98636607497E+02 0.  0.
         11    1    3    3    0    0  0.21063326659E+03 -0.39327859585E+03 -0.17714294570E+04  0.18267448503E+04  0.00000000000E+00 0. -1.
        -11    1    3    3    0    0  0.15763199152E+03 -0.21002868711E+03 -0.13391792283E+04  0.13646834431E+04  0.00000000000E+00 0.  1.
         22    1    1    2    0    0 -0.36826525812E+03  0.60330728296E+03  0.24110057786E+03  0.74681220307E+03  0.00000000000E+00 0. -1.
<mgrwt>
<rscale>  0 0.26973434E+04</rscale>
<asrwt>0</asrwt>
<pdfrwt beam="1">  1        2 0.52367296E+00 0.26973434E+04</pdfrwt>
<pdfrwt beam="2">  1       -2 0.82210185E-01 0.26973434E+04</pdfrwt>
<totfact> 0.10808776E+00</totfact>
</mgrwt>
</event>
<event>
 6    1  0.5040916E-004  0.5328963E+03  0.7818608E-02  0.1005532E+00
         -2   -1    0    0    0  501 -0.00000000000E+00  0.00000000000E+00  0.60975605222E+02  0.60975605222E+02  0.00000000000E+00 0. -1.
          2   -1    0    0  501    0  0.00000000000E+00 -0.00000000000E+00 -0.11643119645E+04  0.11643119645E+04  0.00000000000E+00 0.  1.
         23    2    1    2    0    0 -0.22422594985E+03  0.25491782779E+02 -0.85702849692E+03  0.89122968457E+03  0.94156245373E+02 0.  0.
         11    1    3    3    0    0 -0.77708131543E+02  0.41025322434E+02 -0.44642784513E+03  0.45499390292E+03  0.00000000000E+00 0.  1.
        -11    1    3    3    0    0 -0.14651781831E+03 -0.15533539655E+02 -0.41060065179E+03  0.43623578164E+03  0.00000000000E+00 0. -1.
         22    1    1    2    0    0  0.22422594985E+03 -0.25491782779E+02 -0.24630786237E+03  0.33405788517E+03  0.00000000000E+00 0. -1.
<mgrwt>
<rscale>  0 0.53289634E+03</rscale>
<asrwt>0</asrwt>
<pdfrwt beam="1">  1        2 0.17912489E+00 0.53289634E+03</pdfrwt>
<pdfrwt beam="2">  1       -2 0.93808636E-02 0.53289634E+03</pdfrwt>
<totfact> 0.15318762E+03</totfact>
</mgrwt>
</event>
<event>
 6    1  0.5040916E-004  0.7677931E+03  0.7818608E-02  0.9607842E-01
         -4   -1    0    0    0  501 -0.00000000000E+00  0.00000000000E+00  0.19251027953E+03  0.19251027953E+03  0.00000000000E+00 0. -1.
          4   -1    0    0  501    0  0.00000000000E+00 -0.00000000000E+00 -0.76555161164E+03  0.76555161164E+03  0.00000000000E+00 0.  1.
         23    2    1    2    0    0  0.36414742409E+03  0.56375980512E+02 -0.17911128406E+03  0.41865251008E+03  0.86066686149E+02 0.  0.
         11    1    3    3    0    0  0.28835181689E+03  0.77581994933E+02 -0.12852345811E+03  0.32509078044E+03  0.00000000000E+00 0.  1.
        -11    1    3    3    0    0  0.75795607207E+02 -0.21206014421E+02 -0.50587825949E+02  0.93561729643E+02  0.00000000000E+00 0. -1.
         22    1    1    2    0    0 -0.36414742409E+03 -0.56375980512E+02 -0.39393004805E+03  0.53940938109E+03  0.00000000000E+00 0.  1.
<mgrwt>
<rscale>  0 0.76779308E+03</rscale>
<asrwt>0</asrwt>
<pdfrwt beam="1">  1        4 0.11777717E+00 0.76779308E+03</pdfrwt>
<pdfrwt beam="2">  1       -4 0.29616966E-01 0.76779308E+03</pdfrwt>
<totfact> 0.12173240E+01</totfact>
</mgrwt>
</event>
<event>
 6    1  0.5040916E-004  0.1254535E+04  0.7818608E-02  0.9066417E-01
          2   -1    0    0  501    0  0.00000000000E+00  0.00000000000E+00  0.70652319659E+03  0.70652319659E+03  0.00000000000E+00 0.  1.
         -2   -1    0    0    0  501 -0.00000000000E+00 -0.00000000000E+00 -0.55690226552E+03  0.55690226552E+03  0.00000000000E+00 0. -1.
         23    2    1    2    0    0  0.39340734601E+03 -0.28446018233E+03  0.46979938951E+03  0.68187479323E+03  0.92492335017E+02 0.  0.
         11    1    3    3    0    0  0.27412515877E+03 -0.22609358370E+03  0.29178144869E+03  0.45978182333E+03  0.00000000000E+00 0.  1.
        -11    1    3    3    0    0  0.11928218724E+03 -0.58366598626E+02  0.17801794082E+03  0.22209296990E+03  0.00000000000E+00 0. -1.
         22    1    1    2    0    0 -0.39340734601E+03  0.28446018233E+03 -0.32017845844E+03  0.58155066888E+03  0.00000000000E+00 0. -1.
<mgrwt>
<rscale>  0 0.12545348E+04</rscale>
<asrwt>0</asrwt>
<pdfrwt beam="1">  1        2 0.10869588E+00 0.12545348E+04</pdfrwt>
<pdfrwt beam="2">  1       -2 0.85677272E-01 0.12545348E+04</pdfrwt>
<totfact> 0.47130956E+01</totfact>
</mgrwt>
</event>
<event>
 6    1  0.5040916E-004  0.2371269E+04  0.7818608E-02  0.8450339E-01
          2   -1    0    0  501    0  0.00000000000E+00  0.00000000000E+00  0.16086150860E+04  0.16086150860E+04  0.00000000000E+00 0.  1.
         -2   -1    0    0    0  501 -0.00000000000E+00 -0.00000000000E+00 -0.87387551572E+03  0.87387551572E+03  0.00000000000E+00 0. -1.
         23    2    1    2    0    0  0.54796052239E+03 -0.15375463707E+03  0.14547742116E+04  0.15646937249E+04  0.89427195905E+02 0.  0.
         13    1    3    3    0    0  0.31300935958E+03 -0.92403612918E+02  0.95115203637E+03  0.10055861391E+04  0.00000000000E+00 0. -1.
        -13    1    3    3    0    0  0.23495116281E+03 -0.61351024152E+02  0.50362217525E+03  0.55910758578E+03  0.00000000000E+00 0.  1.
         22    1    1    2    0    0 -0.54796052239E+03  0.15375463707E+03 -0.72003464130E+03  0.91779687687E+03  0.00000000000E+00 0. -1.
<mgrwt>
<rscale>  0 0.23712691E+04</rscale>
<asrwt>0</asrwt>
<pdfrwt beam="1">  1        2 0.24747924E+00 0.23712691E+04</pdfrwt>
<pdfrwt beam="2">  1       -2 0.13444239E+00 0.23712691E+04</pdfrwt>
<totfact> 0.39641301E+00</totfact>
</mgrwt>
</event>
<event>
 6    1  0.5040916E-004  0.2435248E+04  0.7818608E-02  0.8426424E-01
          2   -1    0    0  501    0  0.00000000000E+00  0.00000000000E+00  0.83390912296E+03  0.83390912296E+03  0.00000000000E+00 0.  1.
         -2   -1    0    0    0  501 -0.00000000000E+00 -0.00000000000E+00 -0.17779015443E+04  0.17779015443E+04  0.00000000000E+00 0. -1.
         23    2    1    2    0    0  0.61260530195E+03  0.84937102064E+02 -0.15953692481E+04  0.17135950262E+04  0.93302244368E+02 0.  0.
         11    1    3    3    0    0  0.24710861213E+03  0.47830614129E+02 -0.53157745275E+03  0.58815391022E+03  0.00000000000E+00 0.  1.
        -11    1    3    3    0    0  0.36549668982E+03  0.37106487935E+02 -0.10637917954E+04  0.11254411160E+04  0.00000000000E+00 0. -1.
         22    1    1    2    0    0 -0.61260530195E+03 -0.84937102064E+02  0.65137682679E+03  0.89821564101E+03  0.00000000000E+00 0.  1.
<mgrwt>
<rscale>  0 0.24352481E+04</rscale>
<asrwt>0</asrwt>
<pdfrwt beam="1">  1        2 0.12829371E+00 0.24352481E+04</pdfrwt>
<pdfrwt beam="2">  1       -2 0.27352331E+00 0.24352481E+04</pdfrwt>
<totfact> 0.13472329E+00</totfact>
</mgrwt>
</event>
<event>
 6    1  0.5040916E-004  0.4711660E+04  0.7818608E-02  0.7874594E-01
          2   -1    0    0  501    0  0.00000000000E+00  0.00000000000E+00  0.21206439770E+04  0.21206439770E+04  0.00000000000E+00 0.  1.
         -2   -1    0    0    0  501 -0.00000000000E+00 -0.00000000000E+00 -0.26170989860E+04  0.26170989860E+04  0.00000000000E+00 0. -1.
         23    2    1    2    0    0  0.14720800984E+04 -0.16052547828E+04 -0.11480430132E+04  0.24643249062E+04  0.10503213419E+03 0.  0.
         11    1    3    3    0    0  0.48577682359E+03 -0.48116761033E+03 -0.40120205007E+03  0.79275751434E+03  0.00000000000E+00 0. -1.
        -11    1    3    3    0    0  0.98630327483E+03 -0.11240871725E+04 -0.74684096315E+03  0.16715673919E+04  0.00000000000E+00 0.  1.
         22    1    1    2    0    0 -0.14720800984E+04  0.16052547828E+04  0.65158800422E+03  0.22734180568E+04  0.00000000000E+00 0. -1.
<mgrwt>
<rscale>  0 0.47116601E+04</rscale>
<asrwt>0</asrwt>
<pdfrwt beam="1">  1        2 0.32625292E+00 0.47116601E+04</pdfrwt>
<pdfrwt beam="2">  1       -2 0.40263061E+00 0.47116601E+04</pdfrwt>
<totfact> 0.30416519E-02</totfact>
</mgrwt>
</event>
<event>
 6    1  0.5040916E-004  0.2122212E+04  0.7818608E-02  0.8551521E-01
          2   -1    0    0  501    0  0.00000000000E+00  0.00000000000E+00  0.13845572877E+04  0.13845572877E+04  0.00000000000E+00 0. -1.
         -2   -1    0    0    0  501 -0.00000000000E+00 -0.00000000000E+00 -0.81321754640E+03  0.81321754640E+03  0.00000000000E+00 0.  1.
         23    2    1    2    0    0  0.73247354609E+03  0.66917169761E+03  0.66948513070E+03  0.12008090503E+04  0.97076147431E+02 0.  0.
         11    1    3    3    0    0  0.54453299462E+03  0.45024352639E+03  0.50726476940E+03  0.86980052975E+03  0.00000000000E+00 0.  1.
        -11    1    3    3    0    0  0.18794055148E+03  0.21892817122E+03  0.16222036130E+03  0.33100852053E+03  0.00000000000E+00 0. -1.
         22    1    1    2    0    0 -0.73247354609E+03 -0.66917169761E+03 -0.98145389427E+02  0.99696578380E+03  0.00000000000E+00 0.  1.
<mgrwt>
<rscale>  0 0.21222123E+04</rscale>
<asrwt>0</asrwt>
<pdfrwt beam="1">  1        2 0.21300881E+00 0.21222123E+04</pdfrwt>
<pdfrwt beam="2">  1       -2 0.12511039E+00 0.21222123E+04</pdfrwt>
<totfact> 0.65008061E+00</totfact>
</mgrwt>
</event>
<event>
 6    1  0.5040916E-004  0.1268314E+04  0.7818608E-02  0.9055077E-01
          1   -1    0    0  501    0  0.00000000000E+00  0.00000000000E+00  0.31448714741E+03  0.31448714741E+03  0.00000000000E+00 0.  1.
         -1   -1    0    0    0  501 -0.00000000000E+00 -0.00000000000E+00 -0.12787640672E+04  0.12787640672E+04  0.00000000000E+00 0. -1.
         23    2    1    2    0    0 -0.86207227785E+02  0.16490221214E+02 -0.12695392165E+04  0.12756214249E+04  0.88184941764E+02 0.  0.
         11    1    3    3    0    0 -0.50473099807E+02 -0.53667185720E+01 -0.24382019764E+03  0.24904743373E+03  0.00000000000E+00 0. -1.
        -11    1    3    3    0    0 -0.35734127978E+02  0.21856939786E+02 -0.10257190188E+04  0.10265739912E+04  0.00000000000E+00 0.  1.
         22    1    1    2    0    0  0.86207227785E+02 -0.16490221214E+02  0.30526229670E+03  0.31762978970E+03  0.00000000000E+00 0.  1.
<mgrwt>
<rscale>  0 0.12683136E+04</rscale>
<asrwt>0</asrwt>
<pdfrwt beam="1">  1        1 0.48382638E-01 0.12683136E+04</pdfrwt>
<pdfrwt beam="2">  1       -1 0.19673293E+00 0.12683136E+04</pdfrwt>
<totfact> 0.12871955E+01</totfact>
</mgrwt>
</event>
<event>
 6    1  0.5040916E-004  0.2103024E+04  0.7818608E-02  0.8559912E-01
          4   -1    0    0  501    0  0.00000000000E+00  0.00000000000E+00  0.14462531956E+04  0.14462531956E+04  0.00000000000E+00 0.  1.
         -4   -1    0    0    0  501 -0.00000000000E+00 -0.00000000000E+00 -0.76451186410E+03  0.76451186410E+03  0.00000000000E+00 0. -1.
         23    2    1    2    0    0 -0.47954156665E+03  0.38942934946E+03 -0.55037157075E+03  0.83246264867E+03  0.92031859532E+02 0.  0.
         11    1    3    3    0    0 -0.42775488992E+03  0.30854909918E+03 -0.44702705741E+03  0.69138265998E+03  0.00000000000E+00 0. -1.
        -11    1    3    3    0    0 -0.51786676730E+02  0.80880250279E+02 -0.10334451334E+03  0.14107998869E+03  0.00000000000E+00 0.  1.
         22    1    1    2    0    0  0.47954156665E+03 -0.38942934946E+03  0.12321129022E+04  0.13783024110E+04  0.00000000000E+00 0.  1.
<mgrwt>
<rscale>  0 0.21030242E+04</rscale>
<asrwt>0</asrwt>
<pdfrwt beam="1">  1        4 0.22250049E+00 0.21030242E+04</pdfrwt>
<pdfrwt beam="2">  1       -4 0.11761721E+00 0.21030242E+04</pdfrwt>
<totfact> 0.96403323E-02</totfact>
</mgrwt>
</event>
<event>
 6    1  0.5040916E-004  0.8130391E+03  0.7818608E-02  0.9541333E-01
         -2   -1    0    0    0  501 -0.00000000000E+00  0.00000000000E+00  0.15920102721E+04  0.15920102721E+04  0.00000000000E+00 0. -1.
          2   -1    0    0  501    0  0.00000000000E+00 -0.00000000000E+00 -0.10380470826E+03  0.10380470826E+03  0.00000000000E+00 0.  1.
         23    2    1    2    0    0  0.97620592468E+02 -0.90607227918E+02  0.15432625306E+04  0.15516944773E+04  0.91416972587E+02 0.  0.
         13    1    3    3    0    0  0.11308798175E+03 -0.72017548057E+02  0.11716777471E+04  0.11793236036E+04  0.00000000000E+00 0.  1.
        -13    1    3    3    0    0 -0.15467389286E+02 -0.18589679861E+02  0.37158478344E+03  0.37237087374E+03  0.00000000000E+00 0. -1.
         22    1    1    2    0    0 -0.97620592468E+02  0.90607227918E+02 -0.55056966693E+02  0.14412050307E+03  0.00000000000E+00 0.  1.
<mgrwt>
<rscale>  0 0.81303914E+03</rscale>
<asrwt>0</asrwt>
<pdfrwt beam="1">  1        2 0.15969956E-01 0.81303914E+03</pdfrwt>
<pdfrwt beam="2">  1       -2 0.24492464E+00 0.81303914E+03</pdfrwt>
<totfact> 0.26213080E+01</totfact>
</mgrwt>
</event>
<event>
 6    1  0.5040916E-004  0.1140309E+04  0.7818608E-02  0.9166770E-01
         -2   -1    0    0    0  501 -0.00000000000E+00  0.00000000000E+00  0.31179308673E+03  0.31179308673E+03  0.00000000000E+00 0. -1.
          2   -1    0    0  501    0  0.00000000000E+00 -0.00000000000E+00 -0.10426027862E+04  0.10426027862E+04  0.00000000000E+00 0.  1.
         23    2    1    2    0    0  0.82467859358E+01 -0.18803609608E+03  0.26680697672E+03  0.33917933665E+03  0.91820894539E+02 0.  0.
         11    1    3    3    0    0  0.38697095472E+02 -0.75876043783E+02  0.68399568973E+02  0.10923891364E+03  0.00000000000E+00 0.  1.
        -11    1    3    3    0    0 -0.30450309537E+02 -0.11216005230E+03  0.19840740775E+03  0.22994042301E+03  0.00000000000E+00 0. -1.
         22    1    1    2    0    0 -0.82467859358E+01  0.18803609608E+03 -0.99761667620E+03  0.10152165363E+04  0.00000000000E+00 0.  1.
<mgrwt>
<rscale>  0 0.11403093E+04</rscale>
<asrwt>0</asrwt>
<pdfrwt beam="1">  1        2 0.16040043E+00 0.11403093E+04</pdfrwt>
<pdfrwt beam="2">  1       -2 0.47968167E-01 0.11403093E+04</pdfrwt>
<totfact> 0.96468609E+01</totfact>
</mgrwt>
</event>
<event>
 6    1  0.5040916E-004  0.1015635E+04  0.7818608E-02  0.9291561E-01
          2   -1    0    0  501    0  0.00000000000E+00  0.00000000000E+00  0.11509416327E+04  0.11509416327E+04  0.00000000000E+00 0.  1.
         -2   -1    0    0    0  501 -0.00000000000E+00 -0.00000000000E+00 -0.22405877758E+03  0.22405877758E+03  0.00000000000E+00 0. -1.
         23    2    1    2    0    0 -0.34071702187E+03  0.51934081823E+02  0.96461967110E+03  0.10282882744E+04  0.90002375527E+02 0.  0.
         11    1    3    3    0    0 -0.19550610928E+03  0.43892148774E+02  0.67640361655E+03  0.70545801574E+03  0.00000000000E+00 0.  1.
        -11    1    3    3    0    0 -0.14521091259E+03  0.80419330495E+01  0.28821605454E+03  0.32283025868E+03  0.00000000000E+00 0. -1.
         22    1    1    2    0    0  0.34071702187E+03 -0.51934081823E+02 -0.37736816005E+02  0.34671213583E+03  0.00000000000E+00 0.  1.
<mgrwt>
<rscale>  0 0.10156349E+04</rscale>
<asrwt>0</asrwt>
<pdfrwt beam="1">  1        2 0.17706794E+00 0.10156349E+04</pdfrwt>
<pdfrwt beam="2">  1       -2 0.34470582E-01 0.10156349E+04</pdfrwt>
<totfact> 0.15933409E+02</totfact>
</mgrwt>
</event>
<event>
 6    1  0.5040916E-004  0.1861692E+04  0.7818608E-02  0.8674163E-01
         -2   -1    0    0    0  501 -0.00000000000E+00  0.00000000000E+00  0.61674665613E+03  0.61674665613E+03  0.00000000000E+00 0. -1.
          2   -1    0    0  501    0  0.00000000000E+00 -0.00000000000E+00 -0.14049109162E+04  0.14049109162E+04  0.00000000000E+00 0.  1.
         23    2    1    2    0    0  0.53632579266E+03 -0.64932418753E+03  0.29880695782E+02  0.84757716359E+03  0.90702457932E+02 0.  0.
         11    1    3    3    0    0  0.35862859200E+03 -0.49488952341E+03  0.33958880928E+02  0.61211380721E+03  0.00000000000E+00 0. -1.
        -11    1    3    3    0    0  0.17769720066E+03 -0.15443466412E+03 -0.40781851462E+01  0.23546335638E+03  0.00000000000E+00 0.  1.
         22    1    1    2    0    0 -0.53632579266E+03  0.64932418753E+03 -0.81804495583E+03  0.11740804087E+04  0.00000000000E+00 0.  1.
<mgrwt>
<rscale>  0 0.18616918E+04</rscale>
<asrwt>0</asrwt>
<pdfrwt beam="1">  1        2 0.21614014E+00 0.18616918E+04</pdfrwt>
<pdfrwt beam="2">  1       -2 0.94884102E-01 0.18616918E+04</pdfrwt>
<totfact> 0.12625457E+01</totfact>
</mgrwt>
</event>
<event>
 6    1  0.5040916E-004  0.1765322E+04  0.7818608E-02  0.8724962E-01
          2   -1    0    0  501    0  0.00000000000E+00  0.00000000000E+00  0.11747565408E+04  0.11747565408E+04  0.00000000000E+00 0.  1.
         -2   -1    0    0    0  501 -0.00000000000E+00 -0.00000000000E+00 -0.66319276150E+03  0.66319276150E+03  0.00000000000E+00 0. -1.
         23    2    1    2    0    0 -0.69260190661E+03  0.19215895515E+03  0.78580774325E+03  0.10686429805E+04  0.88778067763E+02 0.  0.
         13    1    3    3    0    0 -0.14531695494E+03  0.21657214652E+02  0.11716793509E+03  0.18792119985E+03  0.00000000000E+00 0. -1.
        -13    1    3    3    0    0 -0.54728495166E+03  0.17050174049E+03  0.66863980816E+03  0.88072178064E+03  0.00000000000E+00 0.  1.
         22    1    1    2    0    0  0.69260190661E+03 -0.19215895515E+03 -0.27424396392E+03  0.76930632184E+03  0.00000000000E+00 0. -1.
<mgrwt>
<rscale>  0 0.17653215E+04</rscale>
<asrwt>0</asrwt>
<pdfrwt beam="1">  1        2 0.18073177E+00 0.17653215E+04</pdfrwt>
<pdfrwt beam="2">  1       -2 0.10202966E+00 0.17653215E+04</pdfrwt>
<totfact> 0.14622911E+01</totfact>
</mgrwt>
</event>
<event>
 6    1  0.5040916E-004  0.2836384E+04  0.7818608E-02  0.8292061E-01
         -2   -1    0    0    0  501 -0.00000000000E+00  0.00000000000E+00  0.10190795802E+04  0.10190795802E+04  0.00000000000E+00 0. -1.
          2   -1    0    0  501    0  0.00000000000E+00 -0.00000000000E+00 -0.19736125637E+04  0.19736125637E+04  0.00000000000E+00 0.  1.
         23    2    1    2    0    0  0.67763320157E+03 -0.87318499290E+03 -0.14128462970E+04  0.17961597034E+04  0.91740031398E+02 0.  0.
         13    1    3    3    0    0  0.29394983115E+03 -0.39442058471E+03 -0.55701920374E+03  0.74313154570E+03  0.00000000000E+00 0.  1.
        -13    1    3    3    0    0  0.38368337042E+03 -0.47876440819E+03 -0.85582709329E+03  0.10530281577E+04  0.00000000000E+00 0. -1.
         22    1    1    2    0    0 -0.67763320157E+03  0.87318499290E+03  0.45831331351E+03  0.11965324404E+04  0.00000000000E+00 0. -1.
<mgrwt>
<rscale>  0 0.28363838E+04</rscale>
<asrwt>0</asrwt>
<pdfrwt beam="1">  1        2 0.30363270E+00 0.28363838E+04</pdfrwt>
<pdfrwt beam="2">  1       -2 0.15678148E+00 0.28363838E+04</pdfrwt>
<totfact> 0.15961073E+00</totfact>
</mgrwt>
</event>
<event>
 6    1  0.5040916E-004  0.2532141E+04  0.7818608E-02  0.8391624E-01
         -2   -1    0    0    0  501 -0.00000000000E+00  0.00000000000E+00  0.10431503529E+04  0.10431503529E+04  0.00000000000E+00 0. -1.
          2   -1    0    0  501    0  0.00000000000E+00 -0.00000000000E+00 -0.15366288144E+04  0.15366288144E+04  0.00000000000E+00 0.  1.
         23    2    1    2    0    0  0.45012999872E+03 -0.85981281555E+03  0.57865773287E+03  0.11336218063E+04  0.91425020693E+02 0.  0.
         11    1    3    3    0    0  0.11001022620E+03 -0.29340357208E+03  0.16516717896E+03  0.35421476957E+03  0.00000000000E+00 0.  1.
        -11    1    3    3    0    0  0.34011977252E+03 -0.56640924346E+03  0.41349055391E+03  0.77940703674E+03  0.00000000000E+00 0. -1.
         22    1    1    2    0    0 -0.45012999872E+03  0.85981281555E+03 -0.10721361944E+04  0.14461573610E+04  0.00000000000E+00 0.  1.
<mgrwt>
<rscale>  0 0.25321413E+04</rscale>
<asrwt>0</asrwt>
<pdfrwt beam="1">  1        2 0.23640443E+00 0.25321413E+04</pdfrwt>
<pdfrwt beam="2">  1       -2 0.16048467E+00 0.25321413E+04</pdfrwt>
<totfact> 0.26902276E+00</totfact>
</mgrwt>
</event>
<event>
 6    1  0.5040916E-004  0.8630918E+03  0.7818608E-02  0.9472932E-01
          2   -1    0    0  501    0  0.00000000000E+00  0.00000000000E+00  0.15535842062E+04  0.15535842062E+04  0.00000000000E+00 0.  1.
         -2   -1    0    0    0  501 -0.00000000000E+00 -0.00000000000E+00 -0.11987240389E+03  0.11987240389E+03  0.00000000000E+00 0. -1.
         23    2    1    2    0    0  0.31866142471E+03  0.12048496365E+02  0.12750218571E+04  0.13172645712E+04  0.88402175499E+02 0.  0.
         11    1    3    3    0    0  0.24515981454E+03  0.46608454564E+02  0.97836183182E+03  0.10096868607E+04  0.00000000000E+00 0. -1.
        -11    1    3    3    0    0  0.73501610173E+02 -0.34559958199E+02  0.29666002523E+03  0.30757771047E+03  0.00000000000E+00 0.  1.
         22    1    1    2    0    0 -0.31866142471E+03 -0.12048496365E+02  0.15868994526E+03  0.35619203892E+03  0.00000000000E+00 0. -1.
<mgrwt>
<rscale>  0 0.86309182E+03</rscale>
<asrwt>0</asrwt>
<pdfrwt beam="1">  1        2 0.23901294E+00 0.86309182E+03</pdfrwt>
<pdfrwt beam="2">  1       -2 0.18441909E-01 0.86309182E+03</pdfrwt>
<totfact> 0.29315221E+02</totfact>
</mgrwt>
</event>
<event>
 6    1  0.5040916E-004  0.1235727E+04  0.7818608E-02  0.9082147E-01
         -2   -1    0    0    0  501 -0.00000000000E+00  0.00000000000E+00  0.27209978228E+03  0.27209978228E+03  0.00000000000E+00 0. -1.
          2   -1    0    0  501    0  0.00000000000E+00 -0.00000000000E+00 -0.14029966184E+04  0.14029966184E+04  0.00000000000E+00 0.  1.
         23    2    1    2    0    0  0.40092233736E+03 -0.28160290737E+03 -0.10713745080E+04  0.11815563054E+04  0.90515460321E+02 0.  0.
         11    1    3    3    0    0  0.24740698813E+03 -0.15170945791E+03 -0.72669446867E+03  0.78250292536E+03  0.00000000000E+00 0.  1.
        -11    1    3    3    0    0  0.15351534922E+03 -0.12989344947E+03 -0.34468003928E+03  0.39905338006E+03  0.00000000000E+00 0. -1.
         22    1    1    2    0    0 -0.40092233736E+03  0.28160290737E+03 -0.59522328125E+02  0.49354009521E+03  0.00000000000E+00 0.  1.
<mgrwt>
<rscale>  0 0.12357266E+04</rscale>
<asrwt>0</asrwt>
<pdfrwt beam="1">  1        2 0.21584563E+00 0.12357266E+04</pdfrwt>
<pdfrwt beam="2">  1       -2 0.41861505E-01 0.12357266E+04</pdfrwt>
<totfact> 0.76691539E+01</totfact>
</mgrwt>
</event>
<event>
 6    1  0.5040916E-004  0.2593049E+04  0.7818608E-02  0.8370566E-01
          2   -1    0    0  501    0  0.00000000000E+00  0.00000000000E+00  0.13361433989E+04  0.13361433989E+04  0.00000000000E+00 0.  1.
         -2   -1    0    0    0  501 -0.00000000000E+00 -0.00000000000E+00 -0.12580802855E+04  0.12580802855E+04  0.00000000000E+00 0. -1.
         23    2    1    2    0    0 -0.89286029685E+03 -0.78386649303E+03  0.55421828740E+03  0.13142354273E+04  0.91709649087E+02 0.  0.
         11    1    3    3    0    0 -0.61221986160E+03 -0.53448685321E+03  0.42546994693E+03  0.91734073873E+03  0.00000000000E+00 0. -1.
        -11    1    3    3    0    0 -0.28064043525E+03 -0.24937963982E+03  0.12874834047E+03  0.39689468858E+03  0.00000000000E+00 0.  1.
         22    1    1    2    0    0  0.89286029685E+03  0.78386649303E+03 -0.47615517400E+03  0.12799882571E+04  0.00000000000E+00 0. -1.
<mgrwt>
<rscale>  0 0.25930489E+04</rscale>
<asrwt>0</asrwt>
<pdfrwt beam="1">  1        2 0.20556052E+00 0.25930489E+04</pdfrwt>
<pdfrwt beam="2">  1       -2 0.19355081E+00 0.25930489E+04</pdfrwt>
<totfact> 0.20457460E+00</totfact>
</mgrwt>
</event>
<event>
 6    1  0.5040916E-004  0.2367975E+04  0.7818608E-02  0.8451592E-01
          2   -1    0    0  501    0  0.00000000000E+00  0.00000000000E+00  0.31995699748E+04  0.31995699748E+04  0.00000000000E+00 0.  1.
         -2   -1    0    0    0  501 -0.00000000000E+00 -0.00000000000E+00 -0.43812949693E+03  0.43812949693E+03  0.00000000000E+00 0. -1.
         23    2    1    2    0    0  0.10474027749E+04  0.44859312891E+03  0.18683560767E+04  0.21899812272E+04  0.83516333055E+02 0.  0.
         11    1    3    3    0    0  0.46505491184E+03  0.17647226122E+03  0.74696881006E+03  0.89743018292E+03  0.00000000000E+00 0.  1.
        -11    1    3    3    0    0  0.58234786302E+03  0.27212086769E+03  0.11213872667E+04  0.12925510443E+04  0.00000000000E+00 0. -1.
         22    1    1    2    0    0 -0.10474027749E+04 -0.44859312891E+03  0.89308440118E+03  0.14477182446E+04  0.00000000000E+00 0. -1.
<mgrwt>
<rscale>  0 0.23679746E+04</rscale>
<asrwt>0</asrwt>
<pdfrwt beam="1">  1        2 0.49224152E+00 0.23679746E+04</pdfrwt>
<pdfrwt beam="2">  1       -2 0.67404540E-01 0.23679746E+04</pdfrwt>
<totfact> 0.23638544E+00</totfact>
</mgrwt>
</event>
<event>
 6    1  0.5040916E-004  0.1390548E+04  0.7818608E-02  0.8960689E-01
          2   -1    0    0  501    0  0.00000000000E+00  0.00000000000E+00  0.18308654303E+04  0.18308654303E+04  0.00000000000E+00 0. -1.
         -2   -1    0    0    0  501 -0.00000000000E+00 -0.00000000000E+00 -0.26403139913E+03  0.26403139913E+03  0.00000000000E+00 0.  1.
         23    2    1    2    0    0 -0.32326298195E+03  0.37439121568E+03  0.15166695639E+04  0.15977205914E+04  0.88072606840E+02 0.  0.
         13    1    3    3    0    0 -0.28582636171E+03  0.28331285259E+03  0.11666535334E+04  0.12341164242E+04  0.00000000000E+00 0. -1.
        -13    1    3    3    0    0 -0.37436620244E+02  0.91078363084E+02  0.35001603052E+03  0.36360416717E+03  0.00000000000E+00 0.  1.
         22    1    1    2    0    0  0.32326298195E+03 -0.37439121568E+03  0.50164467204E+02  0.49717623801E+03  0.00000000000E+00 0.  1.
<mgrwt>
<rscale>  0 0.13905480E+04</rscale>
<asrwt>0</asrwt>
<pdfrwt beam="1">  1        2 0.28167160E+00 0.13905480E+04</pdfrwt>
<pdfrwt beam="2">  1       -2 0.40620216E-01 0.13905480E+04</pdfrwt>
<totfact> 0.46364900E+01</totfact>
</mgrwt>
</event>
<event>
 6    1  0.5040916E-004  0.6807101E+03  0.7818608E-02  0.9750801E-01
         -2   -1    0    0    0  501 -0.00000000000E+00  0.00000000000E+00  0.21564399724E+03  0.21564399724E+03  0.00000000000E+00 0. -1.
          2   -1    0    0  501    0  0.00000000000E+00 -0.00000000000E+00 -0.53718894034E+03  0.53718894034E+03  0.00000000000E+00 0.  1.
         23    2    1    2    0    0  0.18897114912E+03  0.14642470112E+03 -0.42159768216E+03  0.49367885427E+03  0.93935708076E+02 0.  0.
         11    1    3    3    0    0  0.41425254355E+02 -0.10809166062E+01 -0.11998381048E+03  0.12693831122E+03  0.00000000000E+00 0. -1.
        -11    1    3    3    0    0  0.14754589477E+03  0.14750561773E+03 -0.30161387168E+03  0.36674054305E+03  0.00000000000E+00 0.  1.
         22    1    1    2    0    0 -0.18897114912E+03 -0.14642470112E+03  0.10005273906E+03  0.25915408330E+03  0.00000000000E+00 0. -1.
<mgrwt>
<rscale>  0 0.68071013E+03</rscale>
<asrwt>0</asrwt>
<pdfrwt beam="1">  1        2 0.82644452E-01 0.68071013E+03</pdfrwt>
<pdfrwt beam="2">  1       -2 0.33176000E-01 0.68071013E+03</pdfrwt>
<totfact> 0.48353478E+02</totfact>
</mgrwt>
</event>
<event>
 6    1  0.5040916E-004  0.3183158E+04  0.7818608E-02  0.8193279E-01
         -2   -1    0    0    0  501 -0.00000000000E+00  0.00000000000E+00  0.11944990752E+04  0.11944990752E+04  0.00000000000E+00 0. -1.
          2   -1    0    0  501    0  0.00000000000E+00 -0.00000000000E+00 -0.21206583740E+04  0.21206583740E+04  0.00000000000E+00 0.  1.
         23    2    1    2    0    0 -0.10060753812E+04 -0.42698490040E+03  0.73967416247E+03  0.13227958107E+04  0.90372077809E+02 0.  0.
         13    1    3    3    0    0 -0.74900704899E+03 -0.31092502248E+03  0.59473483511E+03  0.10056815864E+04  0.00000000000E+00 0. -1.
        -13    1    3    3    0    0 -0.25706833222E+03 -0.11605987792E+03  0.14493932736E+03  0.31711422438E+03  0.00000000000E+00 0.  1.
         22    1    1    2    0    0  0.10060753812E+04  0.42698490040E+03 -0.16658334612E+04  0.19923616385E+04  0.00000000000E+00 0.  1.
<mgrwt>
<rscale>  0 0.31831585E+04</rscale>
<asrwt>0</asrwt>
<pdfrwt beam="1">  1        2 0.32625513E+00 0.31831585E+04</pdfrwt>
<pdfrwt beam="2">  1       -2 0.18376909E+00 0.31831585E+04</pdfrwt>
<totfact> 0.82418372E-01</totfact>
</mgrwt>
</event>
<event>
 6    1  0.5040916E-004  0.3697436E+04  0.7818608E-02  0.8068530E-01
          2   -1    0    0  501    0  0.00000000000E+00  0.00000000000E+00  0.27048622487E+04  0.27048622487E+04  0.00000000000E+00 0.  1.
         -2   -1    0    0    0  501 -0.00000000000E+00 -0.00000000000E+00 -0.12635607692E+04  0.12635607692E+04  0.00000000000E+00 0. -1.
         23    2    1    2    0    0 -0.47490191476E+03  0.47479543847E+03 -0.11270862351E+04  0.13136955386E+04  0.67156904957E+02 0.  0.
         11    1    3    3    0    0 -0.17544908825E+03  0.21527398123E+03 -0.49827384710E+03  0.57044026529E+03  0.00000000000E+00 0.  1.
        -11    1    3    3    0    0 -0.29945282651E+03  0.25952145724E+03 -0.62881238799E+03  0.74325527335E+03  0.00000000000E+00 0. -1.
         22    1    1    2    0    0  0.47490191476E+03 -0.47479543847E+03  0.25683877145E+04  0.26547274793E+04  0.00000000000E+00 0.  1.
<mgrwt>
<rscale>  0 0.36974358E+04</rscale>
<asrwt>0</asrwt>
<pdfrwt beam="1">  1        2 0.41613265E+00 0.36974358E+04</pdfrwt>
<pdfrwt beam="2">  1       -2 0.19439397E+00 0.36974358E+04</pdfrwt>
<totfact> 0.30888596E-01</totfact>
</mgrwt>
</event>
<event>
 6    1  0.5040916E-004  0.1837336E+04  0.7818608E-02  0.8686693E-01
         -2   -1    0    0    0  501 -0.00000000000E+00  0.00000000000E+00  0.87831081347E+03  0.87831081347E+03  0.00000000000E+00 0. -1.
          2   -1    0    0  501    0  0.00000000000E+00 -0.00000000000E+00 -0.96087961665E+03  0.96087961665E+03  0.00000000000E+00 0.  1.
         23    2    1    2    0    0 -0.66874613190E+02  0.60192702035E+03  0.64695218310E+03  0.89104000896E+03  0.92826820661E+02 0.  0.
         11    1    3    3    0    0 -0.17839601250E+02  0.49096294718E+03  0.52520795602E+03  0.71917053885E+03  0.00000000000E+00 0. -1.
        -11    1    3    3    0    0 -0.49035011940E+02  0.11096407317E+03  0.12174422708E+03  0.17186947011E+03  0.00000000000E+00 0.  1.
         22    1    1    2    0    0  0.66874613190E+02 -0.60192702035E+03 -0.72952098628E+03  0.94815042116E+03  0.00000000000E+00 0.  1.
<mgrwt>
<rscale>  0 0.18373361E+04</rscale>
<asrwt>0</asrwt>
<pdfrwt beam="1">  1        2 0.14782763E+00 0.18373361E+04</pdfrwt>
<pdfrwt beam="2">  1       -2 0.13512474E+00 0.18373361E+04</pdfrwt>
<totfact> 0.98930635E+00</totfact>
</mgrwt>
</event>
<event>
 6    1  0.5040916E-004  0.1504178E+04  0.7818608E-02  0.8881679E-01
         -2   -1    0    0    0  501 -0.00000000000E+00  0.00000000000E+00  0.59194026301E+03  0.59194026301E+03  0.00000000000E+00 0. -1.
          2   -1    0    0  501    0  0.00000000000E+00 -0.00000000000E+00 -0.95556563687E+03  0.95556563687E+03  0.00000000000E+00 0.  1.
         23    2    1    2    0    0 -0.16639268306E+02  0.43523728284E+03 -0.80984433647E+03  0.92395179619E+03  0.90170475908E+02 0.  0.
         13    1    3    3    0    0 -0.71427330316E+01  0.24320348821E+03 -0.54335250692E+03  0.59534099648E+03  0.00000000000E+00 0. -1.
        -13    1    3    3    0    0 -0.94965352744E+01  0.19203379463E+03 -0.26649182956E+03  0.32861079971E+03  0.00000000000E+00 0.  1.
         22    1    1    2    0    0  0.16639268306E+02 -0.43523728284E+03  0.44621896261E+03  0.62355410369E+03  0.00000000000E+00 0. -1.
<mgrwt>
<rscale>  0 0.15041779E+04</rscale>
<asrwt>0</asrwt>
<pdfrwt beam="1">  1        2 0.14701010E+00 0.15041779E+04</pdfrwt>
<pdfrwt beam="2">  1       -2 0.91067733E-01 0.15041779E+04</pdfrwt>
<totfact> 0.26748044E+01</totfact>
</mgrwt>
</event>
<event>
 6    1  0.5040916E-004  0.2623585E+04  0.7818608E-02  0.8360234E-01
         -2   -1    0    0    0  501 -0.00000000000E+00  0.00000000000E+00  0.92402821903E+03  0.92402821903E+03  0.00000000000E+00 0. -1.
          2   -1    0    0  501    0  0.00000000000E+00 -0.00000000000E+00 -0.18622796902E+04  0.18622796902E+04  0.00000000000E+00 0.  1.
         23    2    1    2    0    0 -0.48561924960E+03  0.53729760982E+03 -0.16292761780E+04  0.17852934625E+04  0.90648252424E+02 0.  0.
         11    1    3    3    0    0 -0.26225932611E+03  0.24573274138E+03 -0.88940056164E+03  0.95926945816E+03  0.00000000000E+00 0. -1.
        -11    1    3    3    0    0 -0.22335992348E+03  0.29156486844E+03 -0.73987561640E+03  0.82602400430E+03  0.00000000000E+00 0.  1.
         22    1    1    2    0    0  0.48561924960E+03 -0.53729760982E+03  0.69102470689E+03  0.10010144468E+04  0.00000000000E+00 0. -1.
<mgrwt>
<rscale>  0 0.26235846E+04</rscale>
<asrwt>0</asrwt>
<pdfrwt beam="1">  1        2 0.28650456E+00 0.26235846E+04</pdfrwt>
<pdfrwt beam="2">  1       -2 0.14215819E+00 0.26235846E+04</pdfrwt>
<totfact> 0.24281670E+00</totfact>
</mgrwt>
</event>
<event>
 6    1  0.5040916E-004  0.4034407E+04  0.7818608E-02  0.7997641E-01
         -2   -1    0    0    0  501 -0.00000000000E+00  0.00000000000E+00  0.28468595179E+04  0.28468595179E+04  0.00000000000E+00 0. -1.
          2   -1    0    0  501    0  0.00000000000E+00 -0.00000000000E+00 -0.14293326591E+04  0.14293326591E+04  0.00000000000E+00 0.  1.
         23    2    1    2    0    0  0.19297405795E+04 -0.58005953619E+03  0.78067477967E+03  0.21629131277E+04  0.91500364103E+02 0.  0.
         11    1    3    3    0    0  0.48665373006E+03 -0.18655181524E+03  0.21331984229E+03  0.56315076833E+03  0.00000000000E+00 0. -1.
        -11    1    3    3    0    0  0.14430868494E+04 -0.39350772095E+03  0.56735493739E+03  0.15997623594E+04  0.00000000000E+00 0.  1.
         22    1    1    2    0    0 -0.19297405795E+04  0.58005953619E+03  0.63685207915E+03  0.21132790493E+04  0.00000000000E+00 0. -1.
<mgrwt>
<rscale>  0 0.40344067E+04</rscale>
<asrwt>0</asrwt>
<pdfrwt beam="1">  1        2 0.21989733E+00 0.40344067E+04</pdfrwt>
<pdfrwt beam="2">  1       -2 0.43797839E+00 0.40344067E+04</pdfrwt>
<totfact> 0.45654097E-02</totfact>
</mgrwt>
</event>
<event>
 6    1  0.5040916E-004  0.2493958E+04  0.7818608E-02  0.8405141E-01
         -2   -1    0    0    0  501 -0.00000000000E+00  0.00000000000E+00  0.54740955062E+03  0.54740955062E+03  0.00000000000E+00 0.  1.
          2   -1    0    0  501    0  0.00000000000E+00 -0.00000000000E+00 -0.28405719025E+04  0.28405719025E+04  0.00000000000E+00 0. -1.
         23    2    1    2    0    0 -0.90479592595E+02 -0.50282351133E+03  0.39449447379E+03  0.65219687592E+03  0.93363991387E+02 0.  0.
         11    1    3    3    0    0 -0.61082385699E+02 -0.41362084904E+03  0.27597463259E+03  0.50097431315E+03  0.00000000000E+00 0.  1.
        -11    1    3    3    0    0 -0.29397206896E+02 -0.89202662291E+02  0.11851984120E+03  0.15122256277E+03  0.00000000000E+00 0. -1.
         22    1    1    2    0    0  0.90479592595E+02  0.50282351133E+03 -0.26876568257E+04  0.27357845772E+04  0.00000000000E+00 0. -1.
<mgrwt>
<rscale>  0 0.24939576E+04</rscale>
<asrwt>0</asrwt>
<pdfrwt beam="1">  1        2 0.43701107E+00 0.24939576E+04</pdfrwt>
<pdfrwt beam="2">  1       -2 0.84216852E-01 0.24939576E+04</pdfrwt>
<totfact> 0.23990625E+00</totfact>
</mgrwt>
</event>
<event>
 6    1  0.5040916E-004  0.5062050E+04  0.7818608E-02  0.7819006E-01
          2   -1    0    0  501    0  0.00000000000E+00  0.00000000000E+00  0.18570099409E+04  0.18570099409E+04  0.00000000000E+00 0.  1.
         -2   -1    0    0    0  501 -0.00000000000E+00 -0.00000000000E+00 -0.34496783728E+04  0.34496783728E+04  0.00000000000E+00 0. -1.
         23    2    1    2    0    0  0.78822727968E+03 -0.32493614797E+03  0.17007841328E+04  0.19046719203E+04  0.90679175962E+02 0.  0.
         13    1    3    3    0    0  0.14679267487E+03 -0.42466103837E+02  0.37707347720E+03  0.40686099171E+03  0.00000000000E+00 0. -1.
        -13    1    3    3    0    0  0.64143460481E+03 -0.28247004413E+03  0.13237106556E+04  0.14978109286E+04  0.00000000000E+00 0.  1.
         22    1    1    2    0    0 -0.78822727968E+03  0.32493614797E+03 -0.32934525647E+04  0.34020163934E+04  0.00000000000E+00 0. -1.
<mgrwt>
<rscale>  0 0.50620498E+04</rscale>
<asrwt>0</asrwt>
<pdfrwt beam="1">  1        2 0.28569384E+00 0.50620498E+04</pdfrwt>
<pdfrwt beam="2">  1       -2 0.53071974E+00 0.50620498E+04</pdfrwt>
<totfact> 0.63626919E-03</totfact>
</mgrwt>
</event>
<event>
 6    1  0.5040916E-004  0.1132248E+04  0.7818608E-02  0.9174318E-01
         -2   -1    0    0    0  501 -0.00000000000E+00  0.00000000000E+00  0.46371189096E+03  0.46371189096E+03  0.00000000000E+00 0. -1.
          2   -1    0    0  501    0  0.00000000000E+00 -0.00000000000E+00 -0.69115440146E+03  0.69115440146E+03  0.00000000000E+00 0.  1.
         23    2    1    2    0    0  0.31537459556E+03  0.45870532326E+03 -0.19655815464E+03  0.59734898099E+03  0.91208485429E+02 0.  0.
         13    1    3    3    0    0  0.25188263634E+03  0.29883586655E+03 -0.11808667193E+03  0.40827956073E+03  0.00000000000E+00 0. -1.
        -13    1    3    3    0    0  0.63491959223E+02  0.15986945672E+03 -0.78471482711E+02  0.18906942026E+03  0.00000000000E+00 0.  1.
         22    1    1    2    0    0 -0.31537459556E+03 -0.45870532326E+03 -0.30884355856E+02  0.55751731144E+03  0.00000000000E+00 0. -1.
<mgrwt>
<rscale>  0 0.11322482E+04</rscale>
<asrwt>0</asrwt>
<pdfrwt beam="1">  1        2 0.10633145E+00 0.11322482E+04</pdfrwt>
<pdfrwt beam="2">  1       -2 0.71340291E-01 0.11322482E+04</pdfrwt>
<totfact> 0.73621528E+01</totfact>
</mgrwt>
</event>
<event>
 6    1  0.5040916E-004  0.1835858E+04  0.7818608E-02  0.8687460E-01
         -2   -1    0    0    0  501 -0.00000000000E+00  0.00000000000E+00  0.22816150980E+04  0.22816150980E+04  0.00000000000E+00 0. -1.
          2   -1    0    0  501    0  0.00000000000E+00 -0.00000000000E+00 -0.36929698659E+03  0.36929698659E+03  0.00000000000E+00 0.  1.
         23    2    1    2    0    0  0.43482819764E+03  0.25008924048E+03 -0.14645231269E+03  0.53191330006E+03  0.99314093789E+02 0.  0.
         13    1    3    3    0    0  0.12715389570E+03  0.61731117495E+02 -0.87876033194E+02  0.16643629793E+03  0.00000000000E+00 0. -1.
        -13    1    3    3    0    0  0.30767430194E+03  0.18835812298E+03 -0.58576279498E+02  0.36547700213E+03  0.00000000000E+00 0.  1.
         22    1    1    2    0    0 -0.43482819764E+03 -0.25008924048E+03  0.20587704241E+04  0.21189987845E+04  0.00000000000E+00 0. -1.
<mgrwt>
<rscale>  0 0.18358579E+04</rscale>
<asrwt>0</asrwt>
<pdfrwt beam="1">  1        2 0.56814922E-01 0.18358579E+04</pdfrwt>
<pdfrwt beam="2">  1       -2 0.35101770E+00 0.18358579E+04</pdfrwt>
<totfact> 0.12599167E+00</totfact>
</mgrwt>
</event>
<event>
 6    1  0.5040916E-004  0.2061289E+04  0.7818608E-02  0.8578490E-01
          2   -1    0    0  501    0  0.00000000000E+00  0.00000000000E+00  0.39285381581E+04  0.39285381581E+04  0.00000000000E+00 0.  1.
         -2   -1    0    0    0  501 -0.00000000000E+00 -0.00000000000E+00 -0.27038771443E+03  0.27038771443E+03  0.00000000000E+00 0. -1.
         23    2    1    2    0    0 -0.10644592562E+03  0.23908676272E+03  0.38590796912E+04  0.38689777286E+04  0.89439286262E+02 0.  0.
         11    1    3    3    0    0 -0.10629848776E+03  0.19156446607E+03  0.26795593787E+04  0.26885004700E+04  0.00000000000E+00 0.  1.
        -11    1    3    3    0    0 -0.14743786248E+00  0.47522296658E+02  0.11795203125E+04  0.11804772586E+04  0.00000000000E+00 0. -1.
         22    1    1    2    0    0  0.10644592562E+03 -0.23908676272E+03 -0.20092924753E+03  0.32994814396E+03  0.00000000000E+00 0. -1.
<mgrwt>
<rscale>  0 0.20612894E+04</rscale>
<asrwt>0</asrwt>
<pdfrwt beam="1">  1        2 0.60439044E+00 0.20612894E+04</pdfrwt>
<pdfrwt beam="2">  1       -2 0.41598113E-01 0.20612894E+04</pdfrwt>
<totfact> 0.19930843E+00</totfact>
</mgrwt>
</event>
<event>
 6    1  0.5040916E-004  0.1878614E+04  0.7818608E-02  0.8665575E-01
          2   -1    0    0  501    0  0.00000000000E+00  0.00000000000E+00  0.47374397746E+03  0.47374397746E+03  0.00000000000E+00 0.  1.
         -2   -1    0    0    0  501 -0.00000000000E+00 -0.00000000000E+00 -0.18623936947E+04  0.18623936947E+04  0.00000000000E+00 0. -1.
         23    2    1    2    0    0 -0.23370139812E+03 -0.56640722960E+03 -0.15776469879E+04  0.16949251789E+04  0.91475955364E+02 0.  0.
         13    1    3    3    0    0 -0.15594707600E+03 -0.45259111070E+03 -0.11515227919E+04  0.12470617243E+04  0.00000000000E+00 0. -1.
        -13    1    3    3    0    0 -0.77754322124E+02 -0.11381611890E+03 -0.42612419606E+03  0.44786345464E+03  0.00000000000E+00 0.  1.
         22    1    1    2    0    0  0.23370139812E+03  0.56640722960E+03  0.18899727065E+03  0.64121249328E+03  0.00000000000E+00 0.  1.
<mgrwt>
<rscale>  0 0.18786142E+04</rscale>
<asrwt>0</asrwt>
<pdfrwt beam="1">  1        2 0.72883688E-01 0.18786142E+04</pdfrwt>
<pdfrwt beam="2">  1       -2 0.28652211E+00 0.18786142E+04</pdfrwt>
<totfact> 0.23653411E+00</totfact>
</mgrwt>
</event>
<event>
 6    1  0.5040916E-004  0.4938180E+03  0.7818608E-02  0.1015405E+00
          2   -1    0    0  501    0  0.00000000000E+00  0.00000000000E+00  0.88495910061E+03  0.88495910061E+03  0.00000000000E+00 0.  1.
         -2   -1    0    0    0  501 -0.00000000000E+00 -0.00000000000E+00 -0.68889131863E+02  0.68889131863E+02  0.00000000000E+00 0. -1.
         23    2    1    2    0    0  0.16053898936E+03 -0.85110637481E+02  0.72014481999E+03  0.74837750005E+03  0.91889787848E+02 0.  0.
         11    1    3    3    0    0  0.44753660260E+02 -0.35628301515E+02  0.40482250038E+03  0.40884413019E+03  0.00000000000E+00 0. -1.
        -11    1    3    3    0    0  0.11578532910E+03 -0.49482335966E+02  0.31532231960E+03  0.33953336986E+03  0.00000000000E+00 0.  1.
         22    1    1    2    0    0 -0.16053898936E+03  0.85110637481E+02  0.95925148761E+02  0.20547073242E+03  0.00000000000E+00 0. -1.
<mgrwt>
<rscale>  0 0.49381804E+03</rscale>
<asrwt>0</asrwt>
<pdfrwt beam="1">  1        2 0.13614755E+00 0.49381804E+03</pdfrwt>
<pdfrwt beam="2">  1       -2 0.10598329E-01 0.49381804E+03</pdfrwt>
<totfact> 0.18810195E+03</totfact>
</mgrwt>
</event>
<event>
 6    1  0.5040916E-004  0.2857666E+04  0.7818608E-02  0.8285586E-01
         -2   -1    0    0    0  501 -0.00000000000E+00  0.00000000000E+00  0.98363751833E+03  0.98363751833E+03  0.00000000000E+00 0. -1.
          2   -1    0    0  501    0  0.00000000000E+00 -0.00000000000E+00 -0.20755238735E+04  0.20755238735E+04  0.00000000000E+00 0.  1.
         23    2    1    2    0    0  0.10976525684E+03 -0.10216537627E+04  0.51402079840E+03  0.11526560527E+04  0.92594665916E+02 0.  0.
         11    1    3    3    0    0  0.84856953934E+02 -0.81408507176E+03  0.36658516981E+03  0.89683883358E+03  0.00000000000E+00 0. -1.
        -11    1    3    3    0    0  0.24908302904E+02 -0.20756869092E+03  0.14743562859E+03  0.25581721909E+03  0.00000000000E+00 0.  1.
         22    1    1    2    0    0 -0.10976525684E+03  0.10216537627E+04 -0.16059071536E+04  0.19065053392E+04  0.00000000000E+00 0.  1.
<mgrwt>
<rscale>  0 0.28576656E+04</rscale>
<asrwt>0</asrwt>
<pdfrwt beam="1">  1        2 0.31931136E+00 0.28576656E+04</pdfrwt>
<pdfrwt beam="2">  1       -2 0.15132885E+00 0.28576656E+04</pdfrwt>
<totfact> 0.15371047E+00</totfact>
</mgrwt>
</event>
<event>
 6    1  0.5040916E-004  0.1944098E+04  0.7818608E-02  0.8633212E-01
          2   -1    0    0  501    0  0.00000000000E+00  0.00000000000E+00  0.63036560332E+03  0.63036560332E+03  0.00000000000E+00 0.  1.
         -2   -1    0    0    0  501 -0.00000000000E+00 -0.00000000000E+00 -0.14989388062E+04  0.14989388062E+04  0.00000000000E+00 0. -1.
         23    2    1    2    0    0  0.74521568693E+03  0.14638614481E+03 -0.10957153149E+04  0.13366072022E+04  0.95663149274E+02 0.  0.
         11    1    3    3    0    0  0.50166341594E+03  0.11358747555E+03 -0.81259710868E+03  0.96170804225E+03  0.00000000000E+00 0. -1.
        -11    1    3    3    0    0  0.24355227100E+03  0.32798669259E+02 -0.28311820622E+03  0.37489915992E+03  0.00000000000E+00 0.  1.
         22    1    1    2    0    0 -0.74521568693E+03 -0.14638614481E+03  0.22714211205E+03  0.79269720733E+03  0.00000000000E+00 0.  1.
<mgrwt>
<rscale>  0 0.19440982E+04</rscale>
<asrwt>0</asrwt>
<pdfrwt beam="1">  1        2 0.96979325E-01 0.19440982E+04</pdfrwt>
<pdfrwt beam="2">  1       -2 0.23060597E+00 0.19440982E+04</pdfrwt>
<totfact> 0.36918531E+00</totfact>
</mgrwt>
</event>
<event>
 6    1  0.5040916E-004  0.1734736E+04  0.7818608E-02  0.8741797E-01
         -2   -1    0    0    0  501 -0.00000000000E+00  0.00000000000E+00  0.97054097960E+03  0.97054097960E+03  0.00000000000E+00 0. -1.
          2   -1    0    0  501    0  0.00000000000E+00 -0.00000000000E+00 -0.77516300472E+03  0.77516300472E+03  0.00000000000E+00 0.  1.
         23    2    1    2    0    0 -0.56856910846E+03 -0.64398810425E+03  0.20011663299E+03  0.88662659293E+03  0.89825046518E+02 0.  0.
         13    1    3    3    0    0 -0.28051084572E+03 -0.37726906906E+03  0.13074274114E+03  0.48796716016E+03  0.00000000000E+00 0. -1.
        -13    1    3    3    0    0 -0.28805826274E+03 -0.26671903519E+03  0.69373891853E+02  0.39865943277E+03  0.00000000000E+00 0.  1.
         22    1    1    2    0    0  0.56856910846E+03  0.64398810425E+03 -0.47386581154E+01  0.85907739139E+03  0.00000000000E+00 0.  1.
<mgrwt>
<rscale>  0 0.17347362E+04</rscale>
<asrwt>0</asrwt>
<pdfrwt beam="1">  1        2 0.11925585E+00 0.17347362E+04</pdfrwt>
<pdfrwt beam="2">  1       -2 0.14931400E+00 0.17347362E+04</pdfrwt>
<totfact> 0.10332321E+01</totfact>
</mgrwt>
</event>
<event>
 6    1  0.5040916E-004  0.2830142E+04  0.7818608E-02  0.8293971E-01
          2   -1    0    0  501    0  0.00000000000E+00  0.00000000000E+00  0.34337147754E+04  0.34337147754E+04  0.00000000000E+00 0.  1.
         -2   -1    0    0    0  501 -0.00000000000E+00 -0.00000000000E+00 -0.58316604968E+03  0.58316604968E+03  0.00000000000E+00 0. -1.
         23    2    1    2    0    0  0.57070238214E+03 -0.12575887716E+04  0.18544250472E+04  0.23140910229E+04  0.94309487995E+02 0.  0.
         11    1    3    3    0    0  0.48095906719E+03 -0.11159206664E+04  0.16619703550E+04  0.20588215121E+04  0.00000000000E+00 0.  1.
        -11    1    3    3    0    0  0.89743314952E+02 -0.14166810514E+03  0.19245469223E+03  0.25526951082E+03  0.00000000000E+00 0. -1.
         22    1    1    2    0    0 -0.57070238214E+03  0.12575887716E+04  0.99612367852E+03  0.17027898021E+04  0.00000000000E+00 0.  1.
<mgrwt>
<rscale>  0 0.28301420E+04</rscale>
<asrwt>0</asrwt>
<pdfrwt beam="1">  1        2 0.52826380E+00 0.28301420E+04</pdfrwt>
<pdfrwt beam="2">  1       -2 0.89717856E-01 0.28301420E+04</pdfrwt>
<totfact> 0.83496203E-01</totfact>
</mgrwt>
</event>
<event>
 6    1  0.5040916E-004  0.2135624E+04  0.7818608E-02  0.8545711E-01
          2   -1    0    0  501    0  0.00000000000E+00  0.00000000000E+00  0.66055066495E+03  0.66055066495E+03  0.00000000000E+00 0.  1.
         -2   -1    0    0    0  501 -0.00000000000E+00 -0.00000000000E+00 -0.17261697081E+04  0.17261697081E+04  0.00000000000E+00 0. -1.
         23    2    1    2    0    0 -0.25818230114E+03  0.79041788748E+03 -0.12790588014E+04  0.15282478530E+04  0.90175081132E+02 0.  0.
         11    1    3    3    0    0 -0.13994185968E+03  0.52843138454E+03 -0.89114988823E+03  0.10454528089E+04  0.00000000000E+00 0. -1.
        -11    1    3    3    0    0 -0.11824044146E+03  0.26198650295E+03 -0.38790891313E+03  0.48279504410E+03  0.00000000000E+00 0.  1.
         22    1    1    2    0    0  0.25818230114E+03 -0.79041788748E+03  0.21343975817E+03  0.85847252014E+03  0.00000000000E+00 0.  1.
<mgrwt>
<rscale>  0 0.21356241E+04</rscale>
<asrwt>0</asrwt>
<pdfrwt beam="1">  1        2 0.10162318E+00 0.21356241E+04</pdfrwt>
<pdfrwt beam="2">  1       -2 0.26556457E+00 0.21356241E+04</pdfrwt>
<totfact> 0.20891973E+00</totfact>
</mgrwt>
</event>
<event>
 6    1  0.5040916E-004  0.3060758E+04  0.7818608E-02  0.8226591E-01
          2   -1    0    0  501    0  0.00000000000E+00  0.00000000000E+00  0.13497417213E+04  0.13497417213E+04  0.00000000000E+00 0.  1.
         -2   -1    0    0    0  501 -0.00000000000E+00 -0.00000000000E+00 -0.17351907590E+04  0.17351907590E+04  0.00000000000E+00 0. -1.
         23    2    1    2    0    0  0.53389681028E+03  0.40403591371E+03 -0.15781164336E+04  0.17171801853E+04  0.99827287458E+02 0.  0.
         13    1    3    3    0    0  0.35464009889E+03  0.21438345268E+03 -0.10246230925E+04  0.11052521641E+04  0.00000000000E+00 0.  1.
        -13    1    3    3    0    0  0.17925671139E+03  0.18965246103E+03 -0.55349334101E+03  0.61192802117E+03  0.00000000000E+00 0. -1.
         22    1    1    2    0    0 -0.53389681028E+03 -0.40403591371E+03  0.11926673958E+04  0.13677522951E+04  0.00000000000E+00 0.  1.
<mgrwt>
<rscale>  0 0.30607577E+04</rscale>
<asrwt>0</asrwt>
<pdfrwt beam="1">  1        2 0.20765257E+00 0.30607577E+04</pdfrwt>
<pdfrwt beam="2">  1       -2 0.26695242E+00 0.30607577E+04</pdfrwt>
<totfact> 0.66648703E-01</totfact>
</mgrwt>
</event>
<event>
 6    1  0.5040916E-004  0.2277206E+04  0.7818608E-02  0.8486963E-01
          2   -1    0    0  501    0  0.00000000000E+00  0.00000000000E+00  0.20007937543E+04  0.20007937543E+04  0.00000000000E+00 0.  1.
         -2   -1    0    0    0  501 -0.00000000000E+00 -0.00000000000E+00 -0.64795131059E+03  0.64795131059E+03  0.00000000000E+00 0. -1.
         23    2    1    2    0    0 -0.96434067076E+03  0.59119853622E+03  0.80886649673E+03  0.13936042483E+04  0.91646892463E+02 0.  0.
         13    1    3    3    0    0 -0.56504485039E+03  0.31182025721E+03  0.41829731567E+03  0.76907749938E+03  0.00000000000E+00 0. -1.
        -13    1    3    3    0    0 -0.39929582037E+03  0.27937827901E+03  0.39056918107E+03  0.62452674894E+03  0.00000000000E+00 0.  1.
         22    1    1    2    0    0  0.96434067076E+03 -0.59119853622E+03  0.54397594699E+03  0.12551408166E+04  0.00000000000E+00 0. -1.
<mgrwt>
<rscale>  0 0.22772061E+04</rscale>
<asrwt>0</asrwt>
<pdfrwt beam="1">  1        2 0.30781442E+00 0.22772061E+04</pdfrwt>
<pdfrwt beam="2">  1       -2 0.99684818E-01 0.22772061E+04</pdfrwt>
<totfact> 0.50448670E+00</totfact>
</mgrwt>
</event>
<event>
 6    1  0.5040916E-004  0.3767781E+04  0.7818608E-02  0.8053105E-01
          2   -1    0    0  501    0  0.00000000000E+00  0.00000000000E+00  0.26483584062E+04  0.26483584062E+04  0.00000000000E+00 0.  1.
         -2   -1    0    0    0  501 -0.00000000000E+00 -0.00000000000E+00 -0.13400917585E+04  0.13400917585E+04  0.00000000000E+00 0. -1.
         23    2    1    2    0    0  0.91076929802E+03  0.27628639907E+02 -0.10896254220E+04  0.14232697746E+04  0.90273113202E+02 0.  0.
         13    1    3    3    0    0  0.75035841428E+02 -0.22690465329E+02 -0.95216748698E+02  0.12333476375E+03  0.00000000000E+00 0. -1.
        -13    1    3    3    0    0  0.83573345660E+03  0.50319105236E+02 -0.99440867329E+03  0.12999350108E+04  0.00000000000E+00 0.  1.
         22    1    1    2    0    0 -0.91076929802E+03 -0.27628639907E+02  0.23978920697E+04  0.25651803901E+04  0.00000000000E+00 0.  1.
<mgrwt>
<rscale>  0 0.37677809E+04</rscale>
<asrwt>0</asrwt>
<pdfrwt beam="1">  1        2 0.40743976E+00 0.37677809E+04</pdfrwt>
<pdfrwt beam="2">  1       -2 0.20616796E+00 0.37677809E+04</pdfrwt>
<totfact> 0.27768800E-01</totfact>
</mgrwt>
</event>
<event>
 6    1  0.5040916E-004  0.1313843E+04  0.7818608E-02  0.9018659E-01
          2   -1    0    0  501    0  0.00000000000E+00  0.00000000000E+00  0.12364930886E+04  0.12364930886E+04  0.00000000000E+00 0.  1.
         -2   -1    0    0    0  501 -0.00000000000E+00 -0.00000000000E+00 -0.34900776241E+03  0.34900776241E+03  0.00000000000E+00 0. -1.
         23    2    1    2    0    0  0.16759591858E+03  0.56385058036E+03  0.79015068766E+03  0.98927111278E+03  0.91122755050E+02 0.  0.
         13    1    3    3    0    0  0.15250752435E+03  0.37361790530E+03  0.51105887295E+03  0.65117590232E+03  0.00000000000E+00 0. -1.
        -13    1    3    3    0    0  0.15088394228E+02  0.19023267506E+03  0.27909181471E+03  0.33809521047E+03  0.00000000000E+00 0.  1.
         22    1    1    2    0    0 -0.16759591858E+03 -0.56385058036E+03  0.97334638546E+02  0.59622973823E+03  0.00000000000E+00 0.  1.
<mgrwt>
<rscale>  0 0.13138427E+04</rscale>
<asrwt>0</asrwt>
<pdfrwt beam="1">  1        2 0.19022970E+00 0.13138427E+04</pdfrwt>
<pdfrwt beam="2">  1       -2 0.53693502E-01 0.13138427E+04</pdfrwt>
<totfact> 0.57648147E+01</totfact>
</mgrwt>
</event>
<event>
 6    1  0.5040916E-004  0.1892724E+04  0.7818608E-02  0.8658487E-01
         -1   -1    0    0    0  501 -0.00000000000E+00  0.00000000000E+00  0.10795451137E+04  0.10795451137E+04  0.00000000000E+00 0. -1.
          1   -1    0    0  501    0  0.00000000000E+00 -0.00000000000E+00 -0.82960950359E+03  0.82960950359E+03  0.00000000000E+00 0.  1.
         23    2    1    2    0    0 -0.46511575903E+03  0.71393724155E+03  0.53543524611E+03  0.10105172620E+04  0.91734289113E+02 0.  0.
         11    1    3    3    0    0 -0.21569106842E+03  0.41449210699E+03  0.28765290516E+03  0.54869894988E+03  0.00000000000E+00 0.  1.
        -11    1    3    3    0    0 -0.24942469061E+03  0.29944513457E+03  0.24778234095E+03  0.46181831210E+03  0.00000000000E+00 0. -1.
         22    1    1    2    0    0  0.46511575903E+03 -0.71393724155E+03 -0.28549963601E+03  0.89863735530E+03  0.00000000000E+00 0.  1.
<mgrwt>
<rscale>  0 0.18927238E+04</rscale>
<asrwt>0</asrwt>
<pdfrwt beam="1">  1        1 0.12763223E+00 0.18927238E+04</pdfrwt>
<pdfrwt beam="2">  1       -1 0.16608386E+00 0.18927238E+04</pdfrwt>
<totfact> 0.51330643E+00</totfact>
</mgrwt>
</event>
<event>
 6    1  0.5040916E-004  0.5085721E+04  0.7818608E-02  0.7815418E-01
         -2   -1    0    0    0  501 -0.00000000000E+00  0.00000000000E+00  0.24025741183E+04  0.24025741183E+04  0.00000000000E+00 0. -1.
          2   -1    0    0  501    0  0.00000000000E+00 -0.00000000000E+00 -0.26913379918E+04  0.26913379918E+04  0.00000000000E+00 0.  1.
         23    2    1    2    0    0  0.67922709855E+03 -0.59020768110E+03  0.22368006336E+04  0.24128357147E+04  0.93832581936E+02 0.  0.
         13    1    3    3    0    0  0.55041629495E+03 -0.45107213029E+03  0.18474388169E+04  0.19797611842E+04  0.00000000000E+00 0.  1.
        -13    1    3    3    0    0  0.12881080361E+03 -0.13913555081E+03  0.38936181672E+03  0.43307453047E+03  0.00000000000E+00 0. -1.
         22    1    1    2    0    0 -0.67922709855E+03  0.59020768110E+03 -0.25255645071E+04  0.26810763954E+04  0.00000000000E+00 0.  1.
<mgrwt>
<rscale>  0 0.50857208E+04</rscale>
<asrwt>0</asrwt>
<pdfrwt beam="1">  1        2 0.41405200E+00 0.50857208E+04</pdfrwt>
<pdfrwt beam="2">  1       -2 0.36962679E+00 0.50857208E+04</pdfrwt>
<totfact> 0.22688221E-02</totfact>
</mgrwt>
</event>
<event>
 6    1  0.5040916E-004  0.5071189E+04  0.7818608E-02  0.7817618E-01
         -1   -1    0    0    0  501 -0.00000000000E+00  0.00000000000E+00  0.16434233184E+04  0.16434233184E+04  0.00000000000E+00 0. -1.
          1   -1    0    0  501    0  0.00000000000E+00 -0.00000000000E+00 -0.39121022003E+04  0.39121022003E+04  0.00000000000E+00 0.  1.
         23    2    1    2    0    0 -0.25035913821E+04  0.22146954267E+03 -0.14947343898E+04  0.29256949836E+04  0.91878585520E+02 0.  0.
         11    1    3    3    0    0 -0.23165893167E+04  0.22796164446E+03 -0.13749584156E+04  0.27035279208E+04  0.00000000000E+00 0. -1.
        -11    1    3    3    0    0 -0.18700206536E+03 -0.64921017842E+01 -0.11977597413E+03  0.22216706284E+03  0.00000000000E+00 0.  1.
         22    1    1    2    0    0  0.25035913821E+04 -0.22146954267E+03 -0.77394449210E+03  0.26298305351E+04  0.00000000000E+00 0. -1.
<mgrwt>
<rscale>  0 0.50711892E+04</rscale>
<asrwt>0</asrwt>
<pdfrwt beam="1">  1        1 0.60186188E+00 0.50711892E+04</pdfrwt>
<pdfrwt beam="2">  1       -1 0.25283436E+00 0.50711892E+04</pdfrwt>
<totfact> 0.54731003E-03</totfact>
</mgrwt>
</event>
<event>
 6    1  0.5040916E-004  0.8683667E+03  0.7818608E-02  0.9466012E-01
          1   -1    0    0  501    0  0.00000000000E+00  0.00000000000E+00  0.59379225500E+03  0.59379225500E+03  0.00000000000E+00 0.  1.
         -1   -1    0    0    0  501 -0.00000000000E+00 -0.00000000000E+00 -0.31747668410E+03  0.31747668410E+03  0.00000000000E+00 0. -1.
         23    2    1    2    0    0 -0.10039019532E+03 -0.41250983576E+03  0.73075885633E+02  0.44057909898E+03  0.92343388930E+02 0.  0.
         13    1    3    3    0    0 -0.11191625240E+03 -0.31199117061E+03  0.73005522563E+02  0.33940174486E+03  0.00000000000E+00 0.  1.
        -13    1    3    3    0    0  0.11526057075E+02 -0.10051866515E+03  0.70363069761E-01  0.10117735412E+03  0.00000000000E+00 0. -1.
         22    1    1    2    0    0  0.10039019532E+03  0.41250983576E+03  0.20323968527E+03  0.47068984011E+03  0.00000000000E+00 0.  1.
<mgrwt>
<rscale>  0 0.86836673E+03</rscale>
<asrwt>0</asrwt>
<pdfrwt beam="1">  1        1 0.91352655E-01 0.86836673E+03</pdfrwt>
<pdfrwt beam="2">  1       -1 0.48842567E-01 0.86836673E+03</pdfrwt>
<totfact> 0.14720654E+02</totfact>
</mgrwt>
</event>
<event>
 6    1  0.5040916E-004  0.1490584E+04  0.7818608E-02  0.8890739E-01
         -1   -1    0    0    0  501 -0.00000000000E+00  0.00000000000E+00  0.64880179633E+03  0.64880179633E+03  0.00000000000E+00 0. -1.
          1   -1    0    0  501    0  0.00000000000E+00 -0.00000000000E+00 -0.85613258652E+03  0.85613258652E+03  0.00000000000E+00 0.  1.
         23    2    1    2    0    0 -0.67661783422E+02 -0.51965793773E+03  0.42719779640E+03  0.68198297701E+03  0.89332717995E+02 0.  0.
         13    1    3    3    0    0 -0.12119881691E+02 -0.10491630564E+03  0.13597511807E+03  0.17217303928E+03  0.00000000000E+00 0.  1.
        -13    1    3    3    0    0 -0.55541901731E+02 -0.41474163209E+03  0.29122267833E+03  0.50980993773E+03  0.00000000000E+00 0. -1.
         22    1    1    2    0    0  0.67661783422E+02  0.51965793773E+03 -0.63452858658E+03  0.82295140584E+03  0.00000000000E+00 0.  1.
<mgrwt>
<rscale>  0 0.14905843E+04</rscale>
<asrwt>0</asrwt>
<pdfrwt beam="1">  1        1 0.13171271E+00 0.14905843E+04</pdfrwt>
<pdfrwt beam="2">  1       -1 0.99815661E-01 0.14905843E+04</pdfrwt>
<totfact> 0.18344650E+01</totfact>
</mgrwt>
</event>
<event>
 6    1  0.5040916E-004  0.6856862E+03  0.7818608E-02  0.9742029E-01
         -1   -1    0    0    0  501 -0.00000000000E+00  0.00000000000E+00  0.13633393341E+04  0.13633393341E+04  0.00000000000E+00 0.  1.
          1   -1    0    0  501    0  0.00000000000E+00 -0.00000000000E+00 -0.86215798295E+02  0.86215798295E+02  0.00000000000E+00 0. -1.
         23    2    1    2    0    0  0.57704136815E+02 -0.20417573271E+03  0.96220275883E+02  0.24974264433E+03  0.89975272553E+02 0.  0.
         13    1    3    3    0    0  0.71313751677E+02 -0.14089523820E+03  0.37404343700E+02  0.16228433151E+03  0.00000000000E+00 0.  1.
        -13    1    3    3    0    0 -0.13609614862E+02 -0.63280494505E+02  0.58815932184E+02  0.87458312814E+02  0.00000000000E+00 0. -1.
         22    1    1    2    0    0 -0.57704136815E+02  0.20417573271E+03  0.11809032599E+04  0.11998124881E+04  0.00000000000E+00 0.  1.
<mgrwt>
<rscale>  0 0.68568619E+03</rscale>
<asrwt>0</asrwt>
<pdfrwt beam="1">  1        1 0.13263970E-01 0.68568619E+03</pdfrwt>
<pdfrwt beam="2">  1       -1 0.20974450E+00 0.68568619E+03</pdfrwt>
<totfact> 0.60508128E+01</totfact>
</mgrwt>
</event>
<event>
 6    1  0.5040916E-004  0.2976134E+04  0.7818608E-02  0.8250579E-01
          2   -1    0    0  501    0  0.00000000000E+00  0.00000000000E+00  0.13083541426E+04  0.13083541426E+04  0.00000000000E+00 0.  1.
         -2   -1    0    0    0  501 -0.00000000000E+00 -0.00000000000E+00 -0.16924649445E+04  0.16924649445E+04  0.00000000000E+00 0. -1.
         23    2    1    2    0    0  0.19553325957E+03  0.13531475805E+04  0.39650880616E+03  0.14264593434E+04  0.91243601739E+02 0.  0.
         13    1    3    3    0    0  0.42146530900E+01  0.26967080114E+03  0.66220859672E+02  0.27771443345E+03  0.00000000000E+00 0. -1.
        -13    1    3    3    0    0  0.19131860648E+03  0.10834767793E+04  0.33028794649E+03  0.11487449099E+04  0.00000000000E+00 0.  1.
         22    1    1    2    0    0 -0.19553325957E+03 -0.13531475805E+04 -0.78061960810E+03  0.15743597437E+04  0.00000000000E+00 0. -1.
<mgrwt>
<rscale>  0 0.29761341E+04</rscale>
<asrwt>0</asrwt>
<pdfrwt beam="1">  1        2 0.20128525E+00 0.29761341E+04</pdfrwt>
<pdfrwt beam="2">  1       -2 0.26037922E+00 0.29761341E+04</pdfrwt>
<totfact> 0.77807921E-01</totfact>
</mgrwt>
</event>
<event>
 6    1  0.5040916E-004  0.1664356E+04  0.7818608E-02  0.8781958E-01
         -2   -1    0    0    0  501 -0.00000000000E+00  0.00000000000E+00  0.47125306316E+03  0.47125306316E+03  0.00000000000E+00 0. -1.
          2   -1    0    0  501    0  0.00000000000E+00 -0.00000000000E+00 -0.14695299943E+04  0.14695299943E+04  0.00000000000E+00 0.  1.
         23    2    1    2    0    0 -0.13066684672E+03  0.81287927264E+03 -0.38175257782E+03  0.91221666927E+03  0.92507752736E+02 0.  0.
         13    1    3    3    0    0 -0.95667600712E+02  0.36185690202E+03 -0.14278402727E+03  0.40059953297E+03  0.00000000000E+00 0.  1.
        -13    1    3    3    0    0 -0.34999246010E+02  0.45102237061E+03 -0.23896855054E+03  0.51161713631E+03  0.00000000000E+00 0. -1.
         22    1    1    2    0    0  0.13066684672E+03 -0.81287927264E+03 -0.61652435336E+03  0.10285663882E+04  0.00000000000E+00 0. -1.
<mgrwt>
<rscale>  0 0.16643563E+04</rscale>
<asrwt>0</asrwt>
<pdfrwt beam="1">  1        2 0.22608153E+00 0.16643563E+04</pdfrwt>
<pdfrwt beam="2">  1       -2 0.72500473E-01 0.16643563E+04</pdfrwt>
<totfact> 0.21690568E+01</totfact>
</mgrwt>
</event>
<event>
 6    1  0.5040916E-004  0.1668721E+04  0.7818608E-02  0.8779408E-01
          2   -1    0    0  501    0  0.00000000000E+00  0.00000000000E+00  0.19168570889E+04  0.19168570889E+04  0.00000000000E+00 0.  1.
         -2   -1    0    0    0  501 -0.00000000000E+00 -0.00000000000E+00 -0.36317664544E+03  0.36317664544E+03  0.00000000000E+00 0. -1.
         23    2    1    2    0    0 -0.32907282226E+03  0.22724301043E+03  0.17758550776E+04  0.18225516295E+04  0.90027093816E+02 0.  0.
         11    1    3    3    0    0 -0.97574589999E+02  0.11111984364E+03  0.75581504361E+03  0.77014596046E+03  0.00000000000E+00 0.  1.
        -11    1    3    3    0    0 -0.23149823226E+03  0.11612316679E+03  0.10200400340E+04  0.10524056691E+04  0.00000000000E+00 0. -1.
         22    1    1    2    0    0  0.32907282226E+03 -0.22724301043E+03 -0.22217463414E+03  0.45748210478E+03  0.00000000000E+00 0. -1.
<mgrwt>
<rscale>  0 0.16687213E+04</rscale>
<asrwt>0</asrwt>
<pdfrwt beam="1">  1        2 0.29490109E+00 0.16687213E+04</pdfrwt>
<pdfrwt beam="2">  1       -2 0.55873331E-01 0.16687213E+04</pdfrwt>
<totfact> 0.21327053E+01</totfact>
</mgrwt>
</event>
<event>
 6    1  0.5040916E-004  0.3537311E+04  0.7818608E-02  0.8105004E-01
         -2   -1    0    0    0  501 -0.00000000000E+00  0.00000000000E+00  0.16856547019E+04  0.16856547019E+04  0.00000000000E+00 0. -1.
          2   -1    0    0  501    0  0.00000000000E+00 -0.00000000000E+00 -0.18557437011E+04  0.18557437011E+04  0.00000000000E+00 0.  1.
         23    2    1    2    0    0  0.43853760063E+03 -0.66720371166E+03  0.14936359228E+04  0.16960104664E+04  0.89594711473E+02 0.  0.
         13    1    3    3    0    0  0.12236844987E+03 -0.23942015295E+03  0.43853625534E+03  0.51440265785E+03  0.00000000000E+00 0. -1.
        -13    1    3    3    0    0  0.31616915076E+03 -0.42778355871E+03  0.10550996675E+04  0.11816078086E+04  0.00000000000E+00 0.  1.
         22    1    1    2    0    0 -0.43853760063E+03  0.66720371166E+03 -0.16637249221E+04  0.18453879365E+04  0.00000000000E+00 0.  1.
<mgrwt>
<rscale>  0 0.35373115E+04</rscale>
<asrwt>0</asrwt>
<pdfrwt beam="1">  1        2 0.28549903E+00 0.35373115E+04</pdfrwt>
<pdfrwt beam="2">  1       -2 0.25933149E+00 0.35373115E+04</pdfrwt>
<totfact> 0.37076261E-01</totfact>
</mgrwt>
</event>
<event>
 6    1  0.5040916E-004  0.2676858E+04  0.7818608E-02  0.8342553E-01
         -2   -1    0    0    0  501 -0.00000000000E+00  0.00000000000E+00  0.10850559064E+04  0.10850559064E+04  0.00000000000E+00 0. -1.
          2   -1    0    0  501    0  0.00000000000E+00 -0.00000000000E+00 -0.16509676722E+04  0.16509676722E+04  0.00000000000E+00 0.  1.
         23    2    1    2    0    0 -0.39606484525E+03 -0.64597897845E+03 -0.14090389994E+04  0.16024364693E+04  0.90859968394E+02 0.  0.
         13    1    3    3    0    0 -0.15848288793E+03 -0.32882730471E+03 -0.61985621592E+03  0.71935106207E+03  0.00000000000E+00 0.  1.
        -13    1    3    3    0    0 -0.23758195732E+03 -0.31715167375E+03 -0.78918278350E+03  0.88308540719E+03  0.00000000000E+00 0. -1.
         22    1    1    2    0    0  0.39606484525E+03  0.64597897845E+03  0.84312723364E+03  0.11335871093E+04  0.00000000000E+00 0. -1.
<mgrwt>
<rscale>  0 0.26768580E+04</rscale>
<asrwt>0</asrwt>
<pdfrwt beam="1">  1        2 0.25399503E+00 0.26768580E+04</pdfrwt>
<pdfrwt beam="2">  1       -2 0.16693168E+00 0.26768580E+04</pdfrwt>
<totfact> 0.20583805E+00</totfact>
</mgrwt>
</event>
<event>
 6    1  0.5040916E-004  0.2896752E+04  0.7818608E-02  0.8273844E-01
          2   -1    0    0  501    0  0.00000000000E+00  0.00000000000E+00  0.25063733423E+04  0.25063733423E+04  0.00000000000E+00 0.  1.
         -2   -1    0    0    0  501 -0.00000000000E+00 -0.00000000000E+00 -0.83698348324E+03  0.83698348324E+03  0.00000000000E+00 0. -1.
         23    2    1    2    0    0  0.28783677224E+03 -0.54800783669E+03 -0.67364262381E+03  0.91993696668E+03  0.96576609651E+02 0.  0.
         13    1    3    3    0    0  0.16741399769E+03 -0.33805484514E+03 -0.34070665846E+03  0.50832032426E+03  0.00000000000E+00 0. -1.
        -13    1    3    3    0    0  0.12042277455E+03 -0.20995299156E+03 -0.33293596535E+03  0.41161664242E+03  0.00000000000E+00 0.  1.
         22    1    1    2    0    0 -0.28783677224E+03  0.54800783669E+03  0.23430324828E+04  0.24234198588E+04  0.00000000000E+00 0.  1.
<mgrwt>
<rscale>  0 0.28967520E+04</rscale>
<asrwt>0</asrwt>
<pdfrwt beam="1">  1        2 0.38559589E+00 0.28967520E+04</pdfrwt>
<pdfrwt beam="2">  1       -2 0.12876669E+00 0.28967520E+04</pdfrwt>
<totfact> 0.13254145E+00</totfact>
</mgrwt>
</event>
<event>
 6    1  0.5040916E-004  0.4438151E+04  0.7818608E-02  0.7921555E-01
          2   -1    0    0  501    0  0.00000000000E+00  0.00000000000E+00  0.37219426464E+04  0.37219426464E+04  0.00000000000E+00 0.  1.
         -2   -1    0    0    0  501 -0.00000000000E+00 -0.00000000000E+00 -0.13230448821E+04  0.13230448821E+04  0.00000000000E+00 0. -1.
         23    2    1    2    0    0  0.10315640300E+04 -0.15939747994E+04 -0.10360800130E+03  0.19037433297E+04  0.92865700742E+02 0.  0.
         11    1    3    3    0    0  0.57746474357E+03 -0.89241659895E+03 -0.10415805051E+03  0.10680457929E+04  0.00000000000E+00 0. -1.
        -11    1    3    3    0    0  0.45409928641E+03 -0.70155820050E+03  0.55004920440E+00  0.83569753689E+03  0.00000000000E+00 0.  1.
         22    1    1    2    0    0 -0.10315640300E+04  0.15939747994E+04  0.25025057656E+04  0.31412441988E+04  0.00000000000E+00 0.  1.
<mgrwt>
<rscale>  0 0.44381515E+04</rscale>
<asrwt>0</asrwt>
<pdfrwt beam="1">  1        2 0.57260656E+00 0.44381515E+04</pdfrwt>
<pdfrwt beam="2">  1       -2 0.20354537E+00 0.44381515E+04</pdfrwt>
<totfact> 0.53830447E-02</totfact>
</mgrwt>
</event>
<event>
 6    1  0.5040916E-004  0.2147370E+04  0.7818608E-02  0.8540659E-01
          2   -1    0    0  501    0  0.00000000000E+00  0.00000000000E+00  0.95272353734E+03  0.95272353734E+03  0.00000000000E+00 0. -1.
         -2   -1    0    0    0  501 -0.00000000000E+00 -0.00000000000E+00 -0.12100036537E+04  0.12100036537E+04  0.00000000000E+00 0.  1.
         23    2    1    2    0    0 -0.86478733380E+03 -0.29261702913E+03  0.43667826285E+03  0.10159664965E+04  0.89544169907E+02 0.  0.
         11    1    3    3    0    0 -0.32059451949E+03 -0.67142559513E+02  0.17555706085E+03  0.37163053001E+03  0.00000000000E+00 0.  1.
        -11    1    3    3    0    0 -0.54419281431E+03 -0.22547446962E+03  0.26112120200E+03  0.64433596651E+03  0.00000000000E+00 0. -1.
         22    1    1    2    0    0  0.86478733380E+03  0.29261702913E+03 -0.69395837922E+03  0.11467606945E+04  0.00000000000E+00 0. -1.
<mgrwt>
<rscale>  0 0.21473695E+04</rscale>
<asrwt>0</asrwt>
<pdfrwt beam="1">  1        2 0.14657285E+00 0.21473695E+04</pdfrwt>
<pdfrwt beam="2">  1       -2 0.18615441E+00 0.21473695E+04</pdfrwt>
<totfact> 0.40830937E+00</totfact>
</mgrwt>
</event>
<event>
 6    1  0.5040916E-004  0.3070759E+04  0.7818608E-02  0.8223809E-01
         -2   -1    0    0    0  501 -0.00000000000E+00  0.00000000000E+00  0.88388055605E+03  0.88388055605E+03  0.00000000000E+00 0. -1.
          2   -1    0    0  501    0  0.00000000000E+00 -0.00000000000E+00 -0.26670910687E+04  0.26670910687E+04  0.00000000000E+00 0.  1.
         23    2    1    2    0    0 -0.18811956483E+03 -0.98375449909E+03 -0.22360301698E+04  0.24517866871E+04  0.90912888182E+02 0.  0.
         11    1    3    3    0    0  0.43824153195E+01 -0.14751282026E+03 -0.32493474115E+03  0.35687788348E+03  0.00000000000E+00 0. -1.
        -11    1    3    3    0    0 -0.19250198015E+03 -0.83624167883E+03 -0.19110954287E+04  0.20949088036E+04  0.00000000000E+00 0.  1.
         22    1    1    2    0    0  0.18811956483E+03  0.98375449909E+03  0.45281965724E+03  0.10991849376E+04  0.00000000000E+00 0. -1.
<mgrwt>
<rscale>  0 0.30707588E+04</rscale>
<asrwt>0</asrwt>
<pdfrwt beam="1">  1        2 0.41032170E+00 0.30707588E+04</pdfrwt>
<pdfrwt beam="2">  1       -2 0.13598163E+00 0.30707588E+04</pdfrwt>
<totfact> 0.91524596E-01</totfact>
</mgrwt>
</event>
<event>
 6    1  0.5040916E-004  0.2902866E+04  0.7818608E-02  0.8272025E-01
          2   -1    0    0  501    0  0.00000000000E+00  0.00000000000E+00  0.28194639829E+04  0.28194639829E+04  0.00000000000E+00 0.  1.
         -2   -1    0    0    0  501 -0.00000000000E+00 -0.00000000000E+00 -0.74718381317E+03  0.74718381317E+03  0.00000000000E+00 0. -1.
         23    2    1    2    0    0  0.87734377081E+03 -0.34890271121E+03  0.23891290103E+04  0.25707269247E+04  0.96095263317E+02 0.  0.
         13    1    3    3    0    0  0.66518442895E+03 -0.22322621338E+03  0.18137671666E+04  0.19447497529E+04  0.00000000000E+00 0. -1.
        -13    1    3    3    0    0  0.21215934186E+03 -0.12567649782E+03  0.57536184374E+03  0.62597717185E+03  0.00000000000E+00 0.  1.
         22    1    1    2    0    0 -0.87734377081E+03  0.34890271121E+03 -0.31684884061E+03  0.99592087129E+03  0.00000000000E+00 0. -1.
<mgrwt>
<rscale>  0 0.29028661E+04</rscale>
<asrwt>0</asrwt>
<pdfrwt beam="1">  1        2 0.43376368E+00 0.29028661E+04</pdfrwt>
<pdfrwt beam="2">  1       -2 0.11495136E+00 0.29028661E+04</pdfrwt>
<totfact> 0.11456576E+00</totfact>
</mgrwt>
</event>
<event>
 6    1  0.5040916E-004  0.9139413E+03  0.7818608E-02  0.9408320E-01
          2   -1    0    0  501    0  0.00000000000E+00  0.00000000000E+00  0.23230494196E+04  0.23230494196E+04  0.00000000000E+00 0.  1.
         -2   -1    0    0    0  501 -0.00000000000E+00 -0.00000000000E+00 -0.89891411270E+02  0.89891411270E+02  0.00000000000E+00 0. -1.
         23    2    1    2    0    0  0.43077733619E+03  0.83530627907E+02  0.83535656460E+03  0.94788269029E+03  0.90080660304E+02 0.  0.
         11    1    3    3    0    0  0.67820659651E+01 -0.54164962598E+01  0.24080746156E+01  0.90074232632E+01  0.00000000000E+00 0. -1.
        -11    1    3    3    0    0  0.42399527023E+03  0.88947124167E+02  0.83294848999E+03  0.93887526703E+03  0.00000000000E+00 0.  1.
         22    1    1    2    0    0 -0.43077733619E+03 -0.83530627907E+02  0.13978014437E+04  0.14650581405E+04  0.00000000000E+00 0.  1.
<mgrwt>
<rscale>  0 0.91394133E+03</rscale>
<asrwt>0</asrwt>
<pdfrwt beam="1">  1        2 0.35739217E+00 0.91394133E+03</pdfrwt>
<pdfrwt beam="2">  1       -2 0.13829450E-01 0.91394133E+03</pdfrwt>
<totfact> 0.17981245E+02</totfact>
</mgrwt>
</event>
<event>
 6    1  0.5040916E-004  0.1203424E+04  0.7818608E-02  0.9109865E-01
          2   -1    0    0  501    0  0.00000000000E+00  0.00000000000E+00  0.95213269173E+03  0.95213269173E+03  0.00000000000E+00 0.  1.
         -2   -1    0    0    0  501 -0.00000000000E+00 -0.00000000000E+00 -0.38025933106E+03  0.38025933106E+03  0.00000000000E+00 0. -1.
         23    2    1    2    0    0 -0.26504679652E+03  0.12894727057E+03 -0.28880342942E+03  0.42264384887E+03  0.91341114582E+02 0.  0.
         11    1    3    3    0    0 -0.24696309650E+03  0.93836783303E+02 -0.22218687931E+03  0.34520011917E+03  0.00000000000E+00 0. -1.
        -11    1    3    3    0    0 -0.18083700018E+02  0.35110487271E+02 -0.66616550110E+02  0.77443729710E+02  0.00000000000E+00 0.  1.
         22    1    1    2    0    0  0.26504679652E+03 -0.12894727057E+03  0.86067679010E+03  0.90974817392E+03  0.00000000000E+00 0.  1.
<mgrwt>
<rscale>  0 0.12034240E+04</rscale>
<asrwt>0</asrwt>
<pdfrwt beam="1">  1        2 0.14648195E+00 0.12034240E+04</pdfrwt>
<pdfrwt beam="2">  1       -2 0.58501436E-01 0.12034240E+04</pdfrwt>
<totfact> 0.72948171E+01</totfact>
</mgrwt>
</event>
<event>
 6    1  0.5040916E-004  0.3877742E+04  0.7818608E-02  0.8029674E-01
         -2   -1    0    0    0  501 -0.00000000000E+00  0.00000000000E+00  0.15965587298E+04  0.15965587298E+04  0.00000000000E+00 0. -1.
          2   -1    0    0  501    0  0.00000000000E+00 -0.00000000000E+00 -0.23545769089E+04  0.23545769089E+04  0.00000000000E+00 0.  1.
         23    2    1    2    0    0 -0.65501320653E+03 -0.16726996316E+04 -0.11197242046E+04  0.21187062110E+04  0.90373423686E+02 0.  0.
         13    1    3    3    0    0 -0.51472322360E+03 -0.13190157939E+04 -0.92522184676E+03  0.16913834950E+04  0.00000000000E+00 0.  1.
        -13    1    3    3    0    0 -0.14028998293E+03 -0.35368383778E+03 -0.19450235788E+03  0.42732271603E+03  0.00000000000E+00 0. -1.
         22    1    1    2    0    0  0.65501320653E+03  0.16726996316E+04  0.36170602550E+03  0.18324294276E+04  0.00000000000E+00 0. -1.
<mgrwt>
<rscale>  0 0.38777418E+04</rscale>
<asrwt>0</asrwt>
<pdfrwt beam="1">  1        2 0.36224260E+00 0.38777418E+04</pdfrwt>
<pdfrwt beam="2">  1       -2 0.24562442E+00 0.38777418E+04</pdfrwt>
<totfact> 0.22994461E-01</totfact>
</mgrwt>
</event>
<event>
 6    1  0.5040916E-004  0.8526764E+03  0.7818608E-02  0.9486752E-01
         -2   -1    0    0    0  501 -0.00000000000E+00  0.00000000000E+00  0.63372159688E+03  0.63372159688E+03  0.00000000000E+00 0. -1.
          2   -1    0    0  501    0  0.00000000000E+00 -0.00000000000E+00 -0.28682039927E+03  0.28682039927E+03  0.00000000000E+00 0.  1.
         23    2    1    2    0    0 -0.65325603729E+02 -0.18476192194E+03  0.57849736897E+03  0.61715908811E+03  0.88440555341E+02 0.  0.
         13    1    3    3    0    0 -0.64640210447E+02 -0.57929880545E+02  0.20157599058E+03  0.21947006139E+03  0.00000000000E+00 0. -1.
        -13    1    3    3    0    0 -0.68539328136E+00 -0.12683204140E+03  0.37692137838E+03  0.39768902672E+03  0.00000000000E+00 0.  1.
         22    1    1    2    0    0  0.65325603729E+02  0.18476192194E+03 -0.23159617136E+03  0.30338290804E+03  0.00000000000E+00 0.  1.
<mgrwt>
<rscale>  0 0.85267645E+03</rscale>
<asrwt>0</asrwt>
<pdfrwt beam="1">  1        2 0.44126215E-01 0.85267645E+03</pdfrwt>
<pdfrwt beam="2">  1       -2 0.97495630E-01 0.85267645E+03</pdfrwt>
<totfact> 0.10177899E+02</totfact>
</mgrwt>
</event>
<event>
 6    1  0.5040916E-004  0.2433378E+04  0.7818608E-02  0.8427112E-01
         -2   -1    0    0    0  501 -0.00000000000E+00  0.00000000000E+00  0.49997744257E+03  0.49997744257E+03  0.00000000000E+00 0. -1.
          2   -1    0    0  501    0  0.00000000000E+00 -0.00000000000E+00 -0.29607971999E+04  0.29607971999E+04  0.00000000000E+00 0.  1.
         23    2    1    2    0    0 -0.11877389823E+04  0.16556954218E+03 -0.95588353221E+03  0.15364643231E+04  0.94191961863E+02 0.  0.
         13    1    3    3    0    0 -0.46075484668E+03  0.10648897269E+03 -0.35169542338E+03  0.58934251575E+03  0.00000000000E+00 0.  1.
        -13    1    3    3    0    0 -0.72698413564E+03  0.59080569491E+02 -0.60418810883E+03  0.94712180738E+03  0.00000000000E+00 0. -1.
         22    1    1    2    0    0  0.11877389823E+04 -0.16556954218E+03 -0.15049362251E+04  0.19243103193E+04  0.00000000000E+00 0. -1.
<mgrwt>
<rscale>  0 0.24333777E+04</rscale>
<asrwt>0</asrwt>
<pdfrwt beam="1">  1        2 0.45550726E+00 0.24333777E+04</pdfrwt>
<pdfrwt beam="2">  1       -2 0.76919608E-01 0.24333777E+04</pdfrwt>
<totfact> 0.24944467E+00</totfact>
</mgrwt>
</event>
<event>
 6    1  0.5040916E-004  0.2200325E+04  0.7818608E-02  0.8518293E-01
          2   -1    0    0  501    0  0.00000000000E+00  0.00000000000E+00  0.11762740011E+04  0.11762740011E+04  0.00000000000E+00 0.  1.
         -2   -1    0    0    0  501 -0.00000000000E+00 -0.00000000000E+00 -0.10289758774E+04  0.10289758774E+04  0.00000000000E+00 0. -1.
         23    2    1    2    0    0  0.22616554047E+03  0.19370334485E+03 -0.98563729095E+03  0.10338342857E+04  0.93062470441E+02 0.  0.
         11    1    3    3    0    0  0.90217922399E+02  0.12013500242E+03 -0.59626460319E+03  0.61490094271E+03  0.00000000000E+00 0. -1.
        -11    1    3    3    0    0  0.13594761807E+03  0.73568342432E+02 -0.38937268777E+03  0.41893334296E+03  0.00000000000E+00 0.  1.
         22    1    1    2    0    0 -0.22616554047E+03 -0.19370334485E+03  0.11329354146E+04  0.11714155929E+04  0.00000000000E+00 0.  1.
<mgrwt>
<rscale>  0 0.22003250E+04</rscale>
<asrwt>0</asrwt>
<pdfrwt beam="1">  1        2 0.18096523E+00 0.22003250E+04</pdfrwt>
<pdfrwt beam="2">  1       -2 0.15830398E+00 0.22003250E+04</pdfrwt>
<totfact> 0.46390255E+00</totfact>
</mgrwt>
</event>
<event>
 6    1  0.5040916E-004  0.1896770E+04  0.7818608E-02  0.8656466E-01
         -2   -1    0    0    0  501 -0.00000000000E+00  0.00000000000E+00  0.24243487113E+03  0.24243487113E+03  0.00000000000E+00 0. -1.
          2   -1    0    0  501    0  0.00000000000E+00 -0.00000000000E+00 -0.37100036164E+04  0.37100036164E+04  0.00000000000E+00 0.  1.
         23    2    1    2    0    0  0.35173139886E+03 -0.86249847351E+03 -0.20799231726E+04  0.22811578920E+04  0.99911612742E+02 0.  0.
         13    1    3    3    0    0  0.17444324538E+03 -0.55498558093E+03 -0.13070454022E+04  0.14306666713E+04  0.00000000000E+00 0. -1.
        -13    1    3    3    0    0  0.17728815348E+03 -0.30751289258E+03 -0.77287777037E+03  0.85049122065E+03  0.00000000000E+00 0.  1.
         22    1    1    2    0    0 -0.35173139886E+03  0.86249847351E+03 -0.13876455727E+04  0.16712805956E+04  0.00000000000E+00 0. -1.
<mgrwt>
<rscale>  0 0.18967701E+04</rscale>
<asrwt>0</asrwt>
<pdfrwt beam="1">  1        2 0.57076979E+00 0.18967701E+04</pdfrwt>
<pdfrwt beam="2">  1       -2 0.37297673E-01 0.18967701E+04</pdfrwt>
<totfact> 0.36765263E+00</totfact>
</mgrwt>
</event>
<event>
 6    1  0.5040916E-004  0.7540106E+03  0.7818608E-02  0.9629079E-01
         -2   -1    0    0    0  501 -0.00000000000E+00  0.00000000000E+00  0.53932290378E+02  0.53932290378E+02  0.00000000000E+00 0. -1.
          2   -1    0    0  501    0  0.00000000000E+00 -0.00000000000E+00 -0.26353970818E+04  0.26353970818E+04  0.00000000000E+00 0.  1.
         23    2    1    2    0    0  0.37456556471E+02 -0.81822445399E+01 -0.26276621027E+04  0.26292949294E+04  0.84343088732E+02 0.  0.
         11    1    3    3    0    0  0.59921612522E+02  0.42485016271E+01 -0.22275761053E+04  0.22283859528E+04  0.00000000000E+00 0. -1.
        -11    1    3    3    0    0 -0.22465056052E+02 -0.12430746167E+02 -0.40008599741E+03  0.40090897660E+03  0.00000000000E+00 0.  1.
         22    1    1    2    0    0 -0.37456556471E+02  0.81822445399E+01  0.46197311335E+02  0.60034442805E+02  0.00000000000E+00 0. -1.
<mgrwt>
<rscale>  0 0.75401061E+03</rscale>
<asrwt>0</asrwt>
<pdfrwt beam="1">  1        2 0.40544580E+00 0.75401061E+03</pdfrwt>
<pdfrwt beam="2">  1       -2 0.82972736E-02 0.75401061E+03</pdfrwt>
<totfact> 0.28047996E+02</totfact>
</mgrwt>
</event>
<event>
 6    1  0.5040916E-004  0.1755180E+04  0.7818608E-02  0.8730504E-01
         -2   -1    0    0    0  501 -0.00000000000E+00  0.00000000000E+00  0.44225648490E+03  0.44225648490E+03  0.00000000000E+00 0. -1.
          2   -1    0    0  501    0  0.00000000000E+00 -0.00000000000E+00 -0.17414433645E+04  0.17414433645E+04  0.00000000000E+00 0.  1.
         23    2    1    2    0    0 -0.19354243024E+03  0.84754155321E+03 -0.52485319768E+03  0.10194928198E+04  0.90052062053E+02 0.  0.
         11    1    3    3    0    0 -0.12493359258E+03  0.47892172707E+03 -0.34720505074E+03  0.60458727284E+03  0.00000000000E+00 0. -1.
        -11    1    3    3    0    0 -0.68608837661E+02  0.36861982613E+03 -0.17764814694E+03  0.41490554700E+03  0.00000000000E+00 0.  1.
         22    1    1    2    0    0  0.19354243024E+03 -0.84754155321E+03 -0.77433368193E+03  0.11642070296E+04  0.00000000000E+00 0.  1.
<mgrwt>
<rscale>  0 0.17551805E+04</rscale>
<asrwt>0</asrwt>
<pdfrwt beam="1">  1        2 0.26791436E+00 0.17551805E+04</pdfrwt>
<pdfrwt beam="2">  1       -2 0.68039460E-01 0.17551805E+04</pdfrwt>
<totfact> 0.17423496E+01</totfact>
</mgrwt>
</event>
<event>
 6    1  0.5040916E-004  0.1293483E+04  0.7818608E-02  0.9034750E-01
         -2   -1    0    0    0  501 -0.00000000000E+00  0.00000000000E+00  0.27680894568E+03  0.27680894568E+03  0.00000000000E+00 0. -1.
          2   -1    0    0  501    0  0.00000000000E+00 -0.00000000000E+00 -0.15110576480E+04  0.15110576480E+04  0.00000000000E+00 0.  1.
         23    2    1    2    0    0 -0.34766665481E+03 -0.15532736204E+03 -0.13374423805E+04  0.13933445696E+04  0.87511578457E+02 0.  0.
         13    1    3    3    0    0 -0.19456099435E+03 -0.46869594066E+02 -0.60442833882E+03  0.63669801016E+03  0.00000000000E+00 0. -1.
        -13    1    3    3    0    0 -0.15310566046E+03 -0.10845776797E+03 -0.73301404164E+03  0.75664655946E+03  0.00000000000E+00 0.  1.
         22    1    1    2    0    0  0.34766665481E+03  0.15532736204E+03  0.10319367813E+03  0.39452202406E+03  0.00000000000E+00 0. -1.
<mgrwt>
<rscale>  0 0.12934825E+04</rscale>
<asrwt>0</asrwt>
<pdfrwt beam="1">  1        2 0.23247041E+00 0.12934825E+04</pdfrwt>
<pdfrwt beam="2">  1       -2 0.42585992E-01 0.12934825E+04</pdfrwt>
<totfact> 0.64111552E+01</totfact>
</mgrwt>
</event>
<event>
 6    1  0.5040916E-004  0.1875840E+04  0.7818608E-02  0.8666977E-01
         -2   -1    0    0    0  501 -0.00000000000E+00  0.00000000000E+00  0.77397956518E+03  0.77397956518E+03  0.00000000000E+00 0. -1.
          2   -1    0    0  501    0  0.00000000000E+00 -0.00000000000E+00 -0.11365857930E+04  0.11365857930E+04  0.00000000000E+00 0.  1.
         23    2    1    2    0    0 -0.14106386450E+03  0.16324813330E+03  0.74559586339E+03  0.78155657085E+03  0.91479588136E+02 0.  0.
         11    1    3    3    0    0 -0.30422162313E+02  0.65471562044E+02  0.13208111762E+03  0.15052393506E+03  0.00000000000E+00 0. -1.
        -11    1    3    3    0    0 -0.11064170219E+03  0.97776571256E+02  0.61351474577E+03  0.63103263579E+03  0.00000000000E+00 0.  1.
         22    1    1    2    0    0  0.14106386450E+03 -0.16324813330E+03 -0.11082020912E+04  0.11290087873E+04  0.00000000000E+00 0.  1.
<mgrwt>
<rscale>  0 0.18758403E+04</rscale>
<asrwt>0</asrwt>
<pdfrwt beam="1">  1        2 0.17485935E+00 0.18758403E+04</pdfrwt>
<pdfrwt beam="2">  1       -2 0.11907378E+00 0.18758403E+04</pdfrwt>
<totfact> 0.10510231E+01</totfact>
</mgrwt>
</event>
<event>
 6    1  0.5040916E-004  0.1800512E+04  0.7818608E-02  0.8706027E-01
          2   -1    0    0  501    0  0.00000000000E+00  0.00000000000E+00  0.10151310049E+04  0.10151310049E+04  0.00000000000E+00 0.  1.
         -2   -1    0    0    0  501 -0.00000000000E+00 -0.00000000000E+00 -0.79838072885E+03  0.79838072885E+03  0.00000000000E+00 0. -1.
         23    2    1    2    0    0  0.75593777827E+02  0.62884189283E+03 -0.53255913312E+03  0.83237915552E+03  0.89884831014E+02 0.  0.
         13    1    3    3    0    0  0.49513243698E+02  0.23375423968E+03 -0.25089038892E+03  0.34646586140E+03  0.00000000000E+00 0.  1.
        -13    1    3    3    0    0  0.26080534129E+02  0.39508765315E+03 -0.28166874421E+03  0.48591329411E+03  0.00000000000E+00 0. -1.
         22    1    1    2    0    0 -0.75593777827E+02 -0.62884189283E+03  0.74930940921E+03  0.98113257827E+03  0.00000000000E+00 0.  1.
<mgrwt>
<rscale>  0 0.18005122E+04</rscale>
<asrwt>0</asrwt>
<pdfrwt beam="1">  1        2 0.15617400E+00 0.18005122E+04</pdfrwt>
<pdfrwt beam="2">  1       -2 0.12282780E+00 0.18005122E+04</pdfrwt>
<totfact> 0.11651074E+01</totfact>
</mgrwt>
</event>
<event>
 6    1  0.6146728E-004  0.4960214E+04  0.7818608E-02  0.7834674E-01
          2   -1    0    0  501    0  0.00000000000E+00  0.00000000000E+00  0.30187267430E+04  0.30187267430E+04  0.00000000000E+00 0.  1.
         -2   -1    0    0    0  501 -0.00000000000E+00 -0.00000000000E+00 -0.20375908525E+04  0.20375908525E+04  0.00000000000E+00 0. -1.
         23    2    1    2    0    0  0.60544711326E+03 -0.11181809188E+04  0.26603514117E+04  0.29499796499E+04  0.89529475264E+02 0.  0.
         11    1    3    3    0    0  0.16029927566E+03 -0.38198092860E+03  0.84363098949E+03  0.93985027213E+03  0.00000000000E+00 0.  1.
        -11    1    3    3    0    0  0.44514783760E+03 -0.73619999023E+03  0.18167204222E+04  0.20101293778E+04  0.00000000000E+00 0. -1.
         22    1    1    2    0    0 -0.60544711326E+03  0.11181809188E+04 -0.16792155213E+04  0.21063379456E+04  0.00000000000E+00 0. -1.
<mgrwt>
<rscale>  0 0.49602137E+04</rscale>
<asrwt>0</asrwt>
<pdfrwt beam="1">  1        2 0.46441950E+00 0.49602137E+04</pdfrwt>
<pdfrwt beam="2">  1       -2 0.31347552E+00 0.49602137E+04</pdfrwt>
<totfact> 0.32493617E-02</totfact>
</mgrwt>
</event>
<event>
 6    1  0.5040916E-004  0.2508171E+04  0.7818608E-02  0.8400081E-01
          1   -1    0    0  501    0  0.00000000000E+00  0.00000000000E+00  0.76231186864E+03  0.76231186864E+03  0.00000000000E+00 0.  1.
         -1   -1    0    0    0  501 -0.00000000000E+00 -0.00000000000E+00 -0.20631055091E+04  0.20631055091E+04  0.00000000000E+00 0. -1.
         23    2    1    2    0    0  0.74319008405E+03 -0.15708297848E+03  0.46742510247E+03  0.90094236206E+03  0.12729630858E+03 0.  0.
         13    1    3    3    0    0  0.28688321436E+03 -0.10921799332E+03  0.23515531378E+03  0.38668924260E+03  0.00000000000E+00 0. -1.
        -13    1    3    3    0    0  0.45630686969E+03 -0.47864985155E+02  0.23226978868E+03  0.51425311945E+03  0.00000000000E+00 0.  1.
         22    1    1    2    0    0 -0.74319008405E+03  0.15708297848E+03 -0.17682187429E+04  0.19244750157E+04  0.00000000000E+00 0. -1.
<mgrwt>
<rscale>  0 0.25081705E+04</rscale>
<asrwt>0</asrwt>
<pdfrwt beam="1">  1        1 0.11727875E+00 0.25081705E+04</pdfrwt>
<pdfrwt beam="2">  1       -1 0.31740085E+00 0.25081705E+04</pdfrwt>
<totfact> 0.53950933E-01</totfact>
</mgrwt>
</event>
<event>
 6    1  0.5040916E-004  0.2903170E+04  0.7818608E-02  0.8271935E-01
          1   -1    0    0  501    0  0.00000000000E+00  0.00000000000E+00  0.16961741013E+04  0.16961741013E+04  0.00000000000E+00 0.  1.
         -1   -1    0    0    0  501 -0.00000000000E+00 -0.00000000000E+00 -0.12422653640E+04  0.12422653640E+04  0.00000000000E+00 0. -1.
         23    2    1    2    0    0  0.19255330766E+02  0.10194249008E+04 -0.81648378895E+03  0.13094842583E+04  0.92224448945E+02 0.  0.
         13    1    3    3    0    0 -0.16794548837E+02  0.49700671731E+03 -0.34922341157E+03  0.60766333204E+03  0.00000000000E+00 0. -1.
        -13    1    3    3    0    0  0.36049879603E+02  0.52241818345E+03 -0.46726037738E+03  0.70182092622E+03  0.00000000000E+00 0.  1.
         22    1    1    2    0    0 -0.19255330766E+02 -0.10194249008E+04  0.12703925262E+04  0.16289552071E+04  0.00000000000E+00 0.  1.
<mgrwt>
<rscale>  0 0.29031695E+04</rscale>
<asrwt>0</asrwt>
<pdfrwt beam="1">  1        1 0.26094986E+00 0.29031695E+04</pdfrwt>
<pdfrwt beam="2">  1       -1 0.19111775E+00 0.29031695E+04</pdfrwt>
<totfact> 0.71405284E-01</totfact>
</mgrwt>
</event>
<event>
 6    1  0.5040916E-004  0.1534769E+04  0.7818608E-02  0.8861656E-01
          2   -1    0    0  501    0  0.00000000000E+00  0.00000000000E+00  0.27769341522E+04  0.27769341522E+04  0.00000000000E+00 0. -1.
         -2   -1    0    0    0  501 -0.00000000000E+00 -0.00000000000E+00 -0.21206072114E+03  0.21206072114E+03  0.00000000000E+00 0.  1.
         23    2    1    2    0    0 -0.20339701607E+03  0.70311147767E+03  0.85607209253E+03  0.11300333055E+04  0.91540962030E+02 0.  0.
         13    1    3    3    0    0 -0.21108555108E+03  0.63807786051E+03  0.77560451922E+03  0.10262859427E+04  0.00000000000E+00 0. -1.
        -13    1    3    3    0    0  0.76885350105E+01  0.65033617155E+02  0.80467573309E+02  0.10374736279E+03  0.00000000000E+00 0.  1.
         22    1    1    2    0    0  0.20339701607E+03 -0.70311147767E+03  0.17088013385E+04  0.18589615679E+04  0.00000000000E+00 0.  1.
<mgrwt>
<rscale>  0 0.15347686E+04</rscale>
<asrwt>0</asrwt>
<pdfrwt beam="1">  1        2 0.42722061E+00 0.15347686E+04</pdfrwt>
<pdfrwt beam="2">  1       -2 0.32624728E-01 0.15347686E+04</pdfrwt>
<totfact> 0.20246981E+01</totfact>
</mgrwt>
</event>
<event>
 6    1  0.5040916E-004  0.6540709E+04  0.7818608E-02  0.7626751E-01
         -2   -1    0    0    0  501 -0.00000000000E+00  0.00000000000E+00  0.45783850927E+04  0.45783850927E+04  0.00000000000E+00 0. -1.
          2   -1    0    0  501    0  0.00000000000E+00 -0.00000000000E+00 -0.23360240962E+04  0.23360240962E+04  0.00000000000E+00 0.  1.
         23    2    1    2    0    0  0.11387870467E+04  0.28161697686E+04  0.24002462021E+04  0.38726044875E+04  0.90750112326E+02 0.  0.
         11    1    3    3    0    0  0.81221113191E+03  0.19051159119E+04  0.16572034803E+04  0.26524473484E+04  0.00000000000E+00 0. -1.
        -11    1    3    3    0    0  0.32657591480E+03  0.91105385663E+03  0.74304272179E+03  0.12201571392E+04  0.00000000000E+00 0.  1.
         22    1    1    2    0    0 -0.11387870467E+04 -0.28161697686E+04 -0.15788520560E+03  0.30418047014E+04  0.00000000000E+00 0.  1.
<mgrwt>
<rscale>  0 0.65407088E+04</rscale>
<asrwt>0</asrwt>
<pdfrwt beam="1">  1        2 0.35938832E+00 0.65407088E+04</pdfrwt>
<pdfrwt beam="2">  1       -2 0.70436693E+00 0.65407088E+04</pdfrwt>
<totfact> 0.62639589E-04</totfact>
</mgrwt>
</event>
<event>
 6    1  0.5040916E-004  0.3086511E+04  0.7818608E-02  0.8219450E-01
          2   -1    0    0  501    0  0.00000000000E+00  0.00000000000E+00  0.15834920907E+04  0.15834920907E+04  0.00000000000E+00 0.  1.
         -2   -1    0    0    0  501 -0.00000000000E+00 -0.00000000000E+00 -0.15040414438E+04  0.15040414438E+04  0.00000000000E+00 0. -1.
         23    2    1    2    0    0 -0.88093254720E+03  0.90136260727E+03  0.92829098208E+03  0.15679853723E+04  0.91418148843E+02 0.  0.
         13    1    3    3    0    0 -0.59717649179E+03  0.61218907128E+03  0.68201347835E+03  0.10938636140E+04  0.00000000000E+00 0.  1.
        -13    1    3    3    0    0 -0.28375605541E+03  0.28917353599E+03  0.24627750373E+03  0.47412175835E+03  0.00000000000E+00 0. -1.
         22    1    1    2    0    0  0.88093254720E+03 -0.90136260727E+03 -0.84884033512E+03  0.15195481621E+04  0.00000000000E+00 0. -1.
<mgrwt>
<rscale>  0 0.30865111E+04</rscale>
<asrwt>0</asrwt>
<pdfrwt beam="1">  1        2 0.24361417E+00 0.30865111E+04</pdfrwt>
<pdfrwt beam="2">  1       -2 0.23139099E+00 0.30865111E+04</pdfrwt>
<totfact> 0.81148104E-01</totfact>
</mgrwt>
</event>
<event>
 6    1  0.6542738E-004  0.3775657E+04  0.7818608E-02  0.8051399E-01
          2   -1    0    0  501    0  0.00000000000E+00  0.00000000000E+00  0.24094952618E+04  0.24094952618E+04  0.00000000000E+00 0.  1.
         -2   -1    0    0    0  501 -0.00000000000E+00 -0.00000000000E+00 -0.14791052156E+04  0.14791052156E+04  0.00000000000E+00 0. -1.
         23    2    1    2    0    0 -0.12571788761E+04 -0.11208339513E+04  0.13411969103E+04  0.21549541027E+04  0.90832589850E+02 0.  0.
         13    1    3    3    0    0 -0.51485005964E+03 -0.41471286014E+03  0.48844647705E+03  0.82197159392E+03  0.00000000000E+00 0.  1.
        -13    1    3    3    0    0 -0.74232881649E+03 -0.70612109119E+03  0.85275043325E+03  0.13329825087E+04  0.00000000000E+00 0. -1.
         22    1    1    2    0    0  0.12571788761E+04  0.11208339513E+04 -0.41080686401E+03  0.17336463747E+04  0.00000000000E+00 0. -1.
<mgrwt>
<rscale>  0 0.37756573E+04</rscale>
<asrwt>0</asrwt>
<pdfrwt beam="1">  1        2 0.37069158E+00 0.37756573E+04</pdfrwt>
<pdfrwt beam="2">  1       -2 0.22755465E+00 0.37756573E+04</pdfrwt>
<totfact> 0.27936549E-01</totfact>
</mgrwt>
</event>
<event>
 6    1  0.5040916E-004  0.4130904E+04  0.7818608E-02  0.7978647E-01
          2   -1    0    0  501    0  0.00000000000E+00  0.00000000000E+00  0.15525385939E+04  0.15525385939E+04  0.00000000000E+00 0.  1.
         -2   -1    0    0    0  501 -0.00000000000E+00 -0.00000000000E+00 -0.27478176456E+04  0.27478176456E+04  0.00000000000E+00 0. -1.
         23    2    1    2    0    0 -0.14697469750E+04  0.97345333036E+03  0.52044001966E+03  0.18403847989E+04  0.91601513025E+02 0.  0.
         11    1    3    3    0    0 -0.14087045672E+04  0.95322145248E+03  0.50408656687E+03  0.17740301469E+04  0.00000000000E+00 0. -1.
        -11    1    3    3    0    0 -0.61042407787E+02  0.20231877879E+02  0.16353452785E+02  0.66354652052E+02  0.00000000000E+00 0.  1.
         22    1    1    2    0    0  0.14697469750E+04 -0.97345333036E+03 -0.17157190713E+04  0.24599714406E+04  0.00000000000E+00 0. -1.
<mgrwt>
<rscale>  0 0.41309045E+04</rscale>
<asrwt>0</asrwt>
<pdfrwt beam="1">  1        2 0.23885209E+00 0.41309045E+04</pdfrwt>
<pdfrwt beam="2">  1       -2 0.42274117E+00 0.41309045E+04</pdfrwt>
<totfact> 0.48666881E-02</totfact>
</mgrwt>
</event>
<event>
 6    1  0.5040916E-004  0.9942229E+03  0.7818608E-02  0.9314904E-01
          2   -1    0    0  501    0  0.00000000000E+00  0.00000000000E+00  0.17382962442E+04  0.17382962442E+04  0.00000000000E+00 0.  1.
         -2   -1    0    0    0  501 -0.00000000000E+00 -0.00000000000E+00 -0.14216207779E+03  0.14216207779E+03  0.00000000000E+00 0. -1.
         23    2    1    2    0    0 -0.30184765809E+03  0.16365320412E+03  0.13609867010E+03  0.38059231785E+03  0.91832916161E+02 0.  0.
         13    1    3    3    0    0 -0.13445664707E+03  0.23494090336E+02  0.63259783035E+02  0.15044056093E+03  0.00000000000E+00 0.  1.
        -13    1    3    3    0    0 -0.16739101102E+03  0.14015911378E+03  0.72838887069E+02  0.23015175693E+03  0.00000000000E+00 0. -1.
         22    1    1    2    0    0  0.30184765809E+03 -0.16365320412E+03  0.14600354963E+04  0.14998660041E+04  0.00000000000E+00 0.  1.
<mgrwt>
<rscale>  0 0.99422292E+03</rscale>
<asrwt>0</asrwt>
<pdfrwt beam="1">  1        2 0.26743018E+00 0.99422292E+03</pdfrwt>
<pdfrwt beam="2">  1       -2 0.21871090E-01 0.99422292E+03</pdfrwt>
<totfact> 0.17028316E+02</totfact>
</mgrwt>
</event>
<event>
 6    1  0.5040916E-004  0.1897278E+04  0.7818608E-02  0.8656213E-01
         -2   -1    0    0    0  501 -0.00000000000E+00  0.00000000000E+00  0.27093446950E+03  0.27093446950E+03  0.00000000000E+00 0. -1.
          2   -1    0    0  501    0  0.00000000000E+00 -0.00000000000E+00 -0.33215258814E+04  0.33215258814E+04  0.00000000000E+00 0.  1.
         23    2    1    2    0    0 -0.39951839591E+03  0.82050456633E+03 -0.10553830742E+04  0.13984459929E+04  0.94736845279E+02 0.  0.
         13    1    3    3    0    0 -0.20083010127E+03  0.51663871503E+03 -0.64994332004E+03  0.85420993363E+03  0.00000000000E+00 0. -1.
        -13    1    3    3    0    0 -0.19868829464E+03  0.30386585130E+03 -0.40543975412E+03  0.54423605929E+03  0.00000000000E+00 0.  1.
         22    1    1    2    0    0  0.39951839591E+03 -0.82050456633E+03 -0.19952083378E+04  0.21940143580E+04  0.00000000000E+00 0.  1.
<mgrwt>
<rscale>  0 0.18972779E+04</rscale>
<asrwt>0</asrwt>
<pdfrwt beam="1">  1        2 0.51100401E+00 0.18972779E+04</pdfrwt>
<pdfrwt beam="2">  1       -2 0.41682224E-01 0.18972779E+04</pdfrwt>
<totfact> 0.55342781E+00</totfact>
</mgrwt>
</event>
<event>
 6    1  0.5040916E-004  0.1127558E+04  0.7818608E-02  0.9178741E-01
         -2   -1    0    0    0  501 -0.00000000000E+00  0.00000000000E+00  0.29449768737E+03  0.29449768737E+03  0.00000000000E+00 0. -1.
          2   -1    0    0  501    0  0.00000000000E+00 -0.00000000000E+00 -0.10792843406E+04  0.10792843406E+04  0.00000000000E+00 0.  1.
         23    2    1    2    0    0  0.24622128318E+03 -0.87527196670E+02  0.20855991549E+03  0.34663873903E+03  0.91516373387E+02 0.  0.
         11    1    3    3    0    0  0.39631856090E+02  0.17464538134E+02  0.19203605903E+02  0.47375865048E+02  0.00000000000E+00 0. -1.
        -11    1    3    3    0    0  0.20658942709E+03 -0.10499173480E+03  0.18935630958E+03  0.29926287398E+03  0.00000000000E+00 0.  1.
         22    1    1    2    0    0 -0.24622128318E+03  0.87527196670E+02 -0.99334656869E+03  0.10271432889E+04  0.00000000000E+00 0.  1.
<mgrwt>
<rscale>  0 0.11275580E+04</rscale>
<asrwt>0</asrwt>
<pdfrwt beam="1">  1        2 0.16604374E+00 0.11275580E+04</pdfrwt>
<pdfrwt beam="2">  1       -2 0.45307337E-01 0.11275580E+04</pdfrwt>
<totfact> 0.10271197E+02</totfact>
</mgrwt>
</event>
<event>
 6    1  0.5040916E-004  0.1647779E+04  0.7818608E-02  0.8791722E-01
         -2   -1    0    0    0  501 -0.00000000000E+00  0.00000000000E+00  0.45422134392E+03  0.45422134392E+03  0.00000000000E+00 0. -1.
          2   -1    0    0  501    0  0.00000000000E+00 -0.00000000000E+00 -0.14944119532E+04  0.14944119532E+04  0.00000000000E+00 0.  1.
         23    2    1    2    0    0  0.56721212077E+03 -0.25635393533E+03  0.10857515105E+03  0.64206921442E+03  0.11409374466E+03 0.  0.
         11    1    3    3    0    0  0.27524625099E+03 -0.17901447717E+03  0.28350990750E+02  0.32956101165E+03  0.00000000000E+00 0.  1.
        -11    1    3    3    0    0  0.29196586978E+03 -0.77339458159E+02  0.80224160298E+02  0.31250820277E+03  0.00000000000E+00 0. -1.
         22    1    1    2    0    0 -0.56721212077E+03  0.25635393533E+03 -0.11487657603E+04  0.13065640827E+04  0.00000000000E+00 0.  1.
<mgrwt>
<rscale>  0 0.16477789E+04</rscale>
<asrwt>0</asrwt>
<pdfrwt beam="1">  1        2 0.22990953E+00 0.16477789E+04</pdfrwt>
<pdfrwt beam="2">  1       -2 0.69880206E-01 0.16477789E+04</pdfrwt>
<totfact> 0.22793168E+01</totfact>
</mgrwt>
</event>
<event>
 6    1  0.5040916E-004  0.1015087E+04  0.7818608E-02  0.9292151E-01
         -2   -1    0    0    0  501 -0.00000000000E+00  0.00000000000E+00  0.21373344605E+03  0.21373344605E+03  0.00000000000E+00 0. -1.
          2   -1    0    0  501    0  0.00000000000E+00 -0.00000000000E+00 -0.12052405992E+04  0.12052405992E+04  0.00000000000E+00 0.  1.
         23    2    1    2    0    0 -0.26754805153E+02 -0.22351158133E+03  0.12992135527E+03  0.27517548514E+03  0.90381095796E+02 0.  0.
         13    1    3    3    0    0  0.24342944372E+02 -0.14062736339E+03  0.57680788437E+02  0.15393410158E+03  0.00000000000E+00 0.  1.
        -13    1    3    3    0    0 -0.51097749525E+02 -0.82884217942E+02  0.72240566835E+02  0.12124138356E+03  0.00000000000E+00 0. -1.
         22    1    1    2    0    0  0.26754805153E+02  0.22351158133E+03 -0.11214285085E+04  0.11437985601E+04  0.00000000000E+00 0.  1.
<mgrwt>
<rscale>  0 0.10150866E+04</rscale>
<asrwt>0</asrwt>
<pdfrwt beam="1">  1        2 0.18542163E+00 0.10150866E+04</pdfrwt>
<pdfrwt beam="2">  1       -2 0.32882069E-01 0.10150866E+04</pdfrwt>
<totfact> 0.16165229E+02</totfact>
</mgrwt>
</event>
<event>
 6    1  0.5040916E-004  0.1553535E+04  0.7818608E-02  0.8849613E-01
          2   -1    0    0  501    0  0.00000000000E+00  0.00000000000E+00  0.29704885711E+04  0.29704885711E+04  0.00000000000E+00 0.  1.
         -2   -1    0    0    0  501 -0.00000000000E+00 -0.00000000000E+00 -0.20312068696E+03  0.20312068696E+03  0.00000000000E+00 0. -1.
         23    2    1    2    0    0 -0.86453982379E+02  0.52505353038E+03  0.24016583849E+03  0.59099320444E+03  0.91857699063E+02 0.  0.
         13    1    3    3    0    0 -0.69841312503E+02  0.30452552761E+03  0.95401239333E+02  0.32667262261E+03  0.00000000000E+00 0.  1.
        -13    1    3    3    0    0 -0.16612669876E+02  0.22052800278E+03  0.14476459916E+03  0.26432058183E+03  0.00000000000E+00 0. -1.
         22    1    1    2    0    0  0.86453982379E+02 -0.52505353038E+03  0.25272020456E+04  0.25826160536E+04  0.00000000000E+00 0.  1.
<mgrwt>
<rscale>  0 0.15535349E+04</rscale>
<asrwt>0</asrwt>
<pdfrwt beam="1">  1        2 0.45699821E+00 0.15535349E+04</pdfrwt>
<pdfrwt beam="2">  1       -2 0.31249339E-01 0.15535349E+04</pdfrwt>
<totfact> 0.16712309E+01</totfact>
</mgrwt>
</event>
<event>
 6    1  0.5040916E-004  0.2989796E+04  0.7818608E-02  0.8246651E-01
          2   -1    0    0  501    0  0.00000000000E+00  0.00000000000E+00  0.27241936722E+04  0.27241936722E+04  0.00000000000E+00 0.  1.
         -2   -1    0    0    0  501 -0.00000000000E+00 -0.00000000000E+00 -0.82032344304E+03  0.82032344304E+03  0.00000000000E+00 0. -1.
         23    2    1    2    0    0 -0.27628018279E+03 -0.14625875482E+04  0.10983075399E+04  0.18520560900E+04  0.91319398164E+02 0.  0.
         11    1    3    3    0    0 -0.16575729745E+03 -0.70992674496E+03  0.57898528867E+03  0.93096478417E+03  0.00000000000E+00 0.  1.
        -11    1    3    3    0    0 -0.11052288534E+03 -0.75266080328E+03  0.51932225125E+03  0.92109130580E+03  0.00000000000E+00 0. -1.
         22    1    1    2    0    0  0.27628018279E+03  0.14625875482E+04  0.80556268922E+03  0.16924610252E+04  0.00000000000E+00 0.  1.
<mgrwt>
<rscale>  0 0.29897959E+04</rscale>
<asrwt>0</asrwt>
<pdfrwt beam="1">  1        2 0.41910672E+00 0.29897959E+04</pdfrwt>
<pdfrwt beam="2">  1       -2 0.12620361E+00 0.29897959E+04</pdfrwt>
<totfact> 0.10296280E+00</totfact>
</mgrwt>
</event>
<event>
 6    1  0.5040916E-004  0.2688705E+04  0.7818608E-02  0.8338679E-01
          2   -1    0    0  501    0  0.00000000000E+00  0.00000000000E+00  0.18799468953E+04  0.18799468953E+04  0.00000000000E+00 0.  1.
         -2   -1    0    0    0  501 -0.00000000000E+00 -0.00000000000E+00 -0.96134807522E+03  0.96134807522E+03  0.00000000000E+00 0. -1.
         23    2    1    2    0    0 -0.65628749592E+03  0.11406248421E+04  0.17758460205E+03  0.13310498318E+04  0.91755413925E+02 0.  0.
         11    1    3    3    0    0 -0.39302090346E+03  0.68610239221E+03  0.61296560855E+02  0.79306947459E+03  0.00000000000E+00 0. -1.
        -11    1    3    3    0    0 -0.26326659246E+03  0.45452244991E+03  0.11628804120E+03  0.53798035718E+03  0.00000000000E+00 0.  1.
         22    1    1    2    0    0  0.65628749592E+03 -0.11406248421E+04  0.74101421801E+03  0.15102451387E+04  0.00000000000E+00 0. -1.
<mgrwt>
<rscale>  0 0.26887048E+04</rscale>
<asrwt>0</asrwt>
<pdfrwt beam="1">  1        2 0.28922260E+00 0.26887048E+04</pdfrwt>
<pdfrwt beam="2">  1       -2 0.14789970E+00 0.26887048E+04</pdfrwt>
<totfact> 0.21279187E+00</totfact>
</mgrwt>
</event>
<event>
 6    1  0.5040916E-004  0.1896672E+04  0.7818608E-02  0.8656515E-01
         -2   -1    0    0    0  501 -0.00000000000E+00  0.00000000000E+00  0.61173407623E+03  0.61173407623E+03  0.00000000000E+00 0. -1.
          2   -1    0    0  501    0  0.00000000000E+00 -0.00000000000E+00 -0.14701511208E+04  0.14701511208E+04  0.00000000000E+00 0.  1.
         23    2    1    2    0    0  0.27668576855E+03  0.89756844961E+03 -0.30443985553E+03  0.99143810421E+03  0.89898568320E+02 0.  0.
         13    1    3    3    0    0  0.58993186015E+02  0.33256957647E+03 -0.97231026219E+02  0.35147772568E+03  0.00000000000E+00 0. -1.
        -13    1    3    3    0    0  0.21769258254E+03  0.56499887314E+03 -0.20720882931E+03  0.63996037853E+03  0.00000000000E+00 0.  1.
         22    1    1    2    0    0 -0.27668576855E+03 -0.89756844961E+03 -0.55397718901E+03  0.10904470928E+04  0.00000000000E+00 0. -1.
<mgrwt>
<rscale>  0 0.18966724E+04</rscale>
<asrwt>0</asrwt>
<pdfrwt beam="1">  1        2 0.22617710E+00 0.18966724E+04</pdfrwt>
<pdfrwt beam="2">  1       -2 0.94112935E-01 0.18966724E+04</pdfrwt>
<totfact> 0.11779444E+01</totfact>
</mgrwt>
</event>
<event>
 6    1  0.5040916E-004  0.1258726E+04  0.7818608E-02  0.9062952E-01
         -2   -1    0    0    0  501 -0.00000000000E+00  0.00000000000E+00  0.27346111499E+03  0.27346111499E+03  0.00000000000E+00 0. -1.
          2   -1    0    0  501    0  0.00000000000E+00 -0.00000000000E+00 -0.14484601438E+04  0.14484601438E+04  0.00000000000E+00 0.  1.
         23    2    1    2    0    0  0.23811109394E+03 -0.34753185902E+03 -0.12240291523E+04  0.12977995321E+04  0.92525530593E+02 0.  0.
         13    1    3    3    0    0  0.17613750158E+02 -0.83117482913E+02 -0.19509709982E+03  0.21279482728E+03  0.00000000000E+00 0. -1.
        -13    1    3    3    0    0  0.22049734378E+03 -0.26441437611E+03 -0.10289320525E+04  0.10850047048E+04  0.00000000000E+00 0.  1.
         22    1    1    2    0    0 -0.23811109394E+03  0.34753185902E+03  0.49030123406E+02  0.42412172674E+03  0.00000000000E+00 0. -1.
<mgrwt>
<rscale>  0 0.12587256E+04</rscale>
<asrwt>0</asrwt>
<pdfrwt beam="1">  1        2 0.22284002E+00 0.12587256E+04</pdfrwt>
<pdfrwt beam="2">  1       -2 0.42070941E-01 0.12587256E+04</pdfrwt>
<totfact> 0.71426952E+01</totfact>
</mgrwt>
</event>
<event>
 6    1  0.5040916E-004  0.4255810E+04  0.7818608E-02  0.7954840E-01
         -2   -1    0    0    0  501 -0.00000000000E+00  0.00000000000E+00  0.20561005069E+04  0.20561005069E+04  0.00000000000E+00 0. -1.
          2   -1    0    0  501    0  0.00000000000E+00 -0.00000000000E+00 -0.22022170789E+04  0.22022170789E+04  0.00000000000E+00 0.  1.
         23    2    1    2    0    0 -0.53357947875E+03 -0.20290349641E+04 -0.42276676939E+03  0.21421358174E+04  0.91236906345E+02 0.  0.
         13    1    3    3    0    0 -0.29825471077E+03 -0.10610523634E+04 -0.26447171319E+03  0.11334607525E+04  0.00000000000E+00 0. -1.
        -13    1    3    3    0    0 -0.23532476798E+03 -0.96798260068E+03 -0.15829505621E+03  0.10086750649E+04  0.00000000000E+00 0.  1.
         22    1    1    2    0    0  0.53357947875E+03  0.20290349641E+04  0.27665019737E+03  0.21161817685E+04  0.00000000000E+00 0. -1.
<mgrwt>
<rscale>  0 0.42558100E+04</rscale>
<asrwt>0</asrwt>
<pdfrwt beam="1">  1        2 0.33880263E+00 0.42558100E+04</pdfrwt>
<pdfrwt beam="2">  1       -2 0.31632315E+00 0.42558100E+04</pdfrwt>
<totfact> 0.10038641E-01</totfact>
</mgrwt>
</event>
<event>
 6    1  0.5040916E-004  0.3095161E+04  0.7818608E-02  0.8217067E-01
          2   -1    0    0  501    0  0.00000000000E+00  0.00000000000E+00  0.17662230631E+04  0.17662230631E+04  0.00000000000E+00 0.  1.
         -2   -1    0    0    0  501 -0.00000000000E+00 -0.00000000000E+00 -0.13560042743E+04  0.13560042743E+04  0.00000000000E+00 0. -1.
         23    2    1    2    0    0  0.39611085841E+03 -0.83303626168E+03 -0.10469947986E+04  0.13976042873E+04  0.79034234763E+02 0.  0.
         13    1    3    3    0    0  0.13524902969E+03 -0.25968697927E+03 -0.28032448089E+03  0.40535347762E+03  0.00000000000E+00 0. -1.
        -13    1    3    3    0    0  0.26086182872E+03 -0.57334928241E+03 -0.76667031769E+03  0.99225080970E+03  0.00000000000E+00 0.  1.
         22    1    1    2    0    0 -0.39611085841E+03  0.83303626168E+03  0.14572135875E+04  0.17246230501E+04  0.00000000000E+00 0.  1.
<mgrwt>
<rscale>  0 0.30951614E+04</rscale>
<asrwt>0</asrwt>
<pdfrwt beam="1">  1        2 0.27172662E+00 0.30951614E+04</pdfrwt>
<pdfrwt beam="2">  1       -2 0.20861604E+00 0.30951614E+04</pdfrwt>
<totfact> 0.89454031E-01</totfact>
</mgrwt>
</event>
<event>
 6    1  0.5040916E-004  0.3664966E+04  0.7818608E-02  0.8075771E-01
         -2   -1    0    0    0  501 -0.00000000000E+00  0.00000000000E+00  0.18834322059E+04  0.18834322059E+04  0.00000000000E+00 0. -1.
          2   -1    0    0  501    0  0.00000000000E+00 -0.00000000000E+00 -0.17829116316E+04  0.17829116316E+04  0.00000000000E+00 0.  1.
         23    2    1    2    0    0 -0.29052672164E+03  0.16605940185E+04 -0.66544590472E+03  0.18146735328E+04  0.90793767828E+02 0.  0.
         11    1    3    3    0    0 -0.57907902602E+02  0.57558686799E+03 -0.21846527624E+03  0.61836934327E+03  0.00000000000E+00 0.  1.
        -11    1    3    3    0    0 -0.23261881904E+03  0.10850071505E+04 -0.44698062849E+03  0.11963041895E+04  0.00000000000E+00 0. -1.
         22    1    1    2    0    0  0.29052672164E+03 -0.16605940185E+04  0.76596647901E+03  0.18516703046E+04  0.00000000000E+00 0. -1.
<mgrwt>
<rscale>  0 0.36649656E+04</rscale>
<asrwt>0</asrwt>
<pdfrwt beam="1">  1        2 0.27429410E+00 0.36649656E+04</pdfrwt>
<pdfrwt beam="2">  1       -2 0.28975880E+00 0.36649656E+04</pdfrwt>
<totfact> 0.26250445E-01</totfact>
</mgrwt>
</event>
<event>
 6    1  0.5040916E-004  0.2832152E+04  0.7818608E-02  0.8293355E-01
         -2   -1    0    0    0  501 -0.00000000000E+00  0.00000000000E+00  0.84313546018E+03  0.84313546018E+03  0.00000000000E+00 0. -1.
          2   -1    0    0  501    0  0.00000000000E+00 -0.00000000000E+00 -0.23783508247E+04  0.23783508247E+04  0.00000000000E+00 0.  1.
         23    2    1    2    0    0  0.14601950126E+03  0.10559548833E+04  0.28900702173E+03  0.11086328293E+04  0.95808566474E+02 0.  0.
         11    1    3    3    0    0  0.94187649988E+02  0.51998424469E+03  0.18719033591E+03  0.56062032606E+03  0.00000000000E+00 0.  1.
        -11    1    3    3    0    0  0.51831851270E+02  0.53597063857E+03  0.10181668581E+03  0.54801250326E+03  0.00000000000E+00 0. -1.
         22    1    1    2    0    0 -0.14601950126E+03 -0.10559548833E+04 -0.18242223863E+04  0.21128534556E+04  0.00000000000E+00 0.  1.
<mgrwt>
<rscale>  0 0.28321525E+04</rscale>
<asrwt>0</asrwt>
<pdfrwt beam="1">  1        2 0.36590011E+00 0.28321525E+04</pdfrwt>
<pdfrwt beam="2">  1       -2 0.12971315E+00 0.28321525E+04</pdfrwt>
<totfact> 0.15502506E+00</totfact>
</mgrwt>
</event>
<event>
 6    1  0.5040916E-004  0.2283686E+04  0.7818608E-02  0.8484381E-01
          2   -1    0    0  501    0  0.00000000000E+00  0.00000000000E+00  0.25127022852E+04  0.25127022852E+04  0.00000000000E+00 0.  1.
         -2   -1    0    0    0  501 -0.00000000000E+00 -0.00000000000E+00 -0.51888581440E+03  0.51888581440E+03  0.00000000000E+00 0. -1.
         23    2    1    2    0    0  0.64768375294E+03 -0.12857201057E+03 -0.23514661361E+03  0.70687275415E+03  0.91379182261E+02 0.  0.
         13    1    3    3    0    0  0.20536276274E+03 -0.10094649557E+02 -0.41815045700E+02  0.20981959946E+03  0.00000000000E+00 0. -1.
        -13    1    3    3    0    0  0.44232099020E+03 -0.11847736101E+03 -0.19333156791E+03  0.49705315469E+03  0.00000000000E+00 0.  1.
         22    1    1    2    0    0 -0.64768375294E+03  0.12857201057E+03  0.22289630844E+04  0.23247153455E+04  0.00000000000E+00 0.  1.
<mgrwt>
<rscale>  0 0.22836861E+04</rscale>
<asrwt>0</asrwt>
<pdfrwt beam="1">  1        2 0.38656957E+00 0.22836861E+04</pdfrwt>
<pdfrwt beam="2">  1       -2 0.79828589E-01 0.22836861E+04</pdfrwt>
<totfact> 0.43156209E+00</totfact>
</mgrwt>
</event>
<event>
 6    1  0.5040916E-004  0.2394078E+04  0.7818608E-02  0.8441724E-01
         -2   -1    0    0    0  501 -0.00000000000E+00  0.00000000000E+00  0.37586049101E+03  0.37586049101E+03  0.00000000000E+00 0. -1.
          2   -1    0    0  501    0  0.00000000000E+00 -0.00000000000E+00 -0.38123258644E+04  0.38123258644E+04  0.00000000000E+00 0.  1.
         23    2    1    2    0    0  0.12707973048E+03 -0.86300787828E+03 -0.29343769847E+03  0.92635330922E+03  0.10532290708E+03 0.  0.
         13    1    3    3    0    0  0.12547820355E+03 -0.73114988973E+03 -0.28331213677E+03  0.79409741698E+03  0.00000000000E+00 0.  1.
        -13    1    3    3    0    0  0.16015269348E+01 -0.13185798855E+03 -0.10125561702E+02  0.13225589224E+03  0.00000000000E+00 0. -1.
         22    1    1    2    0    0 -0.12707973048E+03  0.86300787828E+03 -0.31430276749E+04  0.32618330462E+04  0.00000000000E+00 0.  1.
<mgrwt>
<rscale>  0 0.23940783E+04</rscale>
<asrwt>0</asrwt>
<pdfrwt beam="1">  1        2 0.58651171E+00 0.23940783E+04</pdfrwt>
<pdfrwt beam="2">  1       -2 0.57824688E-01 0.23940783E+04</pdfrwt>
<totfact> 0.12148561E+00</totfact>
</mgrwt>
</event>
<event>
 6    1  0.7293034E-004  0.3450462E+04  0.7818608E-02  0.8125631E-01
         -2   -1    0    0    0  501 -0.00000000000E+00  0.00000000000E+00  0.12371767658E+04  0.12371767658E+04  0.00000000000E+00 0.  1.
          2   -1    0    0  501    0  0.00000000000E+00 -0.00000000000E+00 -0.24058183666E+04  0.24058183666E+04  0.00000000000E+00 0. -1.
         23    2    1    2    0    0 -0.13416917367E+04  0.10136261679E+04 -0.98657011836E+03  0.19516274168E+04  0.89186607644E+02 0.  0.
         11    1    3    3    0    0 -0.60816976250E+03  0.51341689666E+03 -0.47953515290E+03  0.92920467749E+03  0.00000000000E+00 0. -1.
        -11    1    3    3    0    0 -0.73352197417E+03  0.50020927125E+03 -0.50703496546E+03  0.10224227393E+04  0.00000000000E+00 0.  1.
         22    1    1    2    0    0  0.13416917367E+04 -0.10136261679E+04 -0.18207148247E+03  0.16913677156E+04  0.00000000000E+00 0. -1.
<mgrwt>
<rscale>  0 0.34504623E+04</rscale>
<asrwt>0</asrwt>
<pdfrwt beam="1">  1        2 0.37012590E+00 0.34504623E+04</pdfrwt>
<pdfrwt beam="2">  1       -2 0.19033489E+00 0.34504623E+04</pdfrwt>
<totfact> 0.50186246E-01</totfact>
</mgrwt>
</event>
<event>
 6    1  0.5562476E-004  0.3225783E+04  0.7818608E-02  0.8182041E-01
          2   -1    0    0  501    0  0.00000000000E+00  0.00000000000E+00  0.22263168781E+04  0.22263168781E+04  0.00000000000E+00 0.  1.
         -2   -1    0    0    0  501 -0.00000000000E+00 -0.00000000000E+00 -0.11684852696E+04  0.11684852696E+04  0.00000000000E+00 0. -1.
         23    2    1    2    0    0  0.40006135777E+03  0.10721793938E+04  0.17241309047E+04  0.20705769046E+04  0.71018300173E+02 0.  0.
         11    1    3    3    0    0  0.11933508400E+03  0.38294115651E+03  0.55795548593E+03  0.68716745841E+03  0.00000000000E+00 0.  1.
        -11    1    3    3    0    0  0.28072627377E+03  0.68923823727E+03  0.11661754188E+04  0.13834094462E+04  0.00000000000E+00 0. -1.
         22    1    1    2    0    0 -0.40006135777E+03 -0.10721793938E+04 -0.66629929618E+03  0.13242252431E+04  0.00000000000E+00 0. -1.
<mgrwt>
<rscale>  0 0.32257827E+04</rscale>
<asrwt>0</asrwt>
<pdfrwt beam="1">  1        2 0.34251029E+00 0.32257827E+04</pdfrwt>
<pdfrwt beam="2">  1       -2 0.17976696E+00 0.32257827E+04</pdfrwt>
<totfact> 0.76319303E-01</totfact>
</mgrwt>
</event>
<event>
 6    1  0.5040916E-004  0.1162319E+04  0.7818608E-02  0.9146494E-01
          2   -1    0    0  501    0  0.00000000000E+00  0.00000000000E+00  0.12549165108E+04  0.12549165108E+04  0.00000000000E+00 0. -1.
         -2   -1    0    0    0  501 -0.00000000000E+00 -0.00000000000E+00 -0.26913837018E+03  0.26913837018E+03  0.00000000000E+00 0.  1.
         23    2    1    2    0    0  0.46451211369E+03  0.72713007995E+02  0.56635374607E+02  0.48272641938E+03  0.93587098547E+02 0.  0.
         13    1    3    3    0    0  0.28716399629E+03  0.63057309119E+02  0.77082394793E+02  0.30394256132E+03  0.00000000000E+00 0.  1.
        -13    1    3    3    0    0  0.17734811740E+03  0.96556988762E+01 -0.20447020186E+02  0.17878385806E+03  0.00000000000E+00 0. -1.
         22    1    1    2    0    0 -0.46451211369E+03 -0.72713007995E+02  0.92914276598E+03  0.10413284616E+04  0.00000000000E+00 0. -1.
<mgrwt>
<rscale>  0 0.11623187E+04</rscale>
<asrwt>0</asrwt>
<pdfrwt beam="1">  1        2 0.19306407E+00 0.11623187E+04</pdfrwt>
<pdfrwt beam="2">  1       -2 0.41405904E-01 0.11623187E+04</pdfrwt>
<totfact> 0.95968874E+01</totfact>
</mgrwt>
</event>
<event>
 6    1  0.5040916E-004  0.3033004E+04  0.7818608E-02  0.8234369E-01
          2   -1    0    0  501    0  0.00000000000E+00  0.00000000000E+00  0.23077740586E+04  0.23077740586E+04  0.00000000000E+00 0.  1.
         -2   -1    0    0    0  501 -0.00000000000E+00 -0.00000000000E+00 -0.99653552757E+03  0.99653552757E+03  0.00000000000E+00 0. -1.
         23    2    1    2    0    0  0.63158893428E+03 -0.91599483562E+03  0.17766382060E+04  0.20982631615E+04  0.91180367485E+02 0.  0.
         13    1    3    3    0    0  0.36524043160E+03 -0.57932973823E+03  0.10268256339E+04  0.12342586443E+04  0.00000000000E+00 0.  1.
        -13    1    3    3    0    0  0.26634850268E+03 -0.33666509739E+03  0.74981257203E+03  0.86400451727E+03  0.00000000000E+00 0. -1.
         22    1    1    2    0    0 -0.63158893428E+03  0.91599483562E+03 -0.46539967498E+03  0.12060464246E+04  0.00000000000E+00 0. -1.
<mgrwt>
<rscale>  0 0.30330043E+04</rscale>
<asrwt>0</asrwt>
<pdfrwt beam="1">  1        2 0.35504216E+00 0.30330043E+04</pdfrwt>
<pdfrwt beam="2">  1       -2 0.15331316E+00 0.30330043E+04</pdfrwt>
<totfact> 0.10829361E+00</totfact>
</mgrwt>
</event>
<event>
 6    1  0.5040916E-004  0.2050768E+04  0.7818608E-02  0.8583246E-01
         -2   -1    0    0    0  501 -0.00000000000E+00  0.00000000000E+00  0.11351549400E+04  0.11351549400E+04  0.00000000000E+00 0. -1.
          2   -1    0    0  501    0  0.00000000000E+00 -0.00000000000E+00 -0.92622774394E+03  0.92622774394E+03  0.00000000000E+00 0.  1.
         23    2    1    2    0    0 -0.51106445904E+03  0.33149360479E+03 -0.72186392206E+03  0.94897673425E+03  0.91621115861E+02 0.  0.
         13    1    3    3    0    0 -0.84923025422E+02  0.84229310986E+02 -0.18508468112E+03  0.22036977166E+03  0.00000000000E+00 0. -1.
        -13    1    3    3    0    0 -0.42614143362E+03  0.24726429381E+03 -0.53677924094E+03  0.72860696260E+03  0.00000000000E+00 0.  1.
         22    1    1    2    0    0  0.51106445904E+03 -0.33149360479E+03  0.93079111810E+03  0.11124059497E+04  0.00000000000E+00 0. -1.
<mgrwt>
<rscale>  0 0.20507677E+04</rscale>
<asrwt>0</asrwt>
<pdfrwt beam="1">  1        2 0.14249658E+00 0.20507677E+04</pdfrwt>
<pdfrwt beam="2">  1       -2 0.17463922E+00 0.20507677E+04</pdfrwt>
<totfact> 0.51466147E+00</totfact>
</mgrwt>
</event>
<event>
 6    1  0.5040916E-004  0.9476987E+03  0.7818608E-02  0.9367845E-01
         -2   -1    0    0    0  501 -0.00000000000E+00  0.00000000000E+00  0.19052630248E+03  0.19052630248E+03  0.00000000000E+00 0.  1.
          2   -1    0    0  501    0  0.00000000000E+00 -0.00000000000E+00 -0.11784892269E+04  0.11784892269E+04  0.00000000000E+00 0. -1.
         23    2    1    2    0    0 -0.15714456203E+03 -0.12038527182E+03  0.11667733314E+03  0.24677797625E+03  0.89993013316E+02 0.  0.
         11    1    3    3    0    0  0.19207896178E+01 -0.24262927214E+02  0.37625685170E+02  0.44811508056E+02  0.00000000000E+00 0. -1.
        -11    1    3    3    0    0 -0.15906535165E+03 -0.96122344606E+02  0.79051647972E+02  0.20196646819E+03  0.00000000000E+00 0.  1.
         22    1    1    2    0    0  0.15714456203E+03  0.12038527182E+03 -0.11046402575E+04  0.11222375531E+04  0.00000000000E+00 0. -1.
<mgrwt>
<rscale>  0 0.94769868E+03</rscale>
<asrwt>0</asrwt>
<pdfrwt beam="1">  1        2 0.18130603E+00 0.94769868E+03</pdfrwt>
<pdfrwt beam="2">  1       -2 0.29311740E-01 0.94769868E+03</pdfrwt>
<totfact> 0.20878010E+02</totfact>
</mgrwt>
</event>
<event>
 6    1  0.5040916E-004  0.1169044E+04  0.7818608E-02  0.9140392E-01
         -2   -1    0    0    0  501 -0.00000000000E+00  0.00000000000E+00  0.24612432866E+03  0.24612432866E+03  0.00000000000E+00 0.  1.
          2   -1    0    0  501    0  0.00000000000E+00 -0.00000000000E+00 -0.13881852207E+04  0.13881852207E+04  0.00000000000E+00 0. -1.
         23    2    1    2    0    0 -0.46841129907E+03 -0.30154330552E+03 -0.80591274631E+03  0.98366902952E+03  0.88158350554E+02 0.  0.
         13    1    3    3    0    0 -0.54428893761E+02 -0.64033213216E+02 -0.15778275297E+03  0.17876843683E+03  0.00000000000E+00 0. -1.
        -13    1    3    3    0    0 -0.41398240530E+03 -0.23751009231E+03 -0.64812999334E+03  0.80490059269E+03  0.00000000000E+00 0.  1.
         22    1    1    2    0    0  0.46841129907E+03  0.30154330552E+03 -0.33614814575E+03  0.65064051986E+03  0.00000000000E+00 0. -1.
<mgrwt>
<rscale>  0 0.11690443E+04</rscale>
<asrwt>0</asrwt>
<pdfrwt beam="1">  1        2 0.21356696E+00 0.11690443E+04</pdfrwt>
<pdfrwt beam="2">  1       -2 0.37865281E-01 0.11690443E+04</pdfrwt>
<totfact> 0.95585346E+01</totfact>
</mgrwt>
</event>
<event>
 6    1  0.5040916E-004  0.2334398E+04  0.7818608E-02  0.8464481E-01
          2   -1    0    0  501    0  0.00000000000E+00  0.00000000000E+00  0.11665377270E+04  0.11665377270E+04  0.00000000000E+00 0.  1.
         -2   -1    0    0    0  501 -0.00000000000E+00 -0.00000000000E+00 -0.11678604131E+04  0.11678604131E+04  0.00000000000E+00 0. -1.
         23    2    1    2    0    0  0.33706705457E+03  0.87711325917E+02 -0.11126940211E+04  0.11697292086E+04  0.94185777550E+02 0.  0.
         11    1    3    3    0    0  0.26529007331E+03  0.47900526059E+02 -0.72635561962E+03  0.77476820375E+03  0.00000000000E+00 0. -1.
        -11    1    3    3    0    0  0.71776981259E+02  0.39810799858E+02 -0.38633840152E+03  0.39496100480E+03  0.00000000000E+00 0.  1.
         22    1    1    2    0    0 -0.33706705457E+03 -0.87711325917E+02  0.11113713350E+04  0.11646689316E+04  0.00000000000E+00 0.  1.
<mgrwt>
<rscale>  0 0.23343978E+04</rscale>
<asrwt>0</asrwt>
<pdfrwt beam="1">  1        2 0.17946734E+00 0.23343978E+04</pdfrwt>
<pdfrwt beam="2">  1       -2 0.17967083E+00 0.23343978E+04</pdfrwt>
<totfact> 0.32693279E+00</totfact>
</mgrwt>
</event>
<event>
 6    1  0.5040916E-004  0.3678809E+04  0.7818608E-02  0.8072674E-01
         -2   -1    0    0    0  501 -0.00000000000E+00  0.00000000000E+00  0.12149100920E+04  0.12149100920E+04  0.00000000000E+00 0. -1.
          2   -1    0    0  501    0  0.00000000000E+00 -0.00000000000E+00 -0.27849046847E+04  0.27849046847E+04  0.00000000000E+00 0.  1.
         23    2    1    2    0    0 -0.46627436543E+03 -0.16230313811E+04 -0.15753630675E+04  0.23111255015E+04  0.88823654991E+02 0.  0.
         11    1    3    3    0    0 -0.35128468490E+03 -0.12823685446E+04 -0.11947146897E+04  0.17875159311E+04  0.00000000000E+00 0. -1.
        -11    1    3    3    0    0 -0.11498968053E+03 -0.34066283641E+03 -0.38064837780E+03  0.52360957044E+03  0.00000000000E+00 0.  1.
         22    1    1    2    0    0  0.46627436543E+03  0.16230313811E+04  0.53684747374E+01  0.16886892752E+04  0.00000000000E+00 0. -1.
<mgrwt>
<rscale>  0 0.36788089E+04</rscale>
<asrwt>0</asrwt>
<pdfrwt beam="1">  1        2 0.42844687E+00 0.36788089E+04</pdfrwt>
<pdfrwt beam="2">  1       -2 0.18690924E+00 0.36788089E+04</pdfrwt>
<totfact> 0.31088691E-01</totfact>
</mgrwt>
</event>
<event>
 6    1  0.5040916E-004  0.1115792E+04  0.7818608E-02  0.9189935E-01
          2   -1    0    0  501    0  0.00000000000E+00  0.00000000000E+00  0.57002206432E+03  0.57002206432E+03  0.00000000000E+00 0.  1.
         -2   -1    0    0    0  501 -0.00000000000E+00 -0.00000000000E+00 -0.54602760351E+03  0.54602760351E+03  0.00000000000E+00 0. -1.
         23    2    1    2    0    0  0.20095628196E+03 -0.28563729332E+03 -0.41846003341E+03  0.55236707093E+03  0.89601846463E+02 0.  0.
         13    1    3    3    0    0  0.13271463810E+03 -0.24999901505E+03 -0.31637895897E+03  0.42450951505E+03  0.00000000000E+00 0.  1.
        -13    1    3    3    0    0  0.68241643866E+02 -0.35638278265E+02 -0.10208107444E+03  0.12785755588E+03  0.00000000000E+00 0. -1.
         22    1    1    2    0    0 -0.20095628196E+03  0.28563729332E+03  0.44245449422E+03  0.56368259690E+03  0.00000000000E+00 0.  1.
<mgrwt>
<rscale>  0 0.11157917E+04</rscale>
<asrwt>0</asrwt>
<pdfrwt beam="1">  1        2 0.87695703E-01 0.11157917E+04</pdfrwt>
<pdfrwt beam="2">  1       -2 0.84004246E-01 0.11157917E+04</pdfrwt>
<totfact> 0.64802899E+01</totfact>
</mgrwt>
</event>
<event>
 6    1  0.5040916E-004  0.2455108E+04  0.7818608E-02  0.8419155E-01
          2   -1    0    0  501    0  0.00000000000E+00  0.00000000000E+00  0.28785325901E+04  0.28785325901E+04  0.00000000000E+00 0.  1.
         -2   -1    0    0    0  501 -0.00000000000E+00 -0.00000000000E+00 -0.52349196973E+03  0.52349196973E+03  0.00000000000E+00 0. -1.
         23    2    1    2    0    0 -0.69640695988E+03 -0.46968778922E+03 -0.58204097403E+02  0.84676736320E+03  0.89654767401E+02 0.  0.
         13    1    3    3    0    0 -0.72356454404E+02 -0.43850714950E+02  0.20870472553E+02  0.87143091064E+02  0.00000000000E+00 0.  1.
        -13    1    3    3    0    0 -0.62405050547E+03 -0.42583707427E+03 -0.79074569957E+02  0.75962427214E+03  0.00000000000E+00 0. -1.
         22    1    1    2    0    0  0.69640695988E+03  0.46968778922E+03  0.24132447178E+04  0.25552571967E+04  0.00000000000E+00 0.  1.
<mgrwt>
<rscale>  0 0.24551079E+04</rscale>
<asrwt>0</asrwt>
<pdfrwt beam="1">  1        2 0.44285116E+00 0.24551079E+04</pdfrwt>
<pdfrwt beam="2">  1       -2 0.80537228E-01 0.24551079E+04</pdfrwt>
<totfact> 0.25246798E+00</totfact>
</mgrwt>
</event>
<event>
 6    1  0.5040916E-004  0.1641352E+04  0.7818608E-02  0.8795539E-01
         -2   -1    0    0    0  501 -0.00000000000E+00  0.00000000000E+00  0.63096622367E+03  0.63096622367E+03  0.00000000000E+00 0.  1.
          2   -1    0    0  501    0  0.00000000000E+00 -0.00000000000E+00 -0.10674244125E+04  0.10674244125E+04  0.00000000000E+00 0. -1.
         23    2    1    2    0    0 -0.15605469089E+03 -0.12984914254E+03 -0.10389742747E+04  0.10625923190E+04  0.91766150703E+02 0.  0.
         13    1    3    3    0    0 -0.37062144346E+02 -0.18169339391E+02 -0.43518226889E+03  0.43713537331E+03  0.00000000000E+00 0.  1.
        -13    1    3    3    0    0 -0.11899254654E+03 -0.11167980315E+03 -0.60379200583E+03  0.62545694566E+03  0.00000000000E+00 0. -1.
         22    1    1    2    0    0  0.15605469089E+03  0.12984914254E+03  0.60251608591E+03  0.63579831720E+03  0.00000000000E+00 0.  1.
<mgrwt>
<rscale>  0 0.16413516E+04</rscale>
<asrwt>0</asrwt>
<pdfrwt beam="1">  1        2 0.16421914E+00 0.16413516E+04</pdfrwt>
<pdfrwt beam="2">  1       -2 0.97071727E-01 0.16413516E+04</pdfrwt>
<totfact> 0.19336332E+01</totfact>
</mgrwt>
</event>
<event>
 6    1  0.5040916E-004  0.5372099E+04  0.7818608E-02  0.7773538E-01
         -2   -1    0    0    0  501 -0.00000000000E+00  0.00000000000E+00  0.19759273971E+04  0.19759273971E+04  0.00000000000E+00 0. -1.
          2   -1    0    0  501    0  0.00000000000E+00 -0.00000000000E+00 -0.36513807489E+04  0.36513807489E+04  0.00000000000E+00 0.  1.
         23    2    1    2    0    0  0.25882498106E+04 -0.71508707805E+03 -0.82253759327E+03  0.28098887767E+04  0.92305111469E+02 0.  0.
         11    1    3    3    0    0  0.74449482126E+03 -0.21740299973E+03 -0.27989096882E+03  0.82454566738E+03  0.00000000000E+00 0.  1.
        -11    1    3    3    0    0  0.18437549894E+04 -0.49768407832E+03 -0.54264662445E+03  0.19853431093E+04  0.00000000000E+00 0. -1.
         22    1    1    2    0    0 -0.25882498106E+04  0.71508707805E+03 -0.85291575848E+03  0.28174193693E+04  0.00000000000E+00 0. -1.
<mgrwt>
<rscale>  0 0.53720995E+04</rscale>
<asrwt>0</asrwt>
<pdfrwt beam="1">  1        2 0.56175088E+00 0.53720995E+04</pdfrwt>
<pdfrwt beam="2">  1       -2 0.30398883E+00 0.53720995E+04</pdfrwt>
<totfact> 0.13421484E-02</totfact>
</mgrwt>
</event>
<event>
 6    1  0.5040916E-004  0.2461279E+04  0.7818608E-02  0.8416911E-01
          2   -1    0    0  501    0  0.00000000000E+00  0.00000000000E+00  0.19354220928E+04  0.19354220928E+04  0.00000000000E+00 0.  1.
         -2   -1    0    0    0  501 -0.00000000000E+00 -0.00000000000E+00 -0.78250284408E+03  0.78250284408E+03  0.00000000000E+00 0. -1.
         23    2    1    2    0    0 -0.23536646148E+03 -0.77162030641E+03  0.16010411623E+04  0.17950985622E+04  0.90833784436E+02 0.  0.
         13    1    3    3    0    0 -0.13631007636E+03 -0.40486187079E+03  0.94340608691E+03  0.10356199188E+04  0.00000000000E+00 0. -1.
        -13    1    3    3    0    0 -0.99056385118E+02 -0.36675843562E+03  0.65763507535E+03  0.75947864345E+03  0.00000000000E+00 0.  1.
         22    1    1    2    0    0  0.23536646148E+03  0.77162030641E+03 -0.44812191351E+03  0.92282637469E+03  0.00000000000E+00 0. -1.
<mgrwt>
<rscale>  0 0.24612788E+04</rscale>
<asrwt>0</asrwt>
<pdfrwt beam="1">  1        2 0.29775724E+00 0.24612788E+04</pdfrwt>
<pdfrwt beam="2">  1       -2 0.12038505E+00 0.24612788E+04</pdfrwt>
<totfact> 0.34205836E+00</totfact>
</mgrwt>
</event>
<event>
 6    1  0.5040916E-004  0.3810880E+04  0.7818608E-02  0.8043824E-01
         -2   -1    0    0    0  501 -0.00000000000E+00  0.00000000000E+00  0.97181083943E+03  0.97181083943E+03  0.00000000000E+00 0.  1.
          2   -1    0    0  501    0  0.00000000000E+00 -0.00000000000E+00 -0.37360176355E+04  0.37360176355E+04  0.00000000000E+00 0. -1.
         23    2    1    2    0    0  0.15464153031E+04 -0.10892700117E+03 -0.27491343940E+04  0.31575083278E+04  0.94093266027E+02 0.  0.
         13    1    3    3    0    0  0.10746227884E+04 -0.11741962634E+03 -0.18896200842E+04  0.21769854314E+04  0.00000000000E+00 0.  1.
        -13    1    3    3    0    0  0.47179251471E+03  0.84926251727E+01 -0.85951430979E+03  0.98052289640E+03  0.00000000000E+00 0. -1.
         22    1    1    2    0    0 -0.15464153031E+04  0.10892700117E+03 -0.15072402041E+02  0.15503201471E+04  0.00000000000E+00 0.  1.
<mgrwt>
<rscale>  0 0.38108804E+04</rscale>
<asrwt>0</asrwt>
<pdfrwt beam="1">  1        2 0.57477194E+00 0.38108804E+04</pdfrwt>
<pdfrwt beam="2">  1       -2 0.14950936E+00 0.38108804E+04</pdfrwt>
<totfact> 0.13255080E-01</totfact>
</mgrwt>
</event>
<event>
 6    1  0.5040916E-004  0.2802821E+04  0.7818608E-02  0.8302393E-01
         -2   -1    0    0    0  501 -0.00000000000E+00  0.00000000000E+00  0.14048249461E+04  0.14048249461E+04  0.00000000000E+00 0. -1.
          2   -1    0    0  501    0  0.00000000000E+00 -0.00000000000E+00 -0.13980043673E+04  0.13980043673E+04  0.00000000000E+00 0.  1.
         23    2    1    2    0    0  0.16836140409E+03  0.42478831306E+03  0.13269022461E+04  0.14059018702E+04  0.84260458111E+02 0.  0.
         13    1    3    3    0    0  0.93144125113E+02  0.26167956404E+03  0.68040671057E+03  0.73491857649E+03  0.00000000000E+00 0.  1.
        -13    1    3    3    0    0  0.75217278973E+02  0.16310874902E+03  0.64649553549E+03  0.67098329373E+03  0.00000000000E+00 0. -1.
         22    1    1    2    0    0 -0.16836140409E+03 -0.42478831306E+03 -0.13200816673E+04  0.13969274432E+04  0.00000000000E+00 0.  1.
<mgrwt>
<rscale>  0 0.28028210E+04</rscale>
<asrwt>0</asrwt>
<pdfrwt beam="1">  1        2 0.21507760E+00 0.28028210E+04</pdfrwt>
<pdfrwt beam="2">  1       -2 0.21612691E+00 0.28028210E+04</pdfrwt>
<totfact> 0.13203762E+00</totfact>
</mgrwt>
</event>
<event>
 6    1  0.5040916E-004  0.2051256E+04  0.7818608E-02  0.8583025E-01
          2   -1    0    0  501    0  0.00000000000E+00  0.00000000000E+00  0.35569999687E+04  0.35569999687E+04  0.00000000000E+00 0.  1.
         -2   -1    0    0    0  501 -0.00000000000E+00 -0.00000000000E+00 -0.29573030516E+03  0.29573030516E+03  0.00000000000E+00 0. -1.
         23    2    1    2    0    0  0.81277484769E+03 -0.29134217479E+03  0.26669032045E+04  0.28045152657E+04  0.86313134602E+02 0.  0.
         11    1    3    3    0    0  0.29801913790E+03 -0.14085021870E+03  0.92915124359E+03  0.98588854549E+03  0.00000000000E+00 0. -1.
        -11    1    3    3    0    0  0.51475570978E+03 -0.15049195609E+03  0.17377519609E+04  0.18186267202E+04  0.00000000000E+00 0.  1.
         22    1    1    2    0    0 -0.81277484769E+03  0.29134217479E+03  0.59436645906E+03  0.10482150082E+04  0.00000000000E+00 0.  1.
<mgrwt>
<rscale>  0 0.20512559E+04</rscale>
<asrwt>0</asrwt>
<pdfrwt beam="1">  1        2 0.54723073E+00 0.20512559E+04</pdfrwt>
<pdfrwt beam="2">  1       -2 0.45496973E-01 0.20512559E+04</pdfrwt>
<totfact> 0.31583159E+00</totfact>
</mgrwt>
</event>
<event>
 6    1  0.5040916E-004  0.6507048E+03  0.7818608E-02  0.9805458E-01
          3   -1    0    0  501    0  0.00000000000E+00  0.00000000000E+00  0.24182438108E+03  0.24182438108E+03  0.00000000000E+00 0.  1.
         -3   -1    0    0    0  501 -0.00000000000E+00 -0.00000000000E+00 -0.43773169831E+03  0.43773169831E+03  0.00000000000E+00 0. -1.
         23    2    1    2    0    0 -0.13751005321E+03  0.28761906617E+03 -0.10660605831E+03  0.34848440014E+03  0.91884620654E+02 0.  0.
         13    1    3    3    0    0 -0.11458086146E+03  0.13503882694E+03 -0.65332170538E+02  0.18876586318E+03  0.00000000000E+00 0. -1.
        -13    1    3    3    0    0 -0.22929191757E+02  0.15258023922E+03 -0.41273887774E+02  0.15971853696E+03  0.00000000000E+00 0.  1.
         22    1    1    2    0    0  0.13751005321E+03 -0.28761906617E+03 -0.89301258915E+02  0.33107167925E+03  0.00000000000E+00 0. -1.
<mgrwt>
<rscale>  0 0.65070484E+03</rscale>
<asrwt>0</asrwt>
<pdfrwt beam="1">  1        3 0.37203751E-01 0.65070484E+03</pdfrwt>
<pdfrwt beam="2">  1       -3 0.67343337E-01 0.65070484E+03</pdfrwt>
<totfact> 0.40020747E+01</totfact>
</mgrwt>
</event>
<event>
 6    1  0.5040916E-004  0.1432266E+04  0.7818608E-02  0.8930788E-01
         -2   -1    0    0    0  501 -0.00000000000E+00  0.00000000000E+00  0.21364510678E+03  0.21364510678E+03  0.00000000000E+00 0. -1.
          2   -1    0    0  501    0  0.00000000000E+00 -0.00000000000E+00 -0.24004596490E+04  0.24004596490E+04  0.00000000000E+00 0.  1.
         23    2    1    2    0    0 -0.24839936011E+02  0.47859461996E+03 -0.20618608923E+04  0.21188439686E+04  0.92518060855E+02 0.  0.
         11    1    3    3    0    0 -0.36063417978E+02  0.19568687985E+03 -0.69258327638E+03  0.72060080473E+03  0.00000000000E+00 0.  1.
        -11    1    3    3    0    0  0.11223481967E+02  0.28290774011E+03 -0.13692776159E+04  0.13982431639E+04  0.00000000000E+00 0. -1.
         22    1    1    2    0    0  0.24839936011E+02 -0.47859461996E+03 -0.12495364995E+03  0.49526078718E+03  0.00000000000E+00 0. -1.
<mgrwt>
<rscale>  0 0.14322660E+04</rscale>
<asrwt>0</asrwt>
<pdfrwt beam="1">  1        2 0.36930146E+00 0.14322660E+04</pdfrwt>
<pdfrwt beam="2">  1       -2 0.32868480E-01 0.14322660E+04</pdfrwt>
<totfact> 0.33402598E+01</totfact>
</mgrwt>
</event>
<event>
 6    1  0.5040916E-004  0.4206250E+04  0.7818608E-02  0.7964184E-01
          2   -1    0    0  501    0  0.00000000000E+00  0.00000000000E+00  0.25517370184E+04  0.25517370184E+04  0.00000000000E+00 0.  1.
         -2   -1    0    0    0  501 -0.00000000000E+00 -0.00000000000E+00 -0.17333818650E+04  0.17333818650E+04  0.00000000000E+00 0. -1.
         23    2    1    2    0    0  0.12747940662E+04  0.16714592919E+04  0.39939381717E+03  0.21416626378E+04  0.91254353917E+02 0.  0.
         13    1    3    3    0    0  0.55274897129E+03  0.79964348013E+03  0.18190924155E+03  0.98896516256E+03  0.00000000000E+00 0.  1.
        -13    1    3    3    0    0  0.72204509490E+03  0.87181581178E+03  0.21748457561E+03  0.11526974752E+04  0.00000000000E+00 0. -1.
         22    1    1    2    0    0 -0.12747940662E+04 -0.16714592919E+04  0.41896133614E+03  0.21434562456E+04  0.00000000000E+00 0. -1.
<mgrwt>
<rscale>  0 0.42062500E+04</rscale>
<asrwt>0</asrwt>
<pdfrwt beam="1">  1        2 0.39257493E+00 0.42062500E+04</pdfrwt>
<pdfrwt beam="2">  1       -2 0.26667413E+00 0.42062500E+04</pdfrwt>
<totfact> 0.12798597E-01</totfact>
</mgrwt>
</event>
<event>
 6    1  0.5040916E-004  0.4505444E+04  0.7818608E-02  0.7909684E-01
         -2   -1    0    0    0  501 -0.00000000000E+00  0.00000000000E+00  0.26943006232E+04  0.26943006232E+04  0.00000000000E+00 0. -1.
          2   -1    0    0  501    0  0.00000000000E+00 -0.00000000000E+00 -0.18835151005E+04  0.18835151005E+04  0.00000000000E+00 0.  1.
         23    2    1    2    0    0  0.13814077549E+04  0.17634185935E+04  0.17208711879E+03  0.22484664214E+04  0.89748263367E+02 0.  0.
         13    1    3    3    0    0  0.11577602671E+04  0.14749293492E+04  0.11073847887E+03  0.18783206414E+04  0.00000000000E+00 0. -1.
        -13    1    3    3    0    0  0.22364748780E+03  0.28848924428E+03  0.61348639915E+02  0.37014578004E+03  0.00000000000E+00 0.  1.
         22    1    1    2    0    0 -0.13814077549E+04 -0.17634185935E+04  0.63869840388E+03  0.23293493023E+04  0.00000000000E+00 0.  1.
<mgrwt>
<rscale>  0 0.45054438E+04</rscale>
<asrwt>0</asrwt>
<pdfrwt beam="1">  1        2 0.28977155E+00 0.45054438E+04</pdfrwt>
<pdfrwt beam="2">  1       -2 0.41450779E+00 0.45054438E+04</pdfrwt>
<totfact> 0.35019453E-02</totfact>
</mgrwt>
</event>
<event>
 6    1  0.5040916E-004  0.3168587E+04  0.7818608E-02  0.8197163E-01
         -2   -1    0    0    0  501 -0.00000000000E+00  0.00000000000E+00  0.12674099897E+04  0.12674099897E+04  0.00000000000E+00 0. -1.
          2   -1    0    0  501    0  0.00000000000E+00 -0.00000000000E+00 -0.19804057821E+04  0.19804057821E+04  0.00000000000E+00 0.  1.
         23    2    1    2    0    0  0.36893579774E+03  0.11142442908E+04  0.73175796195E+03  0.13863734888E+04  0.94381000106E+02 0.  0.
         13    1    3    3    0    0  0.18697707561E+03  0.68266493990E+03  0.40774290639E+03  0.81685134797E+03  0.00000000000E+00 0.  1.
        -13    1    3    3    0    0  0.18195872214E+03  0.43157935090E+03  0.32401505556E+03  0.56952214085E+03  0.00000000000E+00 0. -1.
         22    1    1    2    0    0 -0.36893579774E+03 -0.11142442908E+04 -0.14447537543E+04  0.18614422830E+04  0.00000000000E+00 0.  1.
<mgrwt>
<rscale>  0 0.31685871E+04</rscale>
<asrwt>0</asrwt>
<pdfrwt beam="1">  1        2 0.30467781E+00 0.31685871E+04</pdfrwt>
<pdfrwt beam="2">  1       -2 0.19498615E+00 0.31685871E+04</pdfrwt>
<totfact> 0.83034811E-01</totfact>
</mgrwt>
</event>
<event>
 6    1  0.5040916E-004  0.1129472E+04  0.7818608E-02  0.9176933E-01
         -2   -1    0    0    0  501 -0.00000000000E+00  0.00000000000E+00  0.48414926197E+03  0.48414926197E+03  0.00000000000E+00 0. -1.
          2   -1    0    0  501    0  0.00000000000E+00 -0.00000000000E+00 -0.65873684701E+03  0.65873684701E+03  0.00000000000E+00 0.  1.
         23    2    1    2    0    0 -0.11669921764E+03  0.22326977123E+03 -0.59523229500E+03  0.65256981293E+03  0.89876457400E+02 0.  0.
         11    1    3    3    0    0 -0.16317790967E+02  0.12491627649E+03 -0.25377238441E+03  0.28332096555E+03  0.00000000000E+00 0.  1.
        -11    1    3    3    0    0 -0.10038142667E+03  0.98353494743E+02 -0.34145991060E+03  0.36924884738E+03  0.00000000000E+00 0. -1.
         22    1    1    2    0    0  0.11669921764E+03 -0.22326977123E+03  0.42064470996E+03  0.49031629604E+03  0.00000000000E+00 0. -1.
<mgrwt>
<rscale>  0 0.11294724E+04</rscale>
<asrwt>0</asrwt>
<pdfrwt beam="1">  1        2 0.10134413E+00 0.11294724E+04</pdfrwt>
<pdfrwt beam="2">  1       -2 0.74484501E-01 0.11294724E+04</pdfrwt>
<totfact> 0.71109906E+01</totfact>
</mgrwt>
</event>
<event>
 6    1  0.5040916E-004  0.8911241E+03  0.7818608E-02  0.9436745E-01
          1   -1    0    0  501    0  0.00000000000E+00  0.00000000000E+00  0.12790389656E+04  0.12790389656E+04  0.00000000000E+00 0.  1.
         -1   -1    0    0    0  501 -0.00000000000E+00 -0.00000000000E+00 -0.15521461794E+03  0.15521461794E+03  0.00000000000E+00 0. -1.
         23    2    1    2    0    0  0.16111554842E+03  0.23568672536E+03  0.27842414613E+02  0.30169769087E+03  0.93487133733E+02 0.  0.
         13    1    3    3    0    0  0.12538899989E+03  0.16566031316E+03  0.60766977823E+02  0.21646793353E+03  0.00000000000E+00 0. -1.
        -13    1    3    3    0    0  0.35726548523E+02  0.70026412198E+02 -0.32924563210E+02  0.85229757346E+02  0.00000000000E+00 0.  1.
         22    1    1    2    0    0 -0.16111554842E+03 -0.23568672536E+03  0.10959819330E+04  0.11325558927E+04  0.00000000000E+00 0.  1.
<mgrwt>
<rscale>  0 0.89112411E+03</rscale>
<asrwt>0</asrwt>
<pdfrwt beam="1">  1        1 0.19677522E+00 0.89112411E+03</pdfrwt>
<pdfrwt beam="2">  1       -1 0.23879173E-01 0.89112411E+03</pdfrwt>
<totfact> 0.14294763E+02</totfact>
</mgrwt>
</event>
<event>
 6    1  0.5040916E-004  0.2643889E+04  0.7818608E-02  0.8353444E-01
          2   -1    0    0  501    0  0.00000000000E+00  0.00000000000E+00  0.25123232911E+04  0.25123232911E+04  0.00000000000E+00 0.  1.
         -2   -1    0    0    0  501 -0.00000000000E+00 -0.00000000000E+00 -0.69558626529E+03  0.69558626529E+03  0.00000000000E+00 0. -1.
         23    2    1    2    0    0 -0.58326377133E+03 -0.11834613176E+04  0.97264775375E+03  0.16416196674E+04  0.89967563633E+02 0.  0.
         13    1    3    3    0    0 -0.20737157605E+03 -0.38743026600E+03  0.37388629813E+03  0.57697152919E+03  0.00000000000E+00 0.  1.
        -13    1    3    3    0    0 -0.37589219527E+03 -0.79603105155E+03  0.59876145562E+03  0.10646481382E+04  0.00000000000E+00 0. -1.
         22    1    1    2    0    0  0.58326377133E+03  0.11834613176E+04  0.84408927207E+03  0.15662898890E+04  0.00000000000E+00 0. -1.
<mgrwt>
<rscale>  0 0.26438892E+04</rscale>
<asrwt>0</asrwt>
<pdfrwt beam="1">  1        2 0.38651127E+00 0.26438892E+04</pdfrwt>
<pdfrwt beam="2">  1       -2 0.10701327E+00 0.26438892E+04</pdfrwt>
<totfact> 0.21188332E+00</totfact>
</mgrwt>
</event>
<event>
 6    1  0.5040916E-004  0.2447942E+04  0.7818608E-02  0.8421770E-01
         -2   -1    0    0    0  501 -0.00000000000E+00  0.00000000000E+00  0.69578357618E+03  0.69578357618E+03  0.00000000000E+00 0. -1.
          2   -1    0    0  501    0  0.00000000000E+00 -0.00000000000E+00 -0.21531190888E+04  0.21531190888E+04  0.00000000000E+00 0.  1.
         23    2    1    2    0    0  0.33946688753E+03  0.95238020058E+03 -0.15289406189E+04  0.18352986470E+04  0.91629107804E+02 0.  0.
         11    1    3    3    0    0  0.21584005915E+03  0.63219539682E+03 -0.93131245610E+03  0.11461242698E+04  0.00000000000E+00 0.  1.
        -11    1    3    3    0    0  0.12362682838E+03  0.32018480376E+03 -0.59762816277E+03  0.68917437720E+03  0.00000000000E+00 0. -1.
         22    1    1    2    0    0 -0.33946688753E+03 -0.95238020058E+03  0.71605106200E+02  0.10136040181E+04  0.00000000000E+00 0. -1.
<mgrwt>
<rscale>  0 0.24479419E+04</rscale>
<asrwt>0</asrwt>
<pdfrwt beam="1">  1        2 0.33124909E+00 0.24479419E+04</pdfrwt>
<pdfrwt beam="2">  1       -2 0.10704363E+00 0.24479419E+04</pdfrwt>
<totfact> 0.34484285E+00</totfact>
</mgrwt>
</event>
<event>
 6    1  0.5040916E-004  0.1571496E+04  0.7818608E-02  0.8838253E-01
          2   -1    0    0  501    0  0.00000000000E+00  0.00000000000E+00  0.15359384243E+04  0.15359384243E+04  0.00000000000E+00 0.  1.
         -2   -1    0    0    0  501 -0.00000000000E+00 -0.00000000000E+00 -0.40196908706E+03  0.40196908706E+03  0.00000000000E+00 0. -1.
         23    2    1    2    0    0  0.39996456791E+03 -0.50319300734E+03  0.11205554257E+04  0.12949807727E+04  0.90309918232E+02 0.  0.
         13    1    3    3    0    0  0.23386558418E+03 -0.22470909538E+03  0.58619338623E+03  0.66993281384E+03  0.00000000000E+00 0.  1.
        -13    1    3    3    0    0  0.16609898373E+03 -0.27848391196E+03  0.53436203951E+03  0.62504795887E+03  0.00000000000E+00 0. -1.
         22    1    1    2    0    0 -0.39996456791E+03  0.50319300734E+03  0.13413911488E+02  0.64292673862E+03  0.00000000000E+00 0. -1.
<mgrwt>
<rscale>  0 0.15714958E+04</rscale>
<asrwt>0</asrwt>
<pdfrwt beam="1">  1        2 0.23629822E+00 0.15714958E+04</pdfrwt>
<pdfrwt beam="2">  1       -2 0.61841399E-01 0.15714958E+04</pdfrwt>
<totfact> 0.28275047E+01</totfact>
</mgrwt>
</event>
<event>
 6    1  0.5040916E-004  0.5321961E+04  0.7818608E-02  0.7780674E-01
         -2   -1    0    0    0  501 -0.00000000000E+00  0.00000000000E+00  0.25364912588E+04  0.25364912588E+04  0.00000000000E+00 0. -1.
          2   -1    0    0  501    0  0.00000000000E+00 -0.00000000000E+00 -0.27915791627E+04  0.27915791627E+04  0.00000000000E+00 0.  1.
         23    2    1    2    0    0  0.24238194805E+04 -0.84189134264E+03 -0.83047512743E+03  0.26984787490E+04  0.91742656422E+02 0.  0.
         13    1    3    3    0    0  0.71663840367E+03 -0.22951709955E+03 -0.20425320008E+03  0.77972307285E+03  0.00000000000E+00 0.  1.
        -13    1    3    3    0    0  0.17071810768E+04 -0.61237424310E+03 -0.62622192735E+03  0.19187556762E+04  0.00000000000E+00 0. -1.
         22    1    1    2    0    0 -0.24238194805E+04  0.84189134264E+03  0.57538722352E+03  0.26295916724E+04  0.00000000000E+00 0.  1.
<mgrwt>
<rscale>  0 0.53219606E+04</rscale>
<asrwt>0</asrwt>
<pdfrwt beam="1">  1        2 0.42947372E+00 0.53219606E+04</pdfrwt>
<pdfrwt beam="2">  1       -2 0.39022943E+00 0.53219606E+04</pdfrwt>
<totfact> 0.14280310E-02</totfact>
</mgrwt>
</event>
<event>
 6    1  0.6922993E-004  0.4179202E+04  0.7818608E-02  0.7969340E-01
         -2   -1    0    0    0  501 -0.00000000000E+00  0.00000000000E+00  0.18439309104E+04  0.18439309104E+04  0.00000000000E+00 0. -1.
          2   -1    0    0  501    0  0.00000000000E+00 -0.00000000000E+00 -0.23680022484E+04  0.23680022484E+04  0.00000000000E+00 0.  1.
         23    2    1    2    0    0  0.79383601830E+03  0.16383813478E+04 -0.12935653768E+04  0.22354235736E+04  0.96633870141E+02 0.  0.
         11    1    3    3    0    0  0.48544337942E+03  0.89767765011E+03 -0.70534476619E+03  0.12405610333E+04  0.00000000000E+00 0. -1.
        -11    1    3    3    0    0  0.30839263888E+03  0.74070369768E+03 -0.58822061058E+03  0.99486254035E+03  0.00000000000E+00 0.  1.
         22    1    1    2    0    0 -0.79383601830E+03 -0.16383813478E+04  0.76949403870E+03  0.19765095852E+04  0.00000000000E+00 0. -1.
<mgrwt>
<rscale>  0 0.41792021E+04</rscale>
<asrwt>0</asrwt>
<pdfrwt beam="1">  1        2 0.36430804E+00 0.41792021E+04</pdfrwt>
<pdfrwt beam="2">  1       -2 0.28368168E+00 0.41792021E+04</pdfrwt>
<totfact> 0.12895003E-01</totfact>
</mgrwt>
</event>
<event>
 6    1  0.5040916E-004  0.3968578E+04  0.7818608E-02  0.8010916E-01
          2   -1    0    0  501    0  0.00000000000E+00  0.00000000000E+00  0.22130010880E+04  0.22130010880E+04  0.00000000000E+00 0.  1.
         -2   -1    0    0    0  501 -0.00000000000E+00 -0.00000000000E+00 -0.17792137921E+04  0.17792137921E+04  0.00000000000E+00 0. -1.
         23    2    1    2    0    0  0.29447328211E+03  0.83919632942E+03  0.20002314494E+04  0.21909063892E+04  0.90443140344E+02 0.  0.
         11    1    3    3    0    0  0.17627639807E+03  0.42880706225E+03  0.11341391990E+04  0.12252430729E+04  0.00000000000E+00 0. -1.
        -11    1    3    3    0    0  0.11819688404E+03  0.41038926717E+03  0.86609225046E+03  0.96566331623E+03  0.00000000000E+00 0.  1.
         22    1    1    2    0    0 -0.29447328211E+03 -0.83919632942E+03 -0.15664441535E+04  0.18013084909E+04  0.00000000000E+00 0. -1.
<mgrwt>
<rscale>  0 0.39685776E+04</rscale>
<asrwt>0</asrwt>
<pdfrwt beam="1">  1        2 0.34046171E+00 0.39685776E+04</pdfrwt>
<pdfrwt beam="2">  1       -2 0.27372520E+00 0.39685776E+04</pdfrwt>
<totfact> 0.18470924E-01</totfact>
</mgrwt>
</event>
<event>
 6    1  0.5040916E-004  0.2885648E+04  0.7818608E-02  0.8277160E-01
          2   -1    0    0  501    0  0.00000000000E+00  0.00000000000E+00  0.17920969210E+04  0.17920969210E+04  0.00000000000E+00 0.  1.
         -2   -1    0    0    0  501 -0.00000000000E+00 -0.00000000000E+00 -0.11616230321E+04  0.11616230321E+04  0.00000000000E+00 0. -1.
         23    2    1    2    0    0  0.42050594076E+03 -0.77474111382E+03  0.14829251118E+04  0.17274564712E+04  0.89386424704E+02 0.  0.
         13    1    3    3    0    0  0.27095091782E+03 -0.49701694146E+03  0.10336943445E+04  0.11785432694E+04  0.00000000000E+00 0.  1.
        -13    1    3    3    0    0  0.14955502294E+03 -0.27772417235E+03  0.44923076724E+03  0.54891320173E+03  0.00000000000E+00 0. -1.
         22    1    1    2    0    0 -0.42050594076E+03  0.77474111382E+03 -0.85245122290E+03  0.12262634819E+04  0.00000000000E+00 0. -1.
<mgrwt>
<rscale>  0 0.28856480E+04</rscale>
<asrwt>0</asrwt>
<pdfrwt beam="1">  1        2 0.27570722E+00 0.28856480E+04</pdfrwt>
<pdfrwt beam="2">  1       -2 0.17871124E+00 0.28856480E+04</pdfrwt>
<totfact> 0.13942644E+00</totfact>
</mgrwt>
</event>
<event>
 6    1  0.5040916E-004  0.2028843E+04  0.7818608E-02  0.8593253E-01
          2   -1    0    0  501    0  0.00000000000E+00  0.00000000000E+00  0.59725930349E+03  0.59725930349E+03  0.00000000000E+00 0.  1.
         -2   -1    0    0    0  501 -0.00000000000E+00 -0.00000000000E+00 -0.17229546053E+04  0.17229546053E+04  0.00000000000E+00 0. -1.
         23    2    1    2    0    0 -0.97378152661E+02  0.77386949208E+03  0.17397771952E+03  0.80446113944E+03  0.92374144648E+02 0.  0.
         11    1    3    3    0    0 -0.99882291777E+02  0.61101588591E+03  0.16784014914E+03  0.64147268119E+03  0.00000000000E+00 0.  1.
        -11    1    3    3    0    0  0.25041391159E+01  0.16285360617E+03  0.61375703799E+01  0.16298845825E+03  0.00000000000E+00 0. -1.
         22    1    1    2    0    0  0.97378152661E+02 -0.77386949208E+03 -0.12996730213E+04  0.15157527693E+04  0.00000000000E+00 0. -1.
<mgrwt>
<rscale>  0 0.20288427E+04</rscale>
<asrwt>0</asrwt>
<pdfrwt beam="1">  1        2 0.91886048E-01 0.20288427E+04</pdfrwt>
<pdfrwt beam="2">  1       -2 0.26506994E+00 0.20288427E+04</pdfrwt>
<totfact> 0.24016248E+00</totfact>
</mgrwt>
</event>
<event>
 6    1  0.5040916E-004  0.1607833E+04  0.7818608E-02  0.8815750E-01
         -2   -1    0    0    0  501 -0.00000000000E+00  0.00000000000E+00  0.28447531907E+03  0.28447531907E+03  0.00000000000E+00 0. -1.
          2   -1    0    0  501    0  0.00000000000E+00 -0.00000000000E+00 -0.22718379981E+04  0.22718379981E+04  0.00000000000E+00 0.  1.
         23    2    1    2    0    0  0.38187747052E+03  0.31870876932E+03 -0.19962014242E+04  0.20588358749E+04  0.81113202105E+02 0.  0.
         13    1    3    3    0    0  0.19985411467E+03  0.12927976992E+03 -0.83316637695E+03  0.86649935819E+03  0.00000000000E+00 0.  1.
        -13    1    3    3    0    0  0.18202335585E+03  0.18942899940E+03 -0.11630350473E+04  0.11923365167E+04  0.00000000000E+00 0. -1.
         22    1    1    2    0    0 -0.38187747052E+03 -0.31870876932E+03  0.88387452157E+01  0.49747744225E+03  0.00000000000E+00 0. -1.
<mgrwt>
<rscale>  0 0.16078331E+04</rscale>
<asrwt>0</asrwt>
<pdfrwt beam="1">  1        2 0.34951355E+00 0.16078331E+04</pdfrwt>
<pdfrwt beam="2">  1       -2 0.43765432E-01 0.16078331E+04</pdfrwt>
<totfact> 0.22338633E+01</totfact>
</mgrwt>
</event>
<event>
 6    1  0.5040916E-004  0.1087314E+04  0.7818608E-02  0.9217646E-01
          2   -1    0    0  501    0  0.00000000000E+00  0.00000000000E+00  0.18555164524E+04  0.18555164524E+04  0.00000000000E+00 0.  1.
         -2   -1    0    0    0  501 -0.00000000000E+00 -0.00000000000E+00 -0.15928868111E+03  0.15928868111E+03  0.00000000000E+00 0. -1.
         23    2    1    2    0    0  0.15262977482E+03 -0.13526302691E+03  0.17803093617E+04  0.17942112794E+04  0.90004206849E+02 0.  0.
         11    1    3    3    0    0  0.92047972554E+00 -0.47730602265E+02  0.36961772623E+03  0.37268796764E+03  0.00000000000E+00 0. -1.
        -11    1    3    3    0    0  0.15170929510E+03 -0.87532424641E+02  0.14106916355E+04  0.14215233118E+04  0.00000000000E+00 0.  1.
         22    1    1    2    0    0 -0.15262977482E+03  0.13526302691E+03 -0.84081590412E+02  0.22059385408E+03  0.00000000000E+00 0. -1.
<mgrwt>
<rscale>  0 0.10873137E+04</rscale>
<asrwt>0</asrwt>
<pdfrwt beam="1">  1        2 0.28546406E+00 0.10873137E+04</pdfrwt>
<pdfrwt beam="2">  1       -2 0.24505952E-01 0.10873137E+04</pdfrwt>
<totfact> 0.11891746E+02</totfact>
</mgrwt>
</event>
<event>
 6    1  0.5040916E-004  0.5421061E+03  0.7818608E-02  0.1003338E+00
         -2   -1    0    0    0  501 -0.00000000000E+00  0.00000000000E+00  0.97792914979E+02  0.97792914979E+02  0.00000000000E+00 0. -1.
          2   -1    0    0  501    0  0.00000000000E+00 -0.00000000000E+00 -0.75127884745E+03  0.75127884745E+03  0.00000000000E+00 0.  1.
         23    2    1    2    0    0  0.23647618425E+03 -0.40958977412E+01 -0.15286679412E+03  0.29539560818E+03  0.89177051382E+02 0.  0.
         13    1    3    3    0    0  0.22268866668E+03 -0.26409988536E+02 -0.12345288741E+03  0.25598504873E+03  0.00000000000E+00 0.  1.
        -13    1    3    3    0    0  0.13787517570E+02  0.22314090794E+02 -0.29413906705E+02  0.39410559452E+02  0.00000000000E+00 0. -1.
         22    1    1    2    0    0 -0.23647618425E+03  0.40958977412E+01 -0.50061913835E+03  0.55367615425E+03  0.00000000000E+00 0.  1.
<mgrwt>
<rscale>  0 0.54210607E+03</rscale>
<asrwt>0</asrwt>
<pdfrwt beam="1">  1        2 0.11558136E+00 0.54210607E+03</pdfrwt>
<pdfrwt beam="2">  1       -2 0.15045064E-01 0.54210607E+03</pdfrwt>
<totfact> 0.13087993E+03</totfact>
</mgrwt>
</event>
<event>
 6    1  0.5040916E-004  0.6395402E+04  0.7818608E-02  0.7643221E-01
          2   -1    0    0  501    0  0.00000000000E+00  0.00000000000E+00  0.27905525712E+04  0.27905525712E+04  0.00000000000E+00 0.  1.
         -2   -1    0    0    0  501 -0.00000000000E+00 -0.00000000000E+00 -0.36642530024E+04  0.36642530024E+04  0.00000000000E+00 0. -1.
         23    2    1    2    0    0 -0.23138625671E+04  0.18125185937E+04  0.83246402805E+03  0.30562498812E+04  0.92105085238E+02 0.  0.
         13    1    3    3    0    0 -0.43019460165E+03  0.36340210635E+03  0.12878037297E+03  0.57767886464E+03  0.00000000000E+00 0.  1.
        -13    1    3    3    0    0 -0.18836679655E+04  0.14491164873E+04  0.70368365507E+03  0.24785710166E+04  0.00000000000E+00 0. -1.
         22    1    1    2    0    0  0.23138625671E+04 -0.18125185937E+04 -0.17061644593E+04  0.33985556924E+04  0.00000000000E+00 0. -1.
<mgrwt>
<rscale>  0 0.63954017E+04</rscale>
<asrwt>0</asrwt>
<pdfrwt beam="1">  1        2 0.42931578E+00 0.63954017E+04</pdfrwt>
<pdfrwt beam="2">  1       -2 0.56373124E+00 0.63954017E+04</pdfrwt>
<totfact> 0.11412318E-03</totfact>
</mgrwt>
</event>
<event>
 6    1  0.5040916E-004  0.2589831E+04  0.7818608E-02  0.8371664E-01
          2   -1    0    0  501    0  0.00000000000E+00  0.00000000000E+00  0.25335110824E+04  0.25335110824E+04  0.00000000000E+00 0.  1.
         -2   -1    0    0    0  501 -0.00000000000E+00 -0.00000000000E+00 -0.66185083282E+03  0.66185083282E+03  0.00000000000E+00 0. -1.
         23    2    1    2    0    0  0.99688277563E+03  0.15594053377E+03 -0.60621724687E+02  0.10154980785E+04  0.97306914346E+02 0.  0.
         11    1    3    3    0    0  0.51810310532E+03  0.12639167193E+03 -0.13081144901E+02  0.53345740114E+03  0.00000000000E+00 0. -1.
        -11    1    3    3    0    0  0.47877967031E+03  0.29548861839E+02 -0.47540579786E+02  0.48204067739E+03  0.00000000000E+00 0.  1.
         22    1    1    2    0    0 -0.99688277563E+03 -0.15594053377E+03  0.19322819742E+04  0.21798638366E+04  0.00000000000E+00 0.  1.
<mgrwt>
<rscale>  0 0.25898312E+04</rscale>
<asrwt>0</asrwt>
<pdfrwt beam="1">  1        2 0.38977093E+00 0.25898312E+04</pdfrwt>
<pdfrwt beam="2">  1       -2 0.10182321E+00 0.25898312E+04</pdfrwt>
<totfact> 0.23309313E+00</totfact>
</mgrwt>
</event>
<event>
 6    1  0.5040916E-004  0.1169518E+04  0.7818608E-02  0.9139964E-01
         -2   -1    0    0    0  501 -0.00000000000E+00  0.00000000000E+00  0.12613799261E+03  0.12613799261E+03  0.00000000000E+00 0. -1.
          2   -1    0    0  501    0  0.00000000000E+00 -0.00000000000E+00 -0.27108644958E+04  0.27108644958E+04  0.00000000000E+00 0.  1.
         23    2    1    2    0    0  0.10766834399E+03 -0.56031646626E+03 -0.10343118575E+04  0.11849333046E+04  0.93375066448E+02 0.  0.
         11    1    3    3    0    0  0.48688102605E+02 -0.31014500915E+03 -0.47477671486E+03  0.56918660122E+03  0.00000000000E+00 0.  1.
        -11    1    3    3    0    0  0.58980241387E+02 -0.25017145711E+03 -0.55953514264E+03  0.61574670334E+03  0.00000000000E+00 0. -1.
         22    1    1    2    0    0 -0.10766834399E+03  0.56031646626E+03 -0.15504146456E+04  0.16520691838E+04  0.00000000000E+00 0. -1.
<mgrwt>
<rscale>  0 0.11695179E+04</rscale>
<asrwt>0</asrwt>
<pdfrwt beam="1">  1        2 0.41705606E+00 0.11695179E+04</pdfrwt>
<pdfrwt beam="2">  1       -2 0.19405846E-01 0.11695179E+04</pdfrwt>
<totfact> 0.58897530E+01</totfact>
</mgrwt>
</event>
<event>
 6    1  0.5040916E-004  0.1655414E+04  0.7818608E-02  0.8787210E-01
         -1   -1    0    0    0  501 -0.00000000000E+00  0.00000000000E+00  0.42990661027E+03  0.42990661027E+03  0.00000000000E+00 0. -1.
          1   -1    0    0  501    0  0.00000000000E+00 -0.00000000000E+00 -0.15935994454E+04  0.15935994454E+04  0.00000000000E+00 0.  1.
         23    2    1    2    0    0  0.55300732131E+03  0.57309849259E+03 -0.31986443658E+03  0.86320206713E+03  0.92442259135E+02 0.  0.
         13    1    3    3    0    0  0.18917444295E+03  0.24618849186E+03 -0.15516936620E+03  0.34709260378E+03  0.00000000000E+00 0. -1.
        -13    1    3    3    0    0  0.36383287836E+03  0.32691000073E+03 -0.16469507038E+03  0.51610946335E+03  0.00000000000E+00 0.  1.
         22    1    1    2    0    0 -0.55300732131E+03 -0.57309849259E+03 -0.84382839859E+03  0.11603039886E+04  0.00000000000E+00 0.  1.
<mgrwt>
<rscale>  0 0.16554141E+04</rscale>
<asrwt>0</asrwt>
<pdfrwt beam="1">  1        1 0.24516914E+00 0.16554141E+04</pdfrwt>
<pdfrwt beam="2">  1       -1 0.66139480E-01 0.16554141E+04</pdfrwt>
<totfact> 0.12473174E+01</totfact>
</mgrwt>
</event>
<event>
 6    1  0.5040916E-004  0.1815399E+04  0.7818608E-02  0.8698153E-01
          2   -1    0    0  501    0  0.00000000000E+00  0.00000000000E+00  0.34863922845E+03  0.34863922845E+03  0.00000000000E+00 0.  1.
         -2   -1    0    0    0  501 -0.00000000000E+00 -0.00000000000E+00 -0.23632404094E+04  0.23632404094E+04  0.00000000000E+00 0. -1.
         23    2    1    2    0    0 -0.71341856409E+03 -0.27041703032E+03 -0.17373225498E+04  0.19001069744E+04  0.10012718914E+03 0.  0.
         11    1    3    3    0    0 -0.48429491370E+03 -0.13636839177E+03 -0.11805214074E+04  0.12832648577E+04  0.00000000000E+00 0. -1.
        -11    1    3    3    0    0 -0.22912365039E+03 -0.13404863855E+03 -0.55680114244E+03  0.61684211666E+03  0.00000000000E+00 0.  1.
         22    1    1    2    0    0  0.71341856409E+03  0.27041703032E+03 -0.27727863111E+03  0.81177266347E+03  0.00000000000E+00 0.  1.
<mgrwt>
<rscale>  0 0.18153989E+04</rscale>
<asrwt>0</asrwt>
<pdfrwt beam="1">  1        2 0.53636804E-01 0.18153989E+04</pdfrwt>
<pdfrwt beam="2">  1       -2 0.36357545E+00 0.18153989E+04</pdfrwt>
<totfact> 0.11212463E+00</totfact>
</mgrwt>
</event>
<event>
 6    1  0.5040916E-004  0.3469073E+04  0.7818608E-02  0.8121159E-01
          2   -1    0    0  501    0  0.00000000000E+00  0.00000000000E+00  0.37355308833E+04  0.37355308833E+04  0.00000000000E+00 0.  1.
         -2   -1    0    0    0  501 -0.00000000000E+00 -0.00000000000E+00 -0.80540530110E+03  0.80540530110E+03  0.00000000000E+00 0. -1.
         23    2    1    2    0    0 -0.15432458899E+04 -0.28581764421E+03  0.24288084404E+04  0.28933262550E+04  0.94481615033E+02 0.  0.
         11    1    3    3    0    0 -0.69150893688E+03 -0.16887966711E+03  0.11453743281E+04  0.13485500744E+04  0.00000000000E+00 0.  1.
        -11    1    3    3    0    0 -0.85173695304E+03 -0.11693797710E+03  0.12834341122E+04  0.15447761806E+04  0.00000000000E+00 0. -1.
         22    1    1    2    0    0  0.15432458899E+04  0.28581764421E+03  0.50131714179E+03  0.16476099293E+04  0.00000000000E+00 0. -1.
<mgrwt>
<rscale>  0 0.34690727E+04</rscale>
<asrwt>0</asrwt>
<pdfrwt beam="1">  1        2 0.57469705E+00 0.34690727E+04</pdfrwt>
<pdfrwt beam="2">  1       -2 0.12390851E+00 0.34690727E+04</pdfrwt>
<totfact> 0.22133495E-01</totfact>
</mgrwt>
</event>
<event>
 6    1  0.7004869E-004  0.2811081E+04  0.7818608E-02  0.8299836E-01
          2   -1    0    0  501    0  0.00000000000E+00  0.00000000000E+00  0.13913672799E+04  0.13913672799E+04  0.00000000000E+00 0.  1.
         -2   -1    0    0    0  501 -0.00000000000E+00 -0.00000000000E+00 -0.14198579447E+04  0.14198579447E+04  0.00000000000E+00 0. -1.
         23    2    1    2    0    0  0.13583750236E+04  0.32483860393E+03 -0.15858149024E+03  0.14085041383E+04  0.89626978655E+02 0.  0.
         13    1    3    3    0    0  0.10087892658E+04  0.20121655111E+03 -0.10961807271E+03  0.10344853818E+04  0.00000000000E+00 0. -1.
        -13    1    3    3    0    0  0.34958575772E+03  0.12362205281E+03 -0.48963417534E+02  0.37401875648E+03  0.00000000000E+00 0.  1.
         22    1    1    2    0    0 -0.13583750236E+04 -0.32483860393E+03  0.13009082541E+03  0.14027210864E+04  0.00000000000E+00 0.  1.
<mgrwt>
<rscale>  0 0.28110809E+04</rscale>
<asrwt>0</asrwt>
<pdfrwt beam="1">  1        2 0.21405650E+00 0.28110809E+04</pdfrwt>
<pdfrwt beam="2">  1       -2 0.21843968E+00 0.28110809E+04</pdfrwt>
<totfact> 0.12867119E+00</totfact>
</mgrwt>
</event>
<event>
 6    1  0.5040916E-004  0.3026657E+04  0.7818608E-02  0.8236160E-01
         -1   -1    0    0    0  501 -0.00000000000E+00  0.00000000000E+00  0.12727797966E+04  0.12727797966E+04  0.00000000000E+00 0.  1.
          1   -1    0    0  501    0  0.00000000000E+00 -0.00000000000E+00 -0.17993391995E+04  0.17993391995E+04  0.00000000000E+00 0. -1.
         23    2    1    2    0    0  0.26761664941E+03  0.14636675494E+04 -0.53549216774E+03  0.15841602734E+04  0.94183564492E+02 0.  0.
         11    1    3    3    0    0  0.55722891913E+02  0.50343109718E+03 -0.15379420894E+03  0.52933974817E+03  0.00000000000E+00 0. -1.
        -11    1    3    3    0    0  0.21189375750E+03  0.96023645224E+03 -0.38169795880E+03  0.10548205252E+04  0.00000000000E+00 0.  1.
         22    1    1    2    0    0 -0.26761664941E+03 -0.14636675494E+04  0.89327648303E+01  0.14879587227E+04  0.00000000000E+00 0.  1.
<mgrwt>
<rscale>  0 0.30266566E+04</rscale>
<asrwt>0</asrwt>
<pdfrwt beam="1">  1        1 0.27682142E+00 0.30266566E+04</pdfrwt>
<pdfrwt beam="2">  1       -1 0.19581228E+00 0.30266566E+04</pdfrwt>
<totfact> 0.55724255E-01</totfact>
</mgrwt>
</event>
<event>
 6    1  0.5040916E-004  0.1371195E+04  0.7818608E-02  0.8974937E-01
          2   -1    0    0  501    0  0.00000000000E+00  0.00000000000E+00  0.72488082780E+03  0.72488082780E+03  0.00000000000E+00 0.  1.
         -2   -1    0    0    0  501 -0.00000000000E+00 -0.00000000000E+00 -0.64844286517E+03  0.64844286517E+03  0.00000000000E+00 0. -1.
         23    2    1    2    0    0 -0.12128486001E+03  0.49474636835E+03 -0.41701033436E+03  0.66411624231E+03  0.87571559771E+02 0.  0.
         13    1    3    3    0    0 -0.57899581928E+02  0.28455861488E+03 -0.18297653344E+03  0.34322933832E+03  0.00000000000E+00 0.  1.
        -13    1    3    3    0    0 -0.63385278077E+02  0.21018775347E+03 -0.23403380092E+03  0.32088690400E+03  0.00000000000E+00 0. -1.
         22    1    1    2    0    0  0.12128486001E+03 -0.49474636835E+03  0.49344829699E+03  0.70920745066E+03  0.00000000000E+00 0.  1.
<mgrwt>
<rscale>  0 0.13711948E+04</rscale>
<asrwt>0</asrwt>
<pdfrwt beam="1">  1        2 0.11152013E+00 0.13711948E+04</pdfrwt>
<pdfrwt beam="2">  1       -2 0.99760441E-01 0.13711948E+04</pdfrwt>
<totfact> 0.31757238E+01</totfact>
</mgrwt>
</event>
<event>
 6    1  0.5040916E-004  0.1410975E+04  0.7818608E-02  0.8945913E-01
         -2   -1    0    0    0  501 -0.00000000000E+00  0.00000000000E+00  0.37799298786E+03  0.37799298786E+03  0.00000000000E+00 0. -1.
          2   -1    0    0  501    0  0.00000000000E+00 -0.00000000000E+00 -0.13167239034E+04  0.13167239034E+04  0.00000000000E+00 0.  1.
         23    2    1    2    0    0 -0.56114195117E+02  0.11854647354E+03 -0.13003025533E+04  0.13100922449E+04  0.91394151101E+02 0.  0.
         13    1    3    3    0    0 -0.29452724725E+02 -0.66061883653E+01 -0.33243156598E+03  0.33379911740E+03  0.00000000000E+00 0. -1.
        -13    1    3    3    0    0 -0.26661470391E+02  0.12515266191E+03 -0.96787098732E+03  0.97629312754E+03  0.00000000000E+00 0.  1.
         22    1    1    2    0    0  0.56114195117E+02 -0.11854647354E+03  0.36157163778E+03  0.38462464629E+03  0.00000000000E+00 0. -1.
<mgrwt>
<rscale>  0 0.14109747E+04</rscale>
<asrwt>0</asrwt>
<pdfrwt beam="1">  1        2 0.20257291E+00 0.14109747E+04</pdfrwt>
<pdfrwt beam="2">  1       -2 0.58152766E-01 0.14109747E+04</pdfrwt>
<totfact> 0.43488887E+01</totfact>
</mgrwt>
</event>
<event>
 6    1  0.5040916E-004  0.4825081E+03  0.7818608E-02  0.1018448E+00
          2   -1    0    0  501    0  0.00000000000E+00  0.00000000000E+00  0.42323243950E+02  0.42323243950E+02  0.00000000000E+00 0.  1.
         -2   -1    0    0    0  501 -0.00000000000E+00 -0.00000000000E+00 -0.13752139353E+04  0.13752139353E+04  0.00000000000E+00 0. -1.
         23    2    1    2    0    0  0.78010305878E+02  0.21187308107E+03 -0.85529474911E+03  0.88926291870E+03  0.91014396839E+02 0.  0.
         11    1    3    3    0    0  0.59200492176E+02  0.65424825982E+02 -0.21996203289E+03  0.23699873848E+03  0.00000000000E+00 0.  1.
        -11    1    3    3    0    0  0.18809813702E+02  0.14644825509E+03 -0.63533271621E+03  0.65226418022E+03  0.00000000000E+00 0. -1.
         22    1    1    2    0    0 -0.78010305878E+02 -0.21187308107E+03 -0.47759594224E+03  0.52827426054E+03  0.00000000000E+00 0.  1.
<mgrwt>
<rscale>  0 0.48250809E+03</rscale>
<asrwt>0</asrwt>
<pdfrwt beam="1">  1        2 0.65112683E-02 0.48250809E+03</pdfrwt>
<pdfrwt beam="2">  1       -2 0.21157137E+00 0.48250809E+03</pdfrwt>
<totfact> 0.13417954E+02</totfact>
</mgrwt>
</event>
<event>
 6    1  0.5040916E-004  0.1551206E+04  0.7818608E-02  0.8851098E-01
         -2   -1    0    0    0  501 -0.00000000000E+00  0.00000000000E+00  0.29574137948E+03  0.29574137948E+03  0.00000000000E+00 0. -1.
          2   -1    0    0  501    0  0.00000000000E+00 -0.00000000000E+00 -0.20340738632E+04  0.20340738632E+04  0.00000000000E+00 0.  1.
         23    2    1    2    0    0  0.27203998944E+03 -0.39773476648E+03  0.35391316971E+02  0.49180141753E+03  0.91746327699E+02 0.  0.
         11    1    3    3    0    0  0.10172631135E+03 -0.15440734984E+03 -0.30936952047E+02  0.18747524399E+03  0.00000000000E+00 0.  1.
        -11    1    3    3    0    0  0.17031367808E+03 -0.24332741664E+03  0.66328269019E+02  0.30432617354E+03  0.00000000000E+00 0. -1.
         22    1    1    2    0    0 -0.27203998944E+03  0.39773476648E+03 -0.17737238007E+04  0.18380138252E+04  0.00000000000E+00 0.  1.
<mgrwt>
<rscale>  0 0.15512057E+04</rscale>
<asrwt>0</asrwt>
<pdfrwt beam="1">  1        2 0.31293443E+00 0.15512057E+04</pdfrwt>
<pdfrwt beam="2">  1       -2 0.45498676E-01 0.15512057E+04</pdfrwt>
<totfact> 0.28208419E+01</totfact>
</mgrwt>
</event>
<event>
 6    1  0.5040916E-004  0.2530451E+04  0.7818608E-02  0.8392217E-01
          2   -1    0    0  501    0  0.00000000000E+00  0.00000000000E+00  0.12606621115E+04  0.12606621115E+04  0.00000000000E+00 0.  1.
         -2   -1    0    0    0  501 -0.00000000000E+00 -0.00000000000E+00 -0.12698050891E+04  0.12698050891E+04  0.00000000000E+00 0. -1.
         23    2    1    2    0    0  0.87929850952E+03 -0.88582593524E+03 -0.20160553265E+03  0.12675755618E+04  0.90827076194E+02 0.  0.
         11    1    3    3    0    0  0.20922904849E+03 -0.17149534106E+03 -0.69247734848E+02  0.27925381916E+03  0.00000000000E+00 0.  1.
        -11    1    3    3    0    0  0.67006946104E+03 -0.71433059418E+03 -0.13235779780E+03  0.98832174267E+03  0.00000000000E+00 0. -1.
         22    1    1    2    0    0 -0.87929850952E+03  0.88582593524E+03  0.19246255504E+03  0.12628916389E+04  0.00000000000E+00 0. -1.
<mgrwt>
<rscale>  0 0.25304507E+04</rscale>
<asrwt>0</asrwt>
<pdfrwt beam="1">  1        2 0.19394802E+00 0.25304507E+04</pdfrwt>
<pdfrwt beam="2">  1       -2 0.19535463E+00 0.25304507E+04</pdfrwt>
<totfact> 0.22138934E+00</totfact>
</mgrwt>
</event>
<event>
 6    1  0.5040916E-004  0.3419785E+04  0.7818608E-02  0.8133067E-01
         -2   -1    0    0    0  501 -0.00000000000E+00  0.00000000000E+00  0.11332588032E+04  0.11332588032E+04  0.00000000000E+00 0. -1.
          2   -1    0    0  501    0  0.00000000000E+00 -0.00000000000E+00 -0.25799341267E+04  0.25799341267E+04  0.00000000000E+00 0.  1.
         23    2    1    2    0    0  0.12824800632E+04 -0.10827763616E+03 -0.19441275065E+04  0.23333603918E+04  0.91977157419E+02 0.  0.
         13    1    3    3    0    0  0.76923620339E+03 -0.62132210656E+02 -0.10834062762E+04  0.13301706310E+04  0.00000000000E+00 0. -1.
        -13    1    3    3    0    0  0.51324385981E+03 -0.46145425506E+02 -0.86072123027E+03  0.10031897608E+04  0.00000000000E+00 0.  1.
         22    1    1    2    0    0 -0.12824800632E+04  0.10827763616E+03  0.49745218294E+03  0.13798325381E+04  0.00000000000E+00 0. -1.
<mgrwt>
<rscale>  0 0.34197854E+04</rscale>
<asrwt>0</asrwt>
<pdfrwt beam="1">  1        2 0.39691294E+00 0.34197854E+04</pdfrwt>
<pdfrwt beam="2">  1       -2 0.17434751E+00 0.34197854E+04</pdfrwt>
<totfact> 0.51343712E-01</totfact>
</mgrwt>
</event>
<event>
 6    1  0.5040916E-004  0.7734108E+03  0.7818608E-02  0.9599322E-01
         -2   -1    0    0    0  501 -0.00000000000E+00  0.00000000000E+00  0.40436780293E+03  0.40436780293E+03  0.00000000000E+00 0. -1.
          2   -1    0    0  501    0  0.00000000000E+00 -0.00000000000E+00 -0.36981442913E+03  0.36981442913E+03  0.00000000000E+00 0.  1.
         23    2    1    2    0    0  0.34039265400E+03  0.83798594666E+02  0.16732842485E+03  0.39932415553E+03  0.92583022543E+02 0.  0.
         13    1    3    3    0    0  0.16500567503E+03  0.75677033071E+02  0.50476406294E+02  0.18841909065E+03  0.00000000000E+00 0.  1.
        -13    1    3    3    0    0  0.17538697896E+03  0.81215615949E+01  0.11685201855E+03  0.21090506488E+03  0.00000000000E+00 0. -1.
         22    1    1    2    0    0 -0.34039265400E+03 -0.83798594666E+02 -0.13277505105E+03  0.37485807654E+03  0.00000000000E+00 0.  1.
<mgrwt>
<rscale>  0 0.77341075E+03</rscale>
<asrwt>0</asrwt>
<pdfrwt beam="1">  1        2 0.56894528E-01 0.77341075E+03</pdfrwt>
<pdfrwt beam="2">  1       -2 0.62210431E-01 0.77341075E+03</pdfrwt>
<totfact> 0.21009110E+02</totfact>
</mgrwt>
</event>
<event>
 6    1  0.5040916E-004  0.1297331E+04  0.7818608E-02  0.9031684E-01
         -2   -1    0    0    0  501 -0.00000000000E+00  0.00000000000E+00  0.99067229462E+03  0.99067229462E+03  0.00000000000E+00 0.  1.
          2   -1    0    0  501    0  0.00000000000E+00 -0.00000000000E+00 -0.42472888681E+03  0.42472888681E+03  0.00000000000E+00 0. -1.
         23    2    1    2    0    0 -0.64804311615E+02 -0.56983150247E+03  0.60807101101E+03  0.84035137927E+03  0.86790242624E+02 0.  0.
         11    1    3    3    0    0 -0.24692001182E+02 -0.29695911316E+03  0.25408590826E+03  0.39160446702E+03  0.00000000000E+00 0.  1.
        -11    1    3    3    0    0 -0.40112310433E+02 -0.27287238930E+03  0.35398510275E+03  0.44874691226E+03  0.00000000000E+00 0. -1.
         22    1    1    2    0    0  0.64804311615E+02  0.56983150247E+03 -0.42127603191E+02  0.57504980215E+03  0.00000000000E+00 0. -1.
<mgrwt>
<rscale>  0 0.12973313E+04</rscale>
<asrwt>0</asrwt>
<pdfrwt beam="1">  1        2 0.65342906E-01 0.12973313E+04</pdfrwt>
<pdfrwt beam="2">  1       -2 0.15241112E+00 0.12973313E+04</pdfrwt>
<totfact> 0.20893547E+01</totfact>
</mgrwt>
</event>
<event>
 6    1  0.5040916E-004  0.2857702E+04  0.7818608E-02  0.8285575E-01
         -2   -1    0    0    0  501 -0.00000000000E+00  0.00000000000E+00  0.90240433121E+03  0.90240433121E+03  0.00000000000E+00 0. -1.
          2   -1    0    0  501    0  0.00000000000E+00 -0.00000000000E+00 -0.22624176145E+04  0.22624176145E+04  0.00000000000E+00 0.  1.
         23    2    1    2    0    0 -0.18947571648E+02  0.13813804249E+04 -0.10785207177E+04  0.17549251575E+04  0.89355924678E+02 0.  0.
         13    1    3    3    0    0 -0.47598611900E+02  0.63011973337E+03 -0.51988336990E+03  0.81828798386E+03  0.00000000000E+00 0. -1.
        -13    1    3    3    0    0  0.28651040252E+02  0.75126069154E+03 -0.55863734776E+03  0.93663717366E+03  0.00000000000E+00 0.  1.
         22    1    1    2    0    0  0.18947571648E+02 -0.13813804249E+04 -0.28149256561E+03  0.14098967882E+04  0.00000000000E+00 0. -1.
<mgrwt>
<rscale>  0 0.28577022E+04</rscale>
<asrwt>0</asrwt>
<pdfrwt beam="1">  1        2 0.34806425E+00 0.28577022E+04</pdfrwt>
<pdfrwt beam="2">  1       -2 0.13883144E+00 0.28577022E+04</pdfrwt>
<totfact> 0.15135778E+00</totfact>
</mgrwt>
</event>
<event>
 6    1  0.5040916E-004  0.2400716E+04  0.7818608E-02  0.8439235E-01
          2   -1    0    0  501    0  0.00000000000E+00  0.00000000000E+00  0.13424801549E+04  0.13424801549E+04  0.00000000000E+00 0.  1.
         -2   -1    0    0    0  501 -0.00000000000E+00 -0.00000000000E+00 -0.10732817786E+04  0.10732817786E+04  0.00000000000E+00 0. -1.
         23    2    1    2    0    0  0.66618493397E+02  0.11428268228E+04 -0.22259423712E+03  0.11698280888E+04  0.91969518818E+02 0.  0.
         11    1    3    3    0    0  0.84740989429E+02  0.68812581613E+03 -0.12810076684E+03  0.70505884901E+03  0.00000000000E+00 0.  1.
        -11    1    3    3    0    0 -0.18122496033E+02  0.45470100672E+03 -0.94493470279E+02  0.46476923983E+03  0.00000000000E+00 0. -1.
         22    1    1    2    0    0 -0.66618493397E+02 -0.11428268228E+04  0.49179261339E+03  0.12459338447E+04  0.00000000000E+00 0.  1.
<mgrwt>
<rscale>  0 0.24007161E+04</rscale>
<asrwt>0</asrwt>
<pdfrwt beam="1">  1        2 0.20653541E+00 0.24007161E+04</pdfrwt>
<pdfrwt beam="2">  1       -2 0.16512027E+00 0.24007161E+04</pdfrwt>
<totfact> 0.32450510E+00</totfact>
</mgrwt>
</event>
<event>
 6    1  0.5040916E-004  0.1890308E+04  0.7818608E-02  0.8659696E-01
          2   -1    0    0  501    0  0.00000000000E+00  0.00000000000E+00  0.14106098411E+04  0.14106098411E+04  0.00000000000E+00 0.  1.
         -2   -1    0    0    0  501 -0.00000000000E+00 -0.00000000000E+00 -0.63328366226E+03  0.63328366226E+03  0.00000000000E+00 0. -1.
         23    2    1    2    0    0 -0.60248112553E+03  0.36624216315E+02  0.11728622102E+04  0.13222470581E+04  0.91687941988E+02 0.  0.
         13    1    3    3    0    0 -0.19852750122E+03  0.25126059824E+02  0.48170101841E+03  0.52161322717E+03  0.00000000000E+00 0.  1.
        -13    1    3    3    0    0 -0.40395362431E+03  0.11498156492E+02  0.69116119180E+03  0.80063383094E+03  0.00000000000E+00 0. -1.
         22    1    1    2    0    0  0.60248112553E+03 -0.36624216315E+02 -0.39553603136E+03  0.72164644525E+03  0.00000000000E+00 0. -1.
<mgrwt>
<rscale>  0 0.18903081E+04</rscale>
<asrwt>0</asrwt>
<pdfrwt beam="1">  1        2 0.21701690E+00 0.18903081E+04</pdfrwt>
<pdfrwt beam="2">  1       -2 0.97428256E-01 0.18903081E+04</pdfrwt>
<totfact> 0.11750080E+01</totfact>
</mgrwt>
</event>
<event>
 6    1  0.5040916E-004  0.1017914E+04  0.7818608E-02  0.9289112E-01
          2   -1    0    0  501    0  0.00000000000E+00  0.00000000000E+00  0.13863495759E+04  0.13863495759E+04  0.00000000000E+00 0.  1.
         -2   -1    0    0    0  501 -0.00000000000E+00 -0.00000000000E+00 -0.18684842070E+03  0.18684842070E+03  0.00000000000E+00 0. -1.
         23    2    1    2    0    0  0.29090156245E+03  0.39757759065E+03  0.43390573121E+03  0.66279807741E+03  0.91298675898E+02 0.  0.
         11    1    3    3    0    0  0.52193115384E+02  0.33036189550E+02  0.30080966395E+02  0.68704990013E+02  0.00000000000E+00 0. -1.
        -11    1    3    3    0    0  0.23870844707E+03  0.36454140110E+03  0.40382476481E+03  0.59409308740E+03  0.00000000000E+00 0.  1.
         22    1    1    2    0    0 -0.29090156245E+03 -0.39757759065E+03  0.76559542395E+03  0.91039991915E+03  0.00000000000E+00 0.  1.
<mgrwt>
<rscale>  0 0.10179140E+04</rscale>
<asrwt>0</asrwt>
<pdfrwt beam="1">  1        2 0.21328454E+00 0.10179140E+04</pdfrwt>
<pdfrwt beam="2">  1       -2 0.28745912E-01 0.10179140E+04</pdfrwt>
<totfact> 0.16297922E+02</totfact>
</mgrwt>
</event>
<event>
 6    1  0.5040916E-004  0.1309846E+04  0.7818608E-02  0.9021793E-01
          2   -1    0    0  501    0  0.00000000000E+00  0.00000000000E+00  0.10148422306E+04  0.10148422306E+04  0.00000000000E+00 0.  1.
         -2   -1    0    0    0  501 -0.00000000000E+00 -0.00000000000E+00 -0.42265106598E+03  0.42265106598E+03  0.00000000000E+00 0. -1.
         23    2    1    2    0    0  0.93609954067E+02  0.24865698471E+03  0.95069265594E+03  0.99126864598E+03  0.90575288558E+02 0.  0.
         13    1    3    3    0    0  0.47313155359E+02  0.91405343213E+02  0.22701732668E+03  0.24925957965E+03  0.00000000000E+00 0. -1.
        -13    1    3    3    0    0  0.46296798707E+02  0.15725164150E+03  0.72367532926E+03  0.74200906632E+03  0.00000000000E+00 0.  1.
         22    1    1    2    0    0 -0.93609954067E+02 -0.24865698471E+03 -0.35850149131E+03  0.44622465061E+03  0.00000000000E+00 0. -1.
<mgrwt>
<rscale>  0 0.13098460E+04</rscale>
<asrwt>0</asrwt>
<pdfrwt beam="1">  1        2 0.15612957E+00 0.13098460E+04</pdfrwt>
<pdfrwt beam="2">  1       -2 0.65023241E-01 0.13098460E+04</pdfrwt>
<totfact> 0.52664677E+01</totfact>
</mgrwt>
</event>
<event>
 6    1  0.5040916E-004  0.4136483E+04  0.7818608E-02  0.7977566E-01
         -2   -1    0    0    0  501 -0.00000000000E+00  0.00000000000E+00  0.15583880499E+04  0.15583880499E+04  0.00000000000E+00 0. -1.
          2   -1    0    0  501    0  0.00000000000E+00 -0.00000000000E+00 -0.27449022226E+04  0.27449022226E+04  0.00000000000E+00 0.  1.
         23    2    1    2    0    0 -0.20161432588E+04  0.22774579503E+03 -0.18237396407E+03  0.20394441324E+04  0.96800409516E+02 0.  0.
         11    1    3    3    0    0 -0.12374961924E+04  0.10765661770E+03 -0.14643362963E+03  0.12507715945E+04  0.00000000000E+00 0.  1.
        -11    1    3    3    0    0 -0.77864706640E+03  0.12008917733E+03 -0.35940334438E+02  0.78867253798E+03  0.00000000000E+00 0. -1.
         22    1    1    2    0    0  0.20161432588E+04 -0.22774579503E+03 -0.10041402087E+04  0.22638461401E+04  0.00000000000E+00 0.  1.
<mgrwt>
<rscale>  0 0.41364830E+04</rscale>
<asrwt>0</asrwt>
<pdfrwt beam="1">  1        2 0.42229265E+00 0.41364830E+04</pdfrwt>
<pdfrwt beam="2">  1       -2 0.23975201E+00 0.41364830E+04</pdfrwt>
<totfact> 0.14475983E-01</totfact>
</mgrwt>
</event>
<event>
 6    1  0.5040916E-004  0.1409346E+04  0.7818608E-02  0.8947081E-01
         -2   -1    0    0    0  501 -0.00000000000E+00  0.00000000000E+00  0.29640549309E+03  0.29640549309E+03  0.00000000000E+00 0. -1.
          2   -1    0    0  501    0  0.00000000000E+00 -0.00000000000E+00 -0.16752870934E+04  0.16752870934E+04  0.00000000000E+00 0.  1.
         23    2    1    2    0    0 -0.49236901304E+03  0.45460383331E+03 -0.98673989959E+03  0.11952474798E+04  0.76609518024E+02 0.  0.
         11    1    3    3    0    0 -0.30275561210E+03  0.32091245150E+03 -0.68154406816E+03  0.81187935004E+03  0.00000000000E+00 0. -1.
        -11    1    3    3    0    0 -0.18961340094E+03  0.13369138182E+03 -0.30519583143E+03  0.38336812975E+03  0.00000000000E+00 0.  1.
         22    1    1    2    0    0  0.49236901304E+03 -0.45460383331E+03 -0.39214170071E+03  0.77644510669E+03  0.00000000000E+00 0. -1.
<mgrwt>
<rscale>  0 0.14093464E+04</rscale>
<asrwt>0</asrwt>
<pdfrwt beam="1">  1        2 0.25773647E+00 0.14093464E+04</pdfrwt>
<pdfrwt beam="2">  1       -2 0.45600846E-01 0.14093464E+04</pdfrwt>
<totfact> 0.44893001E+01</totfact>
</mgrwt>
</event>
<event>
 6    1  0.5040916E-004  0.4252435E+04  0.7818608E-02  0.7955472E-01
         -2   -1    0    0    0  501 -0.00000000000E+00  0.00000000000E+00  0.18134192593E+04  0.18134192593E+04  0.00000000000E+00 0. -1.
          2   -1    0    0  501    0  0.00000000000E+00 -0.00000000000E+00 -0.24929700875E+04  0.24929700875E+04  0.00000000000E+00 0.  1.
         23    2    1    2    0    0  0.54391207104E+03  0.64913180159E+03 -0.23139002657E+04  0.24656529396E+04  0.89986342430E+02 0.  0.
         11    1    3    3    0    0  0.15289363337E+03  0.12358521928E+03 -0.53151716045E+03  0.56671003291E+03  0.00000000000E+00 0. -1.
        -11    1    3    3    0    0  0.39101843767E+03  0.52554658231E+03 -0.17823831053E+04  0.18989429067E+04  0.00000000000E+00 0.  1.
         22    1    1    2    0    0 -0.54391207104E+03 -0.64913180159E+03  0.16343494375E+04  0.18407364072E+04  0.00000000000E+00 0. -1.
<mgrwt>
<rscale>  0 0.42524346E+04</rscale>
<asrwt>0</asrwt>
<pdfrwt beam="1">  1        2 0.38353386E+00 0.42524346E+04</pdfrwt>
<pdfrwt beam="2">  1       -2 0.27898758E+00 0.42524346E+04</pdfrwt>
<totfact> 0.11602798E-01</totfact>
</mgrwt>
</event>
<event>
 6    1  0.5040916E-004  0.4379612E+04  0.7818608E-02  0.7932059E-01
          2   -1    0    0  501    0  0.00000000000E+00  0.00000000000E+00  0.34693293253E+04  0.34693293253E+04  0.00000000000E+00 0.  1.
         -2   -1    0    0    0  501 -0.00000000000E+00 -0.00000000000E+00 -0.13821834934E+04  0.13821834934E+04  0.00000000000E+00 0. -1.
         23    2    1    2    0    0  0.14412763184E+04 -0.37690771522E+03  0.28198094671E+04  0.31913523282E+04  0.11860607221E+03 0.  0.
         11    1    3    3    0    0  0.92589006508E+03 -0.29525053641E+03  0.17839124619E+04  0.20314499658E+04  0.00000000000E+00 0. -1.
        -11    1    3    3    0    0  0.51538625329E+03 -0.81657178813E+02  0.10358970052E+04  0.11599023624E+04  0.00000000000E+00 0.  1.
         22    1    1    2    0    0 -0.14412763184E+04  0.37690771522E+03 -0.73266363519E+03  0.16601604904E+04  0.00000000000E+00 0. -1.
<mgrwt>
<rscale>  0 0.43796117E+04</rscale>
<asrwt>0</asrwt>
<pdfrwt beam="1">  1        2 0.53374297E+00 0.43796117E+04</pdfrwt>
<pdfrwt beam="2">  1       -2 0.21264362E+00 0.43796117E+04</pdfrwt>
<totfact> 0.71823704E-02</totfact>
</mgrwt>
</event>
<event>
 6    1  0.5040916E-004  0.1518012E+04  0.7818608E-02  0.8872562E-01
         -2   -1    0    0    0  501 -0.00000000000E+00  0.00000000000E+00  0.41513407087E+03  0.41513407087E+03  0.00000000000E+00 0.  1.
          2   -1    0    0  501    0  0.00000000000E+00 -0.00000000000E+00 -0.13877213817E+04  0.13877213817E+04  0.00000000000E+00 0. -1.
         23    2    1    2    0    0  0.71526149149E+03 -0.14414341409E+03 -0.71929729285E+03  0.10305005094E+04  0.11030131178E+03 0.  0.
         13    1    3    3    0    0  0.53181268295E+03 -0.57880244854E+02 -0.50930900404E+03  0.73862745284E+03  0.00000000000E+00 0.  1.
        -13    1    3    3    0    0  0.18344880854E+03 -0.86263169233E+02 -0.20998828881E+03  0.29187305658E+03  0.00000000000E+00 0. -1.
         22    1    1    2    0    0 -0.71526149149E+03  0.14414341409E+03 -0.25329001800E+03  0.77235494317E+03  0.00000000000E+00 0.  1.
<mgrwt>
<rscale>  0 0.15180124E+04</rscale>
<asrwt>0</asrwt>
<pdfrwt beam="1">  1        2 0.21349560E+00 0.15180124E+04</pdfrwt>
<pdfrwt beam="2">  1       -2 0.63866780E-01 0.15180124E+04</pdfrwt>
<totfact> 0.32171656E+01</totfact>
</mgrwt>
</event>
<event>
 6    1  0.7061194E-004  0.3781058E+04  0.7818608E-02  0.8050232E-01
         -2   -1    0    0    0  501 -0.00000000000E+00  0.00000000000E+00  0.18625986656E+04  0.18625986656E+04  0.00000000000E+00 0. -1.
          2   -1    0    0  501    0  0.00000000000E+00 -0.00000000000E+00 -0.19188786154E+04  0.19188786154E+04  0.00000000000E+00 0.  1.
         23    2    1    2    0    0 -0.11222936058E+04 -0.13016196624E+04 -0.81320696766E+03  0.19035275496E+04  0.91405014406E+02 0.  0.
         11    1    3    3    0    0 -0.62498811800E+03 -0.65694990593E+03 -0.44040875491E+03  0.10080442440E+04  0.00000000000E+00 0.  1.
        -11    1    3    3    0    0 -0.49730548782E+03 -0.64466975645E+03 -0.37279821275E+03  0.89548330556E+03  0.00000000000E+00 0. -1.
         22    1    1    2    0    0  0.11222936058E+04  0.13016196624E+04  0.75692701786E+03  0.18779497314E+04  0.00000000000E+00 0.  1.
<mgrwt>
<rscale>  0 0.37810584E+04</rscale>
<asrwt>0</asrwt>
<pdfrwt beam="1">  1        2 0.29521209E+00 0.37810584E+04</pdfrwt>
<pdfrwt beam="2">  1       -2 0.28655364E+00 0.37810584E+04</pdfrwt>
<totfact> 0.22862686E-01</totfact>
</mgrwt>
</event>
<event>
 6    1  0.5040916E-004  0.1379785E+04  0.7818608E-02  0.8968583E-01
          1   -1    0    0  501    0  0.00000000000E+00  0.00000000000E+00  0.13685883568E+04  0.13685883568E+04  0.00000000000E+00 0.  1.
         -1   -1    0    0    0  501 -0.00000000000E+00 -0.00000000000E+00 -0.34776811940E+03  0.34776811940E+03  0.00000000000E+00 0. -1.
         23    2    1    2    0    0  0.33678786530E+03 -0.23737197979E+03  0.11961511066E+04  0.12685703256E+04  0.93389925469E+02 0.  0.
         11    1    3    3    0    0  0.38289916693E+02 -0.65195562576E+00  0.16239761945E+03  0.16685181919E+03  0.00000000000E+00 0.  1.
        -11    1    3    3    0    0  0.29849794860E+03 -0.23672002417E+03  0.10337534871E+04  0.11017185064E+04  0.00000000000E+00 0. -1.
         22    1    1    2    0    0 -0.33678786530E+03  0.23737197979E+03 -0.17533086917E+03  0.44778615062E+03  0.00000000000E+00 0. -1.
<mgrwt>
<rscale>  0 0.13797846E+04</rscale>
<asrwt>0</asrwt>
<pdfrwt beam="1">  1        1 0.21055205E+00 0.13797846E+04</pdfrwt>
<pdfrwt beam="2">  1       -1 0.53502788E-01 0.13797846E+04</pdfrwt>
<totfact> 0.27825635E+01</totfact>
</mgrwt>
</event>
<event>
 6    1  0.5040916E-004  0.2634851E+04  0.7818608E-02  0.8356459E-01
          2   -1    0    0  501    0  0.00000000000E+00  0.00000000000E+00  0.76301257423E+03  0.76301257423E+03  0.00000000000E+00 0.  1.
         -2   -1    0    0    0  501 -0.00000000000E+00 -0.00000000000E+00 -0.22746800648E+04  0.22746800648E+04  0.00000000000E+00 0. -1.
         23    2    1    2    0    0 -0.40376372996E+03 -0.45550010865E+03  0.58869189619E+03  0.85091074498E+03  0.83578996534E+02 0.  0.
         11    1    3    3    0    0 -0.23042380604E+03 -0.19816707817E+03  0.27999713160E+03  0.41323566517E+03  0.00000000000E+00 0.  1.
        -11    1    3    3    0    0 -0.17333992392E+03 -0.25733303047E+03  0.30869476460E+03  0.43767507981E+03  0.00000000000E+00 0. -1.
         22    1    1    2    0    0  0.40376372996E+03  0.45550010865E+03 -0.21003593868E+04  0.21867818941E+04  0.00000000000E+00 0. -1.
<mgrwt>
<rscale>  0 0.26348507E+04</rscale>
<asrwt>0</asrwt>
<pdfrwt beam="1">  1        2 0.11738655E+00 0.26348507E+04</pdfrwt>
<pdfrwt beam="2">  1       -2 0.34995077E+00 0.26348507E+04</pdfrwt>
<totfact> 0.50364775E-01</totfact>
</mgrwt>
</event>
<event>
 6    1  0.5040916E-004  0.2656540E+04  0.7818608E-02  0.8349246E-01
         -2   -1    0    0    0  501 -0.00000000000E+00  0.00000000000E+00  0.10142072324E+04  0.10142072324E+04  0.00000000000E+00 0. -1.
          2   -1    0    0  501    0  0.00000000000E+00 -0.00000000000E+00 -0.17395859366E+04  0.17395859366E+04  0.00000000000E+00 0.  1.
         23    2    1    2    0    0  0.76234048488E+03 -0.27469101997E+03 -0.14518024536E+04  0.16655332575E+04  0.98247117070E+02 0.  0.
         11    1    3    3    0    0  0.46410777295E+03 -0.16974002234E+03 -0.98076483985E+03  0.10982291979E+04  0.00000000000E+00 0. -1.
        -11    1    3    3    0    0  0.29823271194E+03 -0.10495099763E+03 -0.47103761377E+03  0.56730405953E+03  0.00000000000E+00 0.  1.
         22    1    1    2    0    0 -0.76234048488E+03  0.27469101997E+03  0.72642374948E+03  0.10882599116E+04  0.00000000000E+00 0. -1.
<mgrwt>
<rscale>  0 0.26565396E+04</rscale>
<asrwt>0</asrwt>
<pdfrwt beam="1">  1        2 0.26762860E+00 0.26565396E+04</pdfrwt>
<pdfrwt beam="2">  1       -2 0.15603188E+00 0.26565396E+04</pdfrwt>
<totfact> 0.22135466E+00</totfact>
</mgrwt>
</event>
<event>
 6    1  0.5040916E-004  0.2134202E+04  0.7818608E-02  0.8546325E-01
         -2   -1    0    0    0  501 -0.00000000000E+00  0.00000000000E+00  0.35044776794E+03  0.35044776794E+03  0.00000000000E+00 0. -1.
          2   -1    0    0  501    0  0.00000000000E+00 -0.00000000000E+00 -0.32492834823E+04  0.32492834823E+04  0.00000000000E+00 0.  1.
         23    2    1    2    0    0 -0.38826065255E+03  0.37360445478E+03  0.97925900646E+02  0.55491486824E+03  0.89523215003E+02 0.  0.
         13    1    3    3    0    0 -0.92938693032E+02  0.14386240654E+03  0.17098228315E+02  0.17212304346E+03  0.00000000000E+00 0.  1.
        -13    1    3    3    0    0 -0.29532195952E+03  0.22974204824E+03  0.80827672332E+02  0.38279182478E+03  0.00000000000E+00 0. -1.
         22    1    1    2    0    0  0.38826065255E+03 -0.37360445478E+03 -0.29967616150E+04  0.30448163820E+04  0.00000000000E+00 0.  1.
<mgrwt>
<rscale>  0 0.21342016E+04</rscale>
<asrwt>0</asrwt>
<pdfrwt beam="1">  1        2 0.49988976E+00 0.21342016E+04</pdfrwt>
<pdfrwt beam="2">  1       -2 0.53915042E-01 0.21342016E+04</pdfrwt>
<totfact> 0.35940138E+00</totfact>
</mgrwt>
</event>
<event>
 6    1  0.5040916E-004  0.3545925E+04  0.7818608E-02  0.8102992E-01
         -2   -1    0    0    0  501 -0.00000000000E+00  0.00000000000E+00  0.96112528822E+03  0.96112528822E+03  0.00000000000E+00 0. -1.
          2   -1    0    0  501    0  0.00000000000E+00 -0.00000000000E+00 -0.32705374910E+04  0.32705374910E+04  0.00000000000E+00 0.  1.
         23    2    1    2    0    0 -0.16192099345E+04  0.33492642907E+03 -0.39571189379E+03  0.17025788744E+04  0.90390242578E+02 0.  0.
         13    1    3    3    0    0 -0.99297767329E+03  0.18693702741E+03 -0.20031781329E+03  0.10300860829E+04  0.00000000000E+00 0.  1.
        -13    1    3    3    0    0 -0.62623226119E+03  0.14798940166E+03 -0.19539408049E+03  0.67249279152E+03  0.00000000000E+00 0. -1.
         22    1    1    2    0    0  0.16192099345E+04 -0.33492642907E+03 -0.19137003090E+04  0.25290839048E+04  0.00000000000E+00 0.  1.
<mgrwt>
<rscale>  0 0.35459251E+04</rscale>
<asrwt>0</asrwt>
<pdfrwt beam="1">  1        2 0.50315961E+00 0.35459251E+04</pdfrwt>
<pdfrwt beam="2">  1       -2 0.14786543E+00 0.35459251E+04</pdfrwt>
<totfact> 0.29652876E-01</totfact>
</mgrwt>
</event>
<event>
 6    1  0.8249491E-004  0.3883993E+04  0.7818608E-02  0.8028367E-01
          2   -1    0    0  501    0  0.00000000000E+00  0.00000000000E+00  0.22676272285E+04  0.22676272285E+04  0.00000000000E+00 0. -1.
         -2   -1    0    0    0  501 -0.00000000000E+00 -0.00000000000E+00 -0.16631259625E+04  0.16631259625E+04  0.00000000000E+00 0.  1.
         23    2    1    2    0    0 -0.95563141726E+02  0.11211766849E+04  0.19029143500E+04  0.22126012742E+04  0.91388744512E+02 0.  0.
         13    1    3    3    0    0 -0.10241485888E+03  0.82898660195E+03  0.13604655608E+04  0.15964254232E+04  0.00000000000E+00 0.  1.
        -13    1    3    3    0    0  0.68517171528E+01  0.29219008291E+03  0.54244878914E+03  0.61617585105E+03  0.00000000000E+00 0. -1.
         22    1    1    2    0    0  0.95563141726E+02 -0.11211766849E+04 -0.12984130840E+04  0.17181519168E+04  0.00000000000E+00 0.  1.
<mgrwt>
<rscale>  0 0.38839926E+04</rscale>
<asrwt>0</asrwt>
<pdfrwt beam="1">  1        2 0.34886573E+00 0.38839926E+04</pdfrwt>
<pdfrwt beam="2">  1       -2 0.25586553E+00 0.38839926E+04</pdfrwt>
<totfact> 0.22275341E-01</totfact>
</mgrwt>
</event>
<event>
 6    1  0.5040916E-004  0.4909258E+04  0.7818608E-02  0.7842659E-01
          2   -1    0    0  501    0  0.00000000000E+00  0.00000000000E+00  0.27825604994E+04  0.27825604994E+04  0.00000000000E+00 0.  1.
         -2   -1    0    0    0  501 -0.00000000000E+00 -0.00000000000E+00 -0.21653450190E+04  0.21653450190E+04  0.00000000000E+00 0. -1.
         23    2    1    2    0    0 -0.70391205246E+03  0.10193860371E+03 -0.20582371066E+04  0.21795250889E+04  0.90033158861E+02 0.  0.
         11    1    3    3    0    0 -0.61393906740E+03  0.79612540372E+02 -0.16907616500E+04  0.18005372232E+04  0.00000000000E+00 0. -1.
        -11    1    3    3    0    0 -0.89972985057E+02  0.22326063334E+02 -0.36747545661E+03  0.37898786571E+03  0.00000000000E+00 0.  1.
         22    1    1    2    0    0  0.70391205246E+03 -0.10193860371E+03  0.26754525871E+04  0.27683804294E+04  0.00000000000E+00 0.  1.
<mgrwt>
<rscale>  0 0.49092580E+04</rscale>
<asrwt>0</asrwt>
<pdfrwt beam="1">  1        2 0.42808623E+00 0.49092580E+04</pdfrwt>
<pdfrwt beam="2">  1       -2 0.33313000E+00 0.49092580E+04</pdfrwt>
<totfact> 0.34477393E-02</totfact>
</mgrwt>
</event>
<event>
 6    1  0.5040916E-004  0.7549909E+03  0.7818608E-02  0.9627553E-01
          2   -1    0    0  501    0  0.00000000000E+00  0.00000000000E+00  0.12213604103E+03  0.12213604103E+03  0.00000000000E+00 0.  1.
         -2   -1    0    0    0  501 -0.00000000000E+00 -0.00000000000E+00 -0.11667548267E+04  0.11667548267E+04  0.00000000000E+00 0. -1.
         23    2    1    2    0    0 -0.28768024880E+03  0.10648412681E+03 -0.17072769082E+03  0.36272433816E+03  0.91226127117E+02 0.  0.
         11    1    3    3    0    0 -0.70795316543E+02 -0.63425546141E+01 -0.65167906553E+02  0.96431638418E+02  0.00000000000E+00 0. -1.
        -11    1    3    3    0    0 -0.21688493226E+03  0.11282668142E+03 -0.10555978427E+03  0.26629269974E+03  0.00000000000E+00 0.  1.
         22    1    1    2    0    0  0.28768024880E+03 -0.10648412681E+03 -0.87389109484E+03  0.92616652955E+03  0.00000000000E+00 0. -1.
<mgrwt>
<rscale>  0 0.75499090E+03</rscale>
<asrwt>0</asrwt>
<pdfrwt beam="1">  1        2 0.18790160E-01 0.75499090E+03</pdfrwt>
<pdfrwt beam="2">  1       -2 0.17950075E+00 0.75499090E+03</pdfrwt>
<totfact> 0.56680058E+01</totfact>
</mgrwt>
</event>
<event>
 6    1  0.5040916E-004  0.2491281E+04  0.7818608E-02  0.8406098E-01
          2   -1    0    0  501    0  0.00000000000E+00  0.00000000000E+00  0.18542212235E+04  0.18542212235E+04  0.00000000000E+00 0.  1.
         -2   -1    0    0    0  501 -0.00000000000E+00 -0.00000000000E+00 -0.83680447636E+03  0.83680447636E+03  0.00000000000E+00 0. -1.
         23    2    1    2    0    0 -0.70356745949E+03 -0.45984578641E+03 -0.48129653598E+03  0.97271058838E+03  0.89745283377E+02 0.  0.
         13    1    3    3    0    0 -0.50456345245E+03 -0.34066184695E+03 -0.30234128800E+03  0.67973893955E+03  0.00000000000E+00 0.  1.
        -13    1    3    3    0    0 -0.19900400703E+03 -0.11918393946E+03 -0.17895524797E+03  0.29297164883E+03  0.00000000000E+00 0. -1.
         22    1    1    2    0    0  0.70356745949E+03  0.45984578641E+03  0.14987132831E+04  0.17183151115E+04  0.00000000000E+00 0.  1.
<mgrwt>
<rscale>  0 0.24912813E+04</rscale>
<asrwt>0</asrwt>
<pdfrwt beam="1">  1        2 0.28526480E+00 0.24912813E+04</pdfrwt>
<pdfrwt beam="2">  1       -2 0.12873915E+00 0.24912813E+04</pdfrwt>
<totfact> 0.31989913E+00</totfact>
</mgrwt>
</event>
<event>
 6    1  0.5040916E-004  0.3334720E+04  0.7818608E-02  0.8154117E-01
         -2   -1    0    0    0  501 -0.00000000000E+00  0.00000000000E+00  0.16494929381E+04  0.16494929381E+04  0.00000000000E+00 0. -1.
          2   -1    0    0  501    0  0.00000000000E+00 -0.00000000000E+00 -0.16854202819E+04  0.16854202819E+04  0.00000000000E+00 0.  1.
         23    2    1    2    0    0  0.16500372895E+04 -0.10886476743E+02 -0.24753538353E+03  0.16713268728E+04  0.96530707616E+02 0.  0.
         11    1    3    3    0    0  0.14868289014E+04 -0.90728502919E+01 -0.19349136920E+03  0.14993936803E+04  0.00000000000E+00 0.  1.
        -11    1    3    3    0    0  0.16320838810E+03 -0.18136264514E+01 -0.54044014334E+02  0.17193319247E+03  0.00000000000E+00 0. -1.
         22    1    1    2    0    0 -0.16500372895E+04  0.10886476743E+02  0.21160803979E+03  0.16635863472E+04  0.00000000000E+00 0. -1.
<mgrwt>
<rscale>  0 0.33347197E+04</rscale>
<asrwt>0</asrwt>
<pdfrwt beam="1">  1        2 0.25929543E+00 0.33347197E+04</pdfrwt>
<pdfrwt beam="2">  1       -2 0.25376815E+00 0.33347197E+04</pdfrwt>
<totfact> 0.50701275E-01</totfact>
</mgrwt>
</event>
<event>
 6    1  0.5040916E-004  0.3318388E+04  0.7818608E-02  0.8158232E-01
         -3   -1    0    0    0  501 -0.00000000000E+00  0.00000000000E+00  0.14721003008E+04  0.14721003008E+04  0.00000000000E+00 0. -1.
          3   -1    0    0  501    0  0.00000000000E+00 -0.00000000000E+00 -0.18700656480E+04  0.18700656480E+04  0.00000000000E+00 0.  1.
         23    2    1    2    0    0  0.61775625349E+03 -0.15103895048E+04  0.95811753920E+02  0.16372568397E+04  0.92362449221E+02 0.  0.
         11    1    3    3    0    0  0.48862602808E+03 -0.12272896950E+04  0.43259265318E+02  0.13216908696E+04  0.00000000000E+00 0.  1.
        -11    1    3    3    0    0  0.12913022540E+03 -0.28309980981E+03  0.52552488602E+02  0.31556597010E+03  0.00000000000E+00 0. -1.
         22    1    1    2    0    0 -0.61775625349E+03  0.15103895048E+04 -0.49377710108E+03  0.17049091091E+04  0.00000000000E+00 0. -1.
<mgrwt>
<rscale>  0 0.33183877E+04</rscale>
<asrwt>0</asrwt>
<pdfrwt beam="1">  1        3 0.28770241E+00 0.33183877E+04</pdfrwt>
<pdfrwt beam="2">  1       -3 0.22647697E+00 0.33183877E+04</pdfrwt>
<totfact> 0.98225502E-03</totfact>
</mgrwt>
</event>
<event>
 6    1  0.5040916E-004  0.1114776E+04  0.7818608E-02  0.9190909E-01
          1   -1    0    0  501    0  0.00000000000E+00  0.00000000000E+00  0.47467221175E+03  0.47467221175E+03  0.00000000000E+00 0. -1.
         -1   -1    0    0    0  501 -0.00000000000E+00 -0.00000000000E+00 -0.65451778776E+03  0.65451778776E+03  0.00000000000E+00 0.  1.
         23    2    1    2    0    0  0.27016577550E+03 -0.35880092053E+03 -0.41719927858E+03  0.62118957929E+03  0.10046695255E+03 0.  0.
         11    1    3    3    0    0  0.22678956406E+03 -0.22844745059E+03 -0.27372699154E+03  0.42254965383E+03  0.00000000000E+00 0.  1.
        -11    1    3    3    0    0  0.43376211438E+02 -0.13035346993E+03 -0.14347228703E+03  0.19863992547E+03  0.00000000000E+00 0. -1.
         22    1    1    2    0    0 -0.27016577550E+03  0.35880092053E+03  0.23735370257E+03  0.50800042022E+03  0.00000000000E+00 0. -1.
<mgrwt>
<rscale>  0 0.11147760E+04</rscale>
<asrwt>0</asrwt>
<pdfrwt beam="1">  1        1 0.73026495E-01 0.11147760E+04</pdfrwt>
<pdfrwt beam="2">  1       -1 0.10069504E+00 0.11147760E+04</pdfrwt>
<totfact> 0.44487195E+01</totfact>
</mgrwt>
</event>
<event>
 6    1  0.5040916E-004  0.4712346E+04  0.7818608E-02  0.7874480E-01
          2   -1    0    0  501    0  0.00000000000E+00  0.00000000000E+00  0.26257294529E+04  0.26257294529E+04  0.00000000000E+00 0.  1.
         -2   -1    0    0    0  501 -0.00000000000E+00 -0.00000000000E+00 -0.21142895020E+04  0.21142895020E+04  0.00000000000E+00 0. -1.
         23    2    1    2    0    0 -0.20694933175E+04  0.27138050606E+03 -0.84196341775E+03  0.22524195803E+04  0.89674961019E+02 0.  0.
         13    1    3    3    0    0 -0.41592235315E+03  0.44818866633E+02 -0.13187145152E+03  0.43862308920E+03  0.00000000000E+00 0. -1.
        -13    1    3    3    0    0 -0.16535709643E+04  0.22656163943E+03 -0.71009196623E+03  0.18137964911E+04  0.00000000000E+00 0.  1.
         22    1    1    2    0    0  0.20694933175E+04 -0.27138050606E+03  0.13534033686E+04  0.24875993746E+04  0.00000000000E+00 0.  1.
<mgrwt>
<rscale>  0 0.47123464E+04</rscale>
<asrwt>0</asrwt>
<pdfrwt beam="1">  1        2 0.40395838E+00 0.47123464E+04</pdfrwt>
<pdfrwt beam="2">  1       -2 0.32527531E+00 0.47123464E+04</pdfrwt>
<totfact> 0.48614429E-02</totfact>
</mgrwt>
</event>
<event>
 6    1  0.5367120E-004  0.2591141E+04  0.7818608E-02  0.8371217E-01
         -2   -1    0    0    0  501 -0.00000000000E+00  0.00000000000E+00  0.60832401147E+03  0.60832401147E+03  0.00000000000E+00 0. -1.
          2   -1    0    0  501    0  0.00000000000E+00 -0.00000000000E+00 -0.27592250166E+04  0.27592250166E+04  0.00000000000E+00 0.  1.
         23    2    1    2    0    0 -0.75521358697E+03  0.85182226886E+03 -0.18752944179E+04  0.21962643784E+04  0.10439983823E+03 0.  0.
         11    1    3    3    0    0 -0.35523472061E+03  0.47925966716E+03 -0.98124332604E+03  0.11483553458E+04  0.00000000000E+00 0. -1.
        -11    1    3    3    0    0 -0.39997886636E+03  0.37256260170E+03 -0.89405109191E+03  0.10479090326E+04  0.00000000000E+00 0.  1.
         22    1    1    2    0    0  0.75521358697E+03 -0.85182226886E+03 -0.27560658722E+03  0.11712846497E+04  0.00000000000E+00 0. -1.
<mgrwt>
<rscale>  0 0.25911409E+04</rscale>
<asrwt>0</asrwt>
<pdfrwt beam="1">  1        2 0.42449614E+00 0.25911409E+04</pdfrwt>
<pdfrwt beam="2">  1       -2 0.93588312E-01 0.25911409E+04</pdfrwt>
<totfact> 0.20904422E+00</totfact>
</mgrwt>
</event>
<event>
 6    1  0.5040916E-004  0.1352561E+04  0.7818608E-02  0.8988891E-01
          2   -1    0    0  501    0  0.00000000000E+00  0.00000000000E+00  0.11388939415E+04  0.11388939415E+04  0.00000000000E+00 0.  1.
         -2   -1    0    0    0  501 -0.00000000000E+00 -0.00000000000E+00 -0.40157874363E+03  0.40157874363E+03  0.00000000000E+00 0. -1.
         23    2    1    2    0    0 -0.41906640759E+03 -0.39032280949E+03  0.77345630451E+03  0.96664803489E+03  0.90582662846E+02 0.  0.
         13    1    3    3    0    0 -0.21145557660E+03 -0.25766876317E+03  0.45384885005E+03  0.56310339288E+03  0.00000000000E+00 0. -1.
        -13    1    3    3    0    0 -0.20761083099E+03 -0.13265404631E+03  0.31960745446E+03  0.40354464201E+03  0.00000000000E+00 0.  1.
         22    1    1    2    0    0  0.41906640759E+03  0.39032280949E+03 -0.36141106679E+02  0.57382465019E+03  0.00000000000E+00 0. -1.
<mgrwt>
<rscale>  0 0.13525614E+04</rscale>
<asrwt>0</asrwt>
<pdfrwt beam="1">  1        2 0.17521445E+00 0.13525614E+04</pdfrwt>
<pdfrwt beam="2">  1       -2 0.61781346E-01 0.13525614E+04</pdfrwt>
<totfact> 0.49017810E+01</totfact>
</mgrwt>
</event>
<event>
 6    1  0.5040916E-004  0.1332447E+04  0.7818608E-02  0.9004223E-01
         -2   -1    0    0    0  501 -0.00000000000E+00  0.00000000000E+00  0.54025156677E+03  0.54025156677E+03  0.00000000000E+00 0. -1.
          2   -1    0    0  501    0  0.00000000000E+00 -0.00000000000E+00 -0.82156923951E+03  0.82156923951E+03  0.00000000000E+00 0.  1.
         23    2    1    2    0    0  0.40226766402E+03 -0.51866554042E+03 -0.45126690154E+02  0.66423970233E+03  0.91349590271E+02 0.  0.
         13    1    3    3    0    0  0.16961798406E+03 -0.25953873555E+03  0.16931264469E+02  0.31051132585E+03  0.00000000000E+00 0.  1.
        -13    1    3    3    0    0  0.23264967996E+03 -0.25912680488E+03 -0.62057954623E+02  0.35372837647E+03  0.00000000000E+00 0. -1.
         22    1    1    2    0    0 -0.40226766402E+03  0.51866554042E+03 -0.23619098259E+03  0.69758110396E+03  0.00000000000E+00 0. -1.
<mgrwt>
<rscale>  0 0.13324475E+04</rscale>
<asrwt>0</asrwt>
<pdfrwt beam="1">  1        2 0.12639527E+00 0.13324475E+04</pdfrwt>
<pdfrwt beam="2">  1       -2 0.83115626E-01 0.13324475E+04</pdfrwt>
<totfact> 0.41232418E+01</totfact>
</mgrwt>
</event>
<event>
 6    1  0.5040916E-004  0.1938185E+04  0.7818608E-02  0.8636079E-01
          2   -1    0    0  501    0  0.00000000000E+00  0.00000000000E+00  0.35943785772E+04  0.35943785772E+04  0.00000000000E+00 0.  1.
         -2   -1    0    0    0  501 -0.00000000000E+00 -0.00000000000E+00 -0.26128023285E+03  0.26128023285E+03  0.00000000000E+00 0. -1.
         23    2    1    2    0    0  0.55168589912E+03  0.54266321402E+03  0.28235281220E+04  0.29291047066E+04  0.92209713489E+02 0.  0.
         13    1    3    3    0    0  0.49406741042E+03  0.52026639798E+03  0.26054956280E+04  0.27024779737E+04  0.00000000000E+00 0.  1.
        -13    1    3    3    0    0  0.57618488701E+02  0.22396816039E+02  0.21803249400E+03  0.22662673286E+03  0.00000000000E+00 0. -1.
         22    1    1    2    0    0 -0.55168589912E+03 -0.54266321402E+03  0.50957022235E+03  0.92655410347E+03  0.00000000000E+00 0.  1.
<mgrwt>
<rscale>  0 0.19381848E+04</rscale>
<asrwt>0</asrwt>
<pdfrwt beam="1">  1        2 0.55298128E+00 0.19381848E+04</pdfrwt>
<pdfrwt beam="2">  1       -2 0.40196961E-01 0.19381848E+04</pdfrwt>
<totfact> 0.38388914E+00</totfact>
</mgrwt>
</event>
<event>
 6    1  0.5040916E-004  0.2291609E+04  0.7818608E-02  0.8481237E-01
          1   -1    0    0  501    0  0.00000000000E+00  0.00000000000E+00  0.14225078380E+04  0.14225078380E+04  0.00000000000E+00 0.  1.
         -1   -1    0    0    0  501 -0.00000000000E+00 -0.00000000000E+00 -0.92292482870E+03  0.92292482870E+03  0.00000000000E+00 0. -1.
         23    2    1    2    0    0  0.11867786878E+03  0.80574473337E+03  0.10723022719E+04  0.13497839506E+04  0.93677847774E+02 0.  0.
         11    1    3    3    0    0  0.12718518904E+03  0.58793486540E+03  0.80297115374E+03  0.10032976388E+04  0.00000000000E+00 0. -1.
        -11    1    3    3    0    0 -0.85073202593E+01  0.21780986797E+03  0.26933111819E+03  0.34648631186E+03  0.00000000000E+00 0.  1.
         22    1    1    2    0    0 -0.11867786878E+03 -0.80574473337E+03 -0.57271926266E+03  0.99564871602E+03  0.00000000000E+00 0. -1.
<mgrwt>
<rscale>  0 0.22916089E+04</rscale>
<asrwt>0</asrwt>
<pdfrwt beam="1">  1        1 0.21884736E+00 0.22916089E+04</pdfrwt>
<pdfrwt beam="2">  1       -1 0.14198843E+00 0.22916089E+04</pdfrwt>
<totfact> 0.27068108E+00</totfact>
</mgrwt>
</event>
<event>
 6    1  0.5040916E-004  0.3199863E+04  0.7818608E-02  0.8188853E-01
         -2   -1    0    0    0  501 -0.00000000000E+00  0.00000000000E+00  0.95295443633E+03  0.95295443633E+03  0.00000000000E+00 0. -1.
          2   -1    0    0  501    0  0.00000000000E+00 -0.00000000000E+00 -0.26861526874E+04  0.26861526874E+04  0.00000000000E+00 0.  1.
         23    2    1    2    0    0 -0.18744925576E+03  0.10289384733E+04 -0.22423085370E+04  0.24759025464E+04  0.91072712651E+02 0.  0.
         13    1    3    3    0    0 -0.62248038230E+02  0.15653316719E+03 -0.35278898351E+03  0.39094439193E+03  0.00000000000E+00 0.  1.
        -13    1    3    3    0    0 -0.12520121753E+03  0.87240530606E+03 -0.18895195535E+04  0.20849581545E+04  0.00000000000E+00 0. -1.
         22    1    1    2    0    0  0.18744925576E+03 -0.10289384733E+04  0.50911028600E+03  0.11632045772E+04  0.00000000000E+00 0. -1.
<mgrwt>
<rscale>  0 0.31998632E+04</rscale>
<asrwt>0</asrwt>
<pdfrwt beam="1">  1        2 0.41325426E+00 0.31998632E+04</pdfrwt>
<pdfrwt beam="2">  1       -2 0.14660837E+00 0.31998632E+04</pdfrwt>
<totfact> 0.72514113E-01</totfact>
</mgrwt>
</event>
<event>
 6    1  0.5040916E-004  0.9072672E+03  0.7818608E-02  0.9416542E-01
          2   -1    0    0  501    0  0.00000000000E+00  0.00000000000E+00  0.21939727788E+04  0.21939727788E+04  0.00000000000E+00 0.  1.
         -2   -1    0    0    0  501 -0.00000000000E+00 -0.00000000000E+00 -0.93794902197E+02  0.93794902197E+02  0.00000000000E+00 0. -1.
         23    2    1    2    0    0 -0.44302615217E+03 -0.38336484650E+02  0.89651603474E+03  0.10045904964E+04  0.87859019535E+02 0.  0.
         11    1    3    3    0    0 -0.26523655677E+03  0.72663102378E+01  0.45971017289E+03  0.53078872762E+03  0.00000000000E+00 0. -1.
        -11    1    3    3    0    0 -0.17778959540E+03 -0.45602794888E+02  0.43680586185E+03  0.47380176876E+03  0.00000000000E+00 0.  1.
         22    1    1    2    0    0  0.44302615217E+03  0.38336484650E+02  0.12036618419E+04  0.12831771846E+04  0.00000000000E+00 0.  1.
<mgrwt>
<rscale>  0 0.90726724E+03</rscale>
<asrwt>0</asrwt>
<pdfrwt beam="1">  1        2 0.33753423E+00 0.90726724E+03</pdfrwt>
<pdfrwt beam="2">  1       -2 0.14429987E-01 0.90726724E+03</pdfrwt>
<totfact> 0.19760982E+02</totfact>
</mgrwt>
</event>
<event>
 6    1  0.5040916E-004  0.2512185E+04  0.7818608E-02  0.8398658E-01
         -2   -1    0    0    0  501 -0.00000000000E+00  0.00000000000E+00  0.84769064257E+03  0.84769064257E+03  0.00000000000E+00 0. -1.
          2   -1    0    0  501    0  0.00000000000E+00 -0.00000000000E+00 -0.18612542146E+04  0.18612542146E+04  0.00000000000E+00 0.  1.
         23    2    1    2    0    0  0.66824037617E+01 -0.77753436467E+03 -0.15689367555E+04  0.17534116471E+04  0.91024824402E+02 0.  0.
         11    1    3    3    0    0 -0.59630031667E+01 -0.25810221920E+03 -0.42991466135E+03  0.50147674822E+03  0.00000000000E+00 0. -1.
        -11    1    3    3    0    0  0.12645406928E+02 -0.51943214547E+03 -0.11390220942E+04  0.12519348989E+04  0.00000000000E+00 0.  1.
         22    1    1    2    0    0 -0.66824037617E+01  0.77753436467E+03  0.55537318343E+03  0.95553321012E+03  0.00000000000E+00 0. -1.
<mgrwt>
<rscale>  0 0.25121845E+04</rscale>
<asrwt>0</asrwt>
<pdfrwt beam="1">  1        2 0.28634680E+00 0.25121845E+04</pdfrwt>
<pdfrwt beam="2">  1       -2 0.13041395E+00 0.25121845E+04</pdfrwt>
<totfact> 0.30629976E+00</totfact>
</mgrwt>
</event>
<event>
 6    1  0.5040916E-004  0.1826685E+04  0.7818608E-02  0.8692236E-01
         -2   -1    0    0    0  501 -0.00000000000E+00  0.00000000000E+00  0.94772381051E+03  0.94772381051E+03  0.00000000000E+00 0. -1.
          2   -1    0    0  501    0  0.00000000000E+00 -0.00000000000E+00 -0.88020855350E+03  0.88020855350E+03  0.00000000000E+00 0.  1.
         23    2    1    2    0    0  0.56292473694E+03  0.56244587688E+03  0.47911284090E+03  0.93202935869E+03  0.76811374648E+02 0.  0.
         13    1    3    3    0    0  0.45278427751E+03  0.42786350516E+03  0.34267952457E+03  0.71099229080E+03  0.00000000000E+00 0. -1.
        -13    1    3    3    0    0  0.11014045942E+03  0.13458237172E+03  0.13643331633E+03  0.22103706790E+03  0.00000000000E+00 0.  1.
         22    1    1    2    0    0 -0.56292473694E+03 -0.56244587688E+03 -0.41159758388E+03  0.89590300532E+03  0.00000000000E+00 0.  1.
<mgrwt>
<rscale>  0 0.18266851E+04</rscale>
<asrwt>0</asrwt>
<pdfrwt beam="1">  1        2 0.13541670E+00 0.18266851E+04</pdfrwt>
<pdfrwt beam="2">  1       -2 0.14580366E+00 0.18266851E+04</pdfrwt>
<totfact> 0.92000287E+00</totfact>
</mgrwt>
</event>
<event>
 6    1  0.5040916E-004  0.1464300E+04  0.7818608E-02  0.8908546E-01
         -2   -1    0    0    0  501 -0.00000000000E+00  0.00000000000E+00  0.15778291380E+03  0.15778291380E+03  0.00000000000E+00 0. -1.
          2   -1    0    0  501    0  0.00000000000E+00 -0.00000000000E+00 -0.33973510317E+04  0.33973510317E+04  0.00000000000E+00 0.  1.
         23    2    1    2    0    0 -0.27234094400E+03  0.55305542994E+03 -0.25722012375E+04  0.26466085186E+04  0.90981020067E+02 0.  0.
         13    1    3    3    0    0 -0.24951505281E+03  0.47886127331E+03 -0.23500258149E+04  0.24112625762E+04  0.00000000000E+00 0. -1.
        -13    1    3    3    0    0 -0.22825891189E+02  0.74194156628E+02 -0.22217542263E+03  0.23534594240E+03  0.00000000000E+00 0.  1.
         22    1    1    2    0    0  0.27234094400E+03 -0.55305542994E+03 -0.66736688046E+03  0.90852542700E+03  0.00000000000E+00 0.  1.
<mgrwt>
<rscale>  0 0.14643004E+04</rscale>
<asrwt>0</asrwt>
<pdfrwt beam="1">  1        2 0.52266934E+00 0.14643004E+04</pdfrwt>
<pdfrwt beam="2">  1       -2 0.24274297E-01 0.14643004E+04</pdfrwt>
<totfact> 0.14226137E+01</totfact>
</mgrwt>
</event>
<event>
 6    1  0.5040916E-004  0.1773301E+04  0.7818608E-02  0.8720628E-01
          2   -1    0    0  501    0  0.00000000000E+00  0.00000000000E+00  0.15746140399E+04  0.15746140399E+04  0.00000000000E+00 0.  1.
         -2   -1    0    0    0  501 -0.00000000000E+00 -0.00000000000E+00 -0.49926435943E+03  0.49926435943E+03  0.00000000000E+00 0. -1.
         23    2    1    2    0    0  0.86075131743E+03  0.11625745132E+03  0.34094371765E+03  0.93644235995E+03  0.79202585028E+02 0.  0.
         11    1    3    3    0    0  0.66801599730E+03  0.11772285767E+03  0.24555220848E+03  0.72138750402E+03  0.00000000000E+00 0. -1.
        -11    1    3    3    0    0  0.19273532013E+03 -0.14654063496E+01  0.95391509165E+02  0.21505485594E+03  0.00000000000E+00 0.  1.
         22    1    1    2    0    0 -0.86075131743E+03 -0.11625745132E+03  0.73440596283E+03  0.11374360394E+04  0.00000000000E+00 0.  1.
<mgrwt>
<rscale>  0 0.17733005E+04</rscale>
<asrwt>0</asrwt>
<pdfrwt beam="1">  1        2 0.24224831E+00 0.17733005E+04</pdfrwt>
<pdfrwt beam="2">  1       -2 0.76809902E-01 0.17733005E+04</pdfrwt>
<totfact> 0.16507777E+01</totfact>
</mgrwt>
</event>
<event>
 6    1  0.5040916E-004  0.4957222E+04  0.7818608E-02  0.7835140E-01
         -1   -1    0    0    0  501 -0.00000000000E+00  0.00000000000E+00  0.28434146864E+04  0.28434146864E+04  0.00000000000E+00 0. -1.
          1   -1    0    0  501    0  0.00000000000E+00 -0.00000000000E+00 -0.21606104979E+04  0.21606104979E+04  0.00000000000E+00 0.  1.
         23    2    1    2    0    0  0.11347748569E+04 -0.78317484915E+03 -0.17367832886E+04  0.22191588716E+04  0.84694070743E+02 0.  0.
         13    1    3    3    0    0  0.37910770481E+03 -0.25864091013E+03 -0.51516319064E+03  0.68993542106E+03  0.00000000000E+00 0.  1.
        -13    1    3    3    0    0  0.75566715211E+03 -0.52453393901E+03 -0.12216200980E+04  0.15292234505E+04  0.00000000000E+00 0. -1.
         22    1    1    2    0    0 -0.11347748569E+04  0.78317484915E+03  0.24195874771E+04  0.27848663127E+04  0.00000000000E+00 0. -1.
<mgrwt>
<rscale>  0 0.49572216E+04</rscale>
<asrwt>0</asrwt>
<pdfrwt beam="1">  1        1 0.33240161E+00 0.49572216E+04</pdfrwt>
<pdfrwt beam="2">  1       -1 0.43744842E+00 0.49572216E+04</pdfrwt>
<totfact> 0.66421039E-03</totfact>
</mgrwt>
</event>
<event>
 6    1  0.5040916E-004  0.3307683E+04  0.7818608E-02  0.8160943E-01
          2   -1    0    0  501    0  0.00000000000E+00  0.00000000000E+00  0.29241784237E+04  0.29241784237E+04  0.00000000000E+00 0.  1.
         -2   -1    0    0    0  501 -0.00000000000E+00 -0.00000000000E+00 -0.93537084790E+03  0.93537084790E+03  0.00000000000E+00 0. -1.
         23    2    1    2    0    0 -0.11187449916E+03 -0.27703935909E+03  0.28917249289E+04  0.29084833136E+04  0.89080926554E+02 0.  0.
         13    1    3    3    0    0 -0.10758457476E+03 -0.18554833216E+03  0.22597261622E+04  0.22698821451E+04  0.00000000000E+00 0. -1.
        -13    1    3    3    0    0 -0.42899244046E+01 -0.91491026939E+02  0.63199876665E+03  0.63860116858E+03  0.00000000000E+00 0.  1.
         22    1    1    2    0    0  0.11187449916E+03  0.27703935909E+03 -0.90291735303E+03  0.95106595800E+03  0.00000000000E+00 0. -1.
<mgrwt>
<rscale>  0 0.33076827E+04</rscale>
<asrwt>0</asrwt>
<pdfrwt beam="1">  1        2 0.44987360E+00 0.33076827E+04</pdfrwt>
<pdfrwt beam="2">  1       -2 0.14390321E+00 0.33076827E+04</pdfrwt>
<totfact> 0.54127675E-01</totfact>
</mgrwt>
</event>
<event>
 6    1  0.5040916E-004  0.2847943E+04  0.7818608E-02  0.8288537E-01
         -2   -1    0    0    0  501 -0.00000000000E+00  0.00000000000E+00  0.66188861584E+03  0.66188861584E+03  0.00000000000E+00 0. -1.
          2   -1    0    0  501    0  0.00000000000E+00 -0.00000000000E+00 -0.30634981108E+04  0.30634981108E+04  0.00000000000E+00 0.  1.
         23    2    1    2    0    0  0.81411056372E+03 -0.11516833481E+04 -0.14434972129E+04  0.20203560263E+04  0.94887960497E+02 0.  0.
         11    1    3    3    0    0  0.50158960372E+03 -0.65040485359E+03 -0.79363911259E+03  0.11421390656E+04  0.00000000000E+00 0.  1.
        -11    1    3    3    0    0  0.31252096000E+03 -0.50127849447E+03 -0.64985810036E+03  0.87821696069E+03  0.00000000000E+00 0. -1.
         22    1    1    2    0    0 -0.81411056372E+03  0.11516833481E+04 -0.95811228199E+03  0.17050307003E+04  0.00000000000E+00 0. -1.
<mgrwt>
<rscale>  0 0.28479428E+04</rscale>
<asrwt>0</asrwt>
<pdfrwt beam="1">  1        2 0.47130741E+00 0.28479428E+04</pdfrwt>
<pdfrwt beam="2">  1       -2 0.10182902E+00 0.28479428E+04</pdfrwt>
<totfact> 0.10881316E+00</totfact>
</mgrwt>
</event>
<event>
 6    1  0.5040916E-004  0.5630069E+04  0.7818608E-02  0.7738041E-01
         -2   -1    0    0    0  501 -0.00000000000E+00  0.00000000000E+00  0.26738042091E+04  0.26738042091E+04  0.00000000000E+00 0. -1.
          2   -1    0    0  501    0  0.00000000000E+00 -0.00000000000E+00 -0.29637244763E+04  0.29637244763E+04  0.00000000000E+00 0.  1.
         23    2    1    2    0    0 -0.18137301213E+04  0.60344258515E+03  0.19232425842E+04  0.27131741048E+04  0.93229708533E+02 0.  0.
         13    1    3    3    0    0 -0.56209607347E+03  0.20788473013E+03  0.65803354273E+03  0.89004280807E+03  0.00000000000E+00 0. -1.
        -13    1    3    3    0    0 -0.12516340478E+04  0.39555785502E+03  0.12652090415E+04  0.18231312967E+04  0.00000000000E+00 0.  1.
         22    1    1    2    0    0  0.18137301213E+04 -0.60344258515E+03 -0.22131628514E+04  0.29243545806E+04  0.00000000000E+00 0.  1.
<mgrwt>
<rscale>  0 0.56300689E+04</rscale>
<asrwt>0</asrwt>
<pdfrwt beam="1">  1        2 0.45595761E+00 0.56300689E+04</pdfrwt>
<pdfrwt beam="2">  1       -2 0.41135449E+00 0.56300689E+04</pdfrwt>
<totfact> 0.79541113E-03</totfact>
</mgrwt>
</event>
<event>
 6    1  0.5040916E-004  0.2738542E+04  0.7818608E-02  0.8322607E-01
          2   -1    0    0  501    0  0.00000000000E+00  0.00000000000E+00  0.11803418546E+04  0.11803418546E+04  0.00000000000E+00 0.  1.
         -2   -1    0    0    0  501 -0.00000000000E+00 -0.00000000000E+00 -0.15884403130E+04  0.15884403130E+04  0.00000000000E+00 0. -1.
         23    2    1    2    0    0  0.28279461449E+03 -0.86681827044E+03 -0.12350753383E+04  0.15378323442E+04  0.90390926257E+02 0.  0.
         13    1    3    3    0    0  0.17882436267E+03 -0.66633007302E+03 -0.90824978406E+03  0.11405663458E+04  0.00000000000E+00 0.  1.
        -13    1    3    3    0    0  0.10397025182E+03 -0.20048819742E+03 -0.32682555424E+03  0.39726599838E+03  0.00000000000E+00 0. -1.
         22    1    1    2    0    0 -0.28279461449E+03  0.86681827044E+03  0.82697687993E+03  0.12309498235E+04  0.00000000000E+00 0.  1.
<mgrwt>
<rscale>  0 0.27385416E+04</rscale>
<asrwt>0</asrwt>
<pdfrwt beam="1">  1        2 0.18159106E+00 0.27385416E+04</pdfrwt>
<pdfrwt beam="2">  1       -2 0.24437543E+00 0.27385416E+04</pdfrwt>
<totfact> 0.11846365E+00</totfact>
</mgrwt>
</event>
<event>
 6    1  0.6125473E-004  0.2927440E+04  0.7818608E-02  0.8264760E-01
         -2   -1    0    0    0  501 -0.00000000000E+00  0.00000000000E+00  0.13861168892E+04  0.13861168892E+04  0.00000000000E+00 0. -1.
          2   -1    0    0  501    0  0.00000000000E+00 -0.00000000000E+00 -0.15456677689E+04  0.15456677689E+04  0.00000000000E+00 0.  1.
         23    2    1    2    0    0 -0.83731430044E+03  0.90947227201E+03 -0.86208247637E+03  0.15098895510E+04  0.91352115055E+02 0.  0.
         11    1    3    3    0    0 -0.69126883493E+03  0.75448887407E+03 -0.67005966036E+03  0.12231459486E+04  0.00000000000E+00 0.  1.
        -11    1    3    3    0    0 -0.14604546550E+03  0.15498339794E+03 -0.19202281600E+03  0.28674360237E+03  0.00000000000E+00 0. -1.
         22    1    1    2    0    0  0.83731430044E+03 -0.90947227201E+03  0.70253159666E+03  0.14218951071E+04  0.00000000000E+00 0. -1.
<mgrwt>
<rscale>  0 0.29274400E+04</rscale>
<asrwt>0</asrwt>
<pdfrwt beam="1">  1        2 0.23779504E+00 0.29274400E+04</pdfrwt>
<pdfrwt beam="2">  1       -2 0.21324875E+00 0.29274400E+04</pdfrwt>
<totfact> 0.11243430E+00</totfact>
</mgrwt>
</event>
<event>
 6    1  0.5040916E-004  0.5858678E+04  0.7818608E-02  0.7708175E-01
          2   -1    0    0  501    0  0.00000000000E+00  0.00000000000E+00  0.48386421822E+04  0.48386421822E+04  0.00000000000E+00 0. -1.
         -2   -1    0    0    0  501 -0.00000000000E+00 -0.00000000000E+00 -0.17734369731E+04  0.17734369731E+04  0.00000000000E+00 0.  1.
         23    2    1    2    0    0 -0.27743885766E+04 -0.30989662151E+03  0.25320713516E+04  0.37699849274E+04  0.90183885163E+02 0.  0.
         11    1    3    3    0    0 -0.14727746250E+04 -0.20896081487E+03  0.13600555054E+04  0.20155596484E+04  0.00000000000E+00 0. -1.
        -11    1    3    3    0    0 -0.13016139516E+04 -0.10093580664E+03  0.11720158462E+04  0.17544252790E+04  0.00000000000E+00 0.  1.
         22    1    1    2    0    0  0.27743885766E+04  0.30989662151E+03  0.53313385751E+03  0.28420942278E+04  0.00000000000E+00 0.  1.
<mgrwt>
<rscale>  0 0.58586780E+04</rscale>
<asrwt>0</asrwt>
<pdfrwt beam="1">  1        2 0.74440649E+00 0.58586780E+04</pdfrwt>
<pdfrwt beam="2">  1       -2 0.27283646E+00 0.58586780E+04</pdfrwt>
<totfact> 0.16744762E-03</totfact>
</mgrwt>
</event>
<event>
 6    1  0.5040916E-004  0.1626296E+04  0.7818608E-02  0.8804554E-01
         -2   -1    0    0    0  501 -0.00000000000E+00  0.00000000000E+00  0.14615147771E+04  0.14615147771E+04  0.00000000000E+00 0.  1.
          2   -1    0    0  501    0  0.00000000000E+00 -0.00000000000E+00 -0.45241420734E+03  0.45241420734E+03  0.00000000000E+00 0. -1.
         23    2    1    2    0    0 -0.44985269423E+03  0.58448762906E+03  0.90176803810E+03  0.11686011992E+04  0.91923518230E+02 0.  0.
         13    1    3    3    0    0 -0.12670071997E+03  0.16928408731E+03  0.19612990043E+03  0.28840442524E+03  0.00000000000E+00 0. -1.
        -13    1    3    3    0    0 -0.32315197426E+03  0.41520354176E+03  0.70563813768E+03  0.88019677396E+03  0.00000000000E+00 0.  1.
         22    1    1    2    0    0  0.44985269423E+03 -0.58448762906E+03  0.10733253162E+03  0.74532778519E+03  0.00000000000E+00 0.  1.
<mgrwt>
<rscale>  0 0.16262965E+04</rscale>
<asrwt>0</asrwt>
<pdfrwt beam="1">  1        2 0.69602186E-01 0.16262965E+04</pdfrwt>
<pdfrwt beam="2">  1       -2 0.22484842E+00 0.16262965E+04</pdfrwt>
<totfact> 0.60893392E+00</totfact>
</mgrwt>
</event>
<event>
 6    1  0.5040916E-004  0.1024837E+04  0.7818608E-02  0.9281716E-01
         -2   -1    0    0    0  501 -0.00000000000E+00  0.00000000000E+00  0.27360989610E+03  0.27360989610E+03  0.00000000000E+00 0. -1.
          2   -1    0    0  501    0  0.00000000000E+00 -0.00000000000E+00 -0.95966007654E+03  0.95966007654E+03  0.00000000000E+00 0.  1.
         23    2    1    2    0    0 -0.32455296287E+03 -0.30177461702E+03 -0.46133356416E+02  0.45487670002E+03  0.91553156449E+02 0.  0.
         13    1    3    3    0    0 -0.24200138848E+03 -0.23038179046E+03 -0.74025404492E+02  0.34222828918E+03  0.00000000000E+00 0.  1.
        -13    1    3    3    0    0 -0.82551574386E+02 -0.71392826567E+02  0.27892048077E+02  0.11264841084E+03  0.00000000000E+00 0. -1.
         22    1    1    2    0    0  0.32455296287E+03  0.30177461702E+03 -0.63991682403E+03  0.77839327262E+03  0.00000000000E+00 0.  1.
<mgrwt>
<rscale>  0 0.10248366E+04</rscale>
<asrwt>0</asrwt>
<pdfrwt beam="1">  1        2 0.14764001E+00 0.10248366E+04</pdfrwt>
<pdfrwt beam="2">  1       -2 0.42093830E-01 0.10248366E+04</pdfrwt>
<totfact> 0.14259714E+02</totfact>
</mgrwt>
</event>
<event>
 6    1  0.5040916E-004  0.8343226E+03  0.7818608E-02  0.9511624E-01
         -4   -1    0    0    0  501 -0.00000000000E+00  0.00000000000E+00  0.20847853010E+03  0.20847853010E+03  0.00000000000E+00 0. -1.
          4   -1    0    0  501    0  0.00000000000E+00 -0.00000000000E+00 -0.83473121358E+03  0.83473121358E+03  0.00000000000E+00 0.  1.
         23    2    1    2    0    0  0.11878444891E+02  0.31141879882E+03  0.17790022417E+02  0.32772824655E+03  0.99832624815E+02 0.  0.
         11    1    3    3    0    0  0.41974727619E+01  0.16970193107E+03 -0.40141347583E+02  0.17443535184E+03  0.00000000000E+00 0.  1.
        -11    1    3    3    0    0  0.76809721294E+01  0.14171686775E+03  0.57931370000E+02  0.15329289471E+03  0.00000000000E+00 0. -1.
         22    1    1    2    0    0 -0.11878444891E+02 -0.31141879882E+03 -0.64404270590E+03  0.71548149713E+03  0.00000000000E+00 0.  1.
<mgrwt>
<rscale>  0 0.83432257E+03</rscale>
<asrwt>0</asrwt>
<pdfrwt beam="1">  1        4 0.12842018E+00 0.83432257E+03</pdfrwt>
<pdfrwt beam="2">  1       -4 0.32073621E-01 0.83432257E+03</pdfrwt>
<totfact> 0.83956337E+00</totfact>
</mgrwt>
</event>
<event>
 6    1  0.5040916E-004  0.2485770E+04  0.7818608E-02  0.8408073E-01
          2   -1    0    0  501    0  0.00000000000E+00  0.00000000000E+00  0.10692298045E+04  0.10692298045E+04  0.00000000000E+00 0.  1.
         -2   -1    0    0    0  501 -0.00000000000E+00 -0.00000000000E+00 -0.14447438805E+04  0.14447438805E+04  0.00000000000E+00 0. -1.
         23    2    1    2    0    0 -0.13393411463E+03 -0.70063268397E+03  0.83938904559E+03  0.11051393797E+04  0.89076225188E+02 0.  0.
         13    1    3    3    0    0 -0.70147088205E+02 -0.17000646527E+03  0.23323295710E+03  0.29701923253E+03  0.00000000000E+00 0. -1.
        -13    1    3    3    0    0 -0.63787026425E+02 -0.53062621870E+03  0.60615608849E+03  0.80812014721E+03  0.00000000000E+00 0.  1.
         22    1    1    2    0    0  0.13393411463E+03  0.70063268397E+03 -0.12149031216E+04  0.14088343053E+04  0.00000000000E+00 0. -1.
<mgrwt>
<rscale>  0 0.24857701E+04</rscale>
<asrwt>0</asrwt>
<pdfrwt beam="1">  1        2 0.16449689E+00 0.24857701E+04</pdfrwt>
<pdfrwt beam="2">  1       -2 0.22226829E+00 0.24857701E+04</pdfrwt>
<totfact> 0.19436498E+00</totfact>
</mgrwt>
</event>
<event>
 6    1  0.5040916E-004  0.3250860E+04  0.7818608E-02  0.8175513E-01
         -2   -1    0    0    0  501 -0.00000000000E+00  0.00000000000E+00  0.17139445409E+04  0.17139445409E+04  0.00000000000E+00 0. -1.
          2   -1    0    0  501    0  0.00000000000E+00 -0.00000000000E+00 -0.15414868146E+04  0.15414868146E+04  0.00000000000E+00 0.  1.
         23    2    1    2    0    0  0.11976438260E+04  0.10501970780E+04  0.40411946921E+03  0.16457941915E+04  0.89784959056E+02 0.  0.
         11    1    3    3    0    0  0.98922120188E+03  0.82173393013E+03  0.33480774267E+03  0.13288722522E+04  0.00000000000E+00 0. -1.
        -11    1    3    3    0    0  0.20842262414E+03  0.22846314782E+03  0.69311726538E+02  0.31692193929E+03  0.00000000000E+00 0.  1.
         22    1    1    2    0    0 -0.11976438260E+04 -0.10501970780E+04 -0.23166174289E+03  0.16096371640E+04  0.00000000000E+00 0.  1.
<mgrwt>
<rscale>  0 0.32508601E+04</rscale>
<asrwt>0</asrwt>
<pdfrwt beam="1">  1        2 0.23715182E+00 0.32508601E+04</pdfrwt>
<pdfrwt beam="2">  1       -2 0.26368378E+00 0.32508601E+04</pdfrwt>
<totfact> 0.53428572E-01</totfact>
</mgrwt>
</event>
<event>
 6    1  0.5040916E-004  0.1200744E+04  0.7818608E-02  0.9112206E-01
          2   -1    0    0  501    0  0.00000000000E+00  0.00000000000E+00  0.36885568681E+03  0.36885568681E+03  0.00000000000E+00 0.  1.
         -2   -1    0    0    0  501 -0.00000000000E+00 -0.00000000000E+00 -0.97720173017E+03  0.97720173017E+03  0.00000000000E+00 0. -1.
         23    2    1    2    0    0 -0.76823914138E+02 -0.52566076425E+03 -0.16482100224E+01  0.53964349483E+03  0.94822107428E+02 0.  0.
         11    1    3    3    0    0 -0.73650312136E+02 -0.22149259689E+03 -0.23950944688E+02  0.23464225260E+03  0.00000000000E+00 0. -1.
        -11    1    3    3    0    0 -0.31736020018E+01 -0.30416816736E+03  0.22302734666E+02  0.30500124223E+03  0.00000000000E+00 0.  1.
         22    1    1    2    0    0  0.76823914138E+02  0.52566076425E+03 -0.60669783334E+03  0.80641392215E+03  0.00000000000E+00 0. -1.
<mgrwt>
<rscale>  0 0.12007438E+04</rscale>
<asrwt>0</asrwt>
<pdfrwt beam="1">  1        2 0.56747029E-01 0.12007438E+04</pdfrwt>
<pdfrwt beam="2">  1       -2 0.15033873E+00 0.12007438E+04</pdfrwt>
<totfact> 0.25574868E+01</totfact>
</mgrwt>
</event>
<event>
 6    1  0.6589797E-004  0.3742453E+04  0.7818608E-02  0.8058618E-01
         -2   -1    0    0    0  501 -0.00000000000E+00  0.00000000000E+00  0.20356510750E+04  0.20356510750E+04  0.00000000000E+00 0. -1.
          2   -1    0    0  501    0  0.00000000000E+00 -0.00000000000E+00 -0.17200826936E+04  0.17200826936E+04  0.00000000000E+00 0.  1.
         23    2    1    2    0    0 -0.15007435614E+04  0.85817949442E+02  0.12743446704E+04  0.19728013722E+04  0.91624002568E+02 0.  0.
         13    1    3    3    0    0 -0.85488886744E+03  0.21580915745E+02  0.77180321173E+03  0.11519465740E+04  0.00000000000E+00 0.  1.
        -13    1    3    3    0    0 -0.64585469397E+03  0.64237033698E+02  0.50254145862E+03  0.82085479828E+03  0.00000000000E+00 0. -1.
         22    1    1    2    0    0  0.15007435614E+04 -0.85817949442E+02 -0.95877628899E+03  0.17829323963E+04  0.00000000000E+00 0.  1.
<mgrwt>
<rscale>  0 0.37424528E+04</rscale>
<asrwt>0</asrwt>
<pdfrwt beam="1">  1        2 0.26462811E+00 0.37424528E+04</pdfrwt>
<pdfrwt beam="2">  1       -2 0.31317709E+00 0.37424528E+04</pdfrwt>
<totfact> 0.20310000E-01</totfact>
</mgrwt>
</event>
<event>
 6    1  0.5040916E-004  0.3714996E+04  0.7818608E-02  0.8064647E-01
         -2   -1    0    0    0  501 -0.00000000000E+00  0.00000000000E+00  0.15997369731E+04  0.15997369731E+04  0.00000000000E+00 0. -1.
          2   -1    0    0  501    0  0.00000000000E+00 -0.00000000000E+00 -0.21567917101E+04  0.21567917101E+04  0.00000000000E+00 0.  1.
         23    2    1    2    0    0 -0.12511784309E+04  0.13711898388E+04 -0.30033514059E+03  0.18826252729E+04  0.92020004467E+02 0.  0.
         11    1    3    3    0    0 -0.80174538721E+03  0.93549940637E+03 -0.17829570055E+03  0.12448872086E+04  0.00000000000E+00 0. -1.
        -11    1    3    3    0    0 -0.44943304372E+03  0.43569043248E+03 -0.12203944004E+03  0.63773806431E+03  0.00000000000E+00 0.  1.
         22    1    1    2    0    0  0.12511784309E+04 -0.13711898388E+04 -0.25671959644E+03  0.18739034104E+04  0.00000000000E+00 0.  1.
<mgrwt>
<rscale>  0 0.37149963E+04</rscale>
<asrwt>0</asrwt>
<pdfrwt beam="1">  1        2 0.33181411E+00 0.37149963E+04</pdfrwt>
<pdfrwt beam="2">  1       -2 0.24611338E+00 0.37149963E+04</pdfrwt>
<totfact> 0.29942011E-01</totfact>
</mgrwt>
</event>
<event>
 6    1  0.5040916E-004  0.2288335E+04  0.7818608E-02  0.8482535E-01
          2   -1    0    0  501    0  0.00000000000E+00  0.00000000000E+00  0.18312199769E+04  0.18312199769E+04  0.00000000000E+00 0.  1.
         -2   -1    0    0    0  501 -0.00000000000E+00 -0.00000000000E+00 -0.71488908210E+03  0.71488908210E+03  0.00000000000E+00 0. -1.
         23    2    1    2    0    0  0.73096560732E+03 -0.68239257674E+03 -0.55232750117E+02  0.10058065816E+04  0.92875588693E+02 0.  0.
         11    1    3    3    0    0  0.50773839357E+03 -0.46041065157E+03  0.42982127539E+01  0.68541572715E+03  0.00000000000E+00 0. -1.
        -11    1    3    3    0    0  0.22322721374E+03 -0.22198192517E+03 -0.59530962871E+02  0.32039085443E+03  0.00000000000E+00 0.  1.
         22    1    1    2    0    0 -0.73096560732E+03  0.68239257674E+03  0.11715636449E+04  0.15403024774E+04  0.00000000000E+00 0. -1.
<mgrwt>
<rscale>  0 0.22883349E+04</rscale>
<asrwt>0</asrwt>
<pdfrwt beam="1">  1        2 0.28172615E+00 0.22883349E+04</pdfrwt>
<pdfrwt beam="2">  1       -2 0.10998294E+00 0.22883349E+04</pdfrwt>
<totfact> 0.49454753E+00</totfact>
</mgrwt>
</event>
<event>
 6    1  0.5040916E-004  0.6672316E+04  0.7818608E-02  0.7612207E-01
          2   -1    0    0  501    0  0.00000000000E+00  0.00000000000E+00  0.23504352995E+04  0.23504352995E+04  0.00000000000E+00 0.  1.
         -2   -1    0    0    0  501 -0.00000000000E+00 -0.00000000000E+00 -0.47352720748E+04  0.47352720748E+04  0.00000000000E+00 0. -1.
         23    2    1    2    0    0  0.24619206540E+04 -0.13674034917E+04  0.70557698454E+03  0.29046186617E+04  0.90139189075E+02 0.  0.
         13    1    3    3    0    0  0.21224553915E+04 -0.12081586963E+04  0.62886415636E+03  0.25218910467E+04  0.00000000000E+00 0.  1.
        -13    1    3    3    0    0  0.33946526247E+03 -0.15924479535E+03  0.76712828187E+02  0.38272761500E+03  0.00000000000E+00 0. -1.
         22    1    1    2    0    0 -0.24619206540E+04  0.13674034917E+04 -0.30904137598E+04  0.41810887126E+04  0.00000000000E+00 0. -1.
<mgrwt>
<rscale>  0 0.66723161E+04</rscale>
<asrwt>0</asrwt>
<pdfrwt beam="1">  1        2 0.36160543E+00 0.66723161E+04</pdfrwt>
<pdfrwt beam="2">  1       -2 0.72850339E+00 0.66723161E+04</pdfrwt>
<totfact> 0.49056355E-04</totfact>
</mgrwt>
</event>
<event>
 6    1  0.5040916E-004  0.4771670E+03  0.7818608E-02  0.1019917E+00
          2   -1    0    0  501    0  0.00000000000E+00  0.00000000000E+00  0.11219191537E+04  0.11219191537E+04  0.00000000000E+00 0.  1.
         -2   -1    0    0    0  501 -0.00000000000E+00 -0.00000000000E+00 -0.50736342701E+02  0.50736342701E+02  0.00000000000E+00 0. -1.
         23    2    1    2    0    0  0.10733546219E+03 -0.16449496786E+03  0.84680127872E+03  0.87444991643E+03  0.94924995666E+02 0.  0.
         11    1    3    3    0    0 -0.43935473622E+01 -0.74230142243E+02  0.30474580682E+03  0.31368682480E+03  0.00000000000E+00 0.  1.
        -11    1    3    3    0    0  0.11172900955E+03 -0.90264825616E+02  0.54205547190E+03  0.56076309163E+03  0.00000000000E+00 0. -1.
         22    1    1    2    0    0 -0.10733546219E+03  0.16449496786E+03  0.22438153224E+03  0.29820557994E+03  0.00000000000E+00 0. -1.
<mgrwt>
<rscale>  0 0.47716695E+03</rscale>
<asrwt>0</asrwt>
<pdfrwt beam="1">  1        2 0.17260293E+00 0.47716695E+03</pdfrwt>
<pdfrwt beam="2">  1       -2 0.78055920E-02 0.47716695E+03</pdfrwt>
<totfact> 0.21789662E+03</totfact>
</mgrwt>
</event>
<event>
 6    1  0.5040916E-004  0.2796176E+04  0.7818608E-02  0.8304456E-01
          2   -1    0    0  501    0  0.00000000000E+00  0.00000000000E+00  0.20814542476E+04  0.20814542476E+04  0.00000000000E+00 0.  1.
         -2   -1    0    0    0  501 -0.00000000000E+00 -0.00000000000E+00 -0.93907935751E+03  0.93907935751E+03  0.00000000000E+00 0. -1.
         23    2    1    2    0    0 -0.10829741130E+04 -0.36229771500E+03  0.14400617109E+04  0.18404022535E+04  0.95969576108E+02 0.  0.
         11    1    3    3    0    0 -0.99186904195E+03 -0.34639032303E+03  0.12846343471E+04  0.16595408576E+04  0.00000000000E+00 0.  1.
        -11    1    3    3    0    0 -0.91105071070E+02 -0.15907391977E+02  0.15542736381E+03  0.18086139587E+03  0.00000000000E+00 0. -1.
         22    1    1    2    0    0  0.10829741130E+04  0.36229771500E+03 -0.29768682085E+03  0.11801313516E+04  0.00000000000E+00 0. -1.
<mgrwt>
<rscale>  0 0.27961765E+04</rscale>
<asrwt>0</asrwt>
<pdfrwt beam="1">  1        2 0.32022373E+00 0.27961765E+04</pdfrwt>
<pdfrwt beam="2">  1       -2 0.14447375E+00 0.27961765E+04</pdfrwt>
<totfact> 0.17329041E+00</totfact>
</mgrwt>
</event>
<event>
 6    1  0.5040916E-004  0.2157156E+04  0.7818608E-02  0.8536475E-01
         -2   -1    0    0    0  501 -0.00000000000E+00  0.00000000000E+00  0.27720655217E+03  0.27720655217E+03  0.00000000000E+00 0. -1.
          2   -1    0    0  501    0  0.00000000000E+00 -0.00000000000E+00 -0.41966204351E+04  0.41966204351E+04  0.00000000000E+00 0.  1.
         23    2    1    2    0    0 -0.66789762814E+02 -0.83730499172E+03 -0.33599643707E+04  0.34646073489E+04  0.92752297159E+02 0.  0.
         11    1    3    3    0    0 -0.90016126742E+01 -0.14407432752E+03 -0.73437845079E+03  0.74843179373E+03  0.00000000000E+00 0. -1.
        -11    1    3    3    0    0 -0.57788150139E+02 -0.69323066421E+03 -0.26255859199E+04  0.27161755552E+04  0.00000000000E+00 0.  1.
         22    1    1    2    0    0  0.66789762814E+02  0.83730499172E+03 -0.55944951222E+03  0.10092196383E+04  0.00000000000E+00 0. -1.
<mgrwt>
<rscale>  0 0.21571562E+04</rscale>
<asrwt>0</asrwt>
<pdfrwt beam="1">  1        2 0.64563381E+00 0.21571562E+04</pdfrwt>
<pdfrwt beam="2">  1       -2 0.42647169E-01 0.21571562E+04</pdfrwt>
<totfact> 0.11300981E+00</totfact>
</mgrwt>
</event>
<event>
 6    1  0.5040916E-004  0.1394914E+04  0.7818608E-02  0.8957509E-01
         -2   -1    0    0    0  501 -0.00000000000E+00  0.00000000000E+00  0.59590193252E+03  0.59590193252E+03  0.00000000000E+00 0. -1.
          2   -1    0    0  501    0  0.00000000000E+00 -0.00000000000E+00 -0.81631899723E+03  0.81631899723E+03  0.00000000000E+00 0.  1.
         23    2    1    2    0    0  0.41822495288E+03 -0.76877172060E+02 -0.66713962114E+03  0.79546874839E+03  0.82903828455E+02 0.  0.
         11    1    3    3    0    0  0.20997043908E+03 -0.58907267472E+02 -0.40710801726E+03  0.46183827166E+03  0.00000000000E+00 0.  1.
        -11    1    3    3    0    0  0.20825451380E+03 -0.17969904588E+02 -0.26003160388E+03  0.33363047673E+03  0.00000000000E+00 0. -1.
         22    1    1    2    0    0 -0.41822495288E+03  0.76877172060E+02  0.44672255642E+03  0.61675218136E+03  0.00000000000E+00 0. -1.
<mgrwt>
<rscale>  0 0.13949137E+04</rscale>
<asrwt>0</asrwt>
<pdfrwt beam="1">  1        2 0.12558754E+00 0.13949137E+04</pdfrwt>
<pdfrwt beam="2">  1       -2 0.91677220E-01 0.13949137E+04</pdfrwt>
<totfact> 0.33065930E+01</totfact>
</mgrwt>
</event>
<event>
 6    1  0.5040916E-004  0.1924751E+04  0.7818608E-02  0.8642633E-01
          2   -1    0    0  501    0  0.00000000000E+00  0.00000000000E+00  0.25931135415E+04  0.25931135415E+04  0.00000000000E+00 0.  1.
         -2   -1    0    0    0  501 -0.00000000000E+00 -0.00000000000E+00 -0.35716410251E+03  0.35716410251E+03  0.00000000000E+00 0. -1.
         23    2    1    2    0    0 -0.38562321238E+03  0.61422863549E+03  0.20850961537E+04  0.22095085894E+04  0.91214898277E+02 0.  0.
         13    1    3    3    0    0 -0.15718534018E+03  0.18087534082E+03  0.75173523197E+03  0.78900505643E+03  0.00000000000E+00 0.  1.
        -13    1    3    3    0    0 -0.22843787220E+03  0.43335329466E+03  0.13333609218E+04  0.14205035330E+04  0.00000000000E+00 0. -1.
         22    1    1    2    0    0  0.38562321238E+03 -0.61422863549E+03  0.15085328521E+03  0.74076905459E+03  0.00000000000E+00 0. -1.
<mgrwt>
<rscale>  0 0.19247515E+04</rscale>
<asrwt>0</asrwt>
<pdfrwt beam="1">  1        2 0.39894053E+00 0.19247515E+04</pdfrwt>
<pdfrwt beam="2">  1       -2 0.54948325E-01 0.19247515E+04</pdfrwt>
<totfact> 0.89532653E+00</totfact>
</mgrwt>
</event>
<event>
 6    1  0.5040916E-004  0.3971533E+04  0.7818608E-02  0.8010314E-01
          2   -1    0    0  501    0  0.00000000000E+00  0.00000000000E+00  0.24756867599E+04  0.24756867599E+04  0.00000000000E+00 0. -1.
         -2   -1    0    0    0  501 -0.00000000000E+00 -0.00000000000E+00 -0.15927977053E+04  0.15927977053E+04  0.00000000000E+00 0.  1.
         23    2    1    2    0    0 -0.10418681598E+04  0.24069188916E+03 -0.12711784213E+04  0.16636084728E+04  0.90976503842E+02 0.  0.
         13    1    3    3    0    0 -0.15699702812E+03  0.36185048209E+01 -0.19199397570E+03  0.24803799531E+03  0.00000000000E+00 0.  1.
        -13    1    3    3    0    0 -0.88487113168E+03  0.23707338434E+03 -0.10791844456E+04  0.14155704775E+04  0.00000000000E+00 0. -1.
         22    1    1    2    0    0  0.10418681598E+04 -0.24069188916E+03  0.21540674759E+04  0.24048759924E+04  0.00000000000E+00 0. -1.
<mgrwt>
<rscale>  0 0.39715328E+04</rscale>
<asrwt>0</asrwt>
<pdfrwt beam="1">  1        2 0.38087489E+00 0.39715328E+04</pdfrwt>
<pdfrwt beam="2">  1       -2 0.24504580E+00 0.39715328E+04</pdfrwt>
<totfact> 0.19601993E-01</totfact>
</mgrwt>
</event>
<event>
 6    1  0.5040916E-004  0.2365815E+04  0.7818608E-02  0.8452414E-01
          1   -1    0    0  501    0  0.00000000000E+00  0.00000000000E+00  0.19970261324E+04  0.19970261324E+04  0.00000000000E+00 0.  1.
         -1   -1    0    0    0  501 -0.00000000000E+00 -0.00000000000E+00 -0.70067683617E+03  0.70067683617E+03  0.00000000000E+00 0. -1.
         23    2    1    2    0    0 -0.49801913772E+03 -0.10335550249E+04  0.96929450722E+03  0.15047134941E+04  0.91497576953E+02 0.  0.
         11    1    3    3    0    0 -0.72253657624E+02 -0.88839992083E+02  0.10473271292E+03  0.15518400816E+03  0.00000000000E+00 0.  1.
        -11    1    3    3    0    0 -0.42576548010E+03 -0.94471503285E+03  0.86456179430E+03  0.13495294860E+04  0.00000000000E+00 0. -1.
         22    1    1    2    0    0  0.49801913772E+03  0.10335550249E+04  0.32705478901E+03  0.11929894744E+04  0.00000000000E+00 0. -1.
<mgrwt>
<rscale>  0 0.23658148E+04</rscale>
<asrwt>0</asrwt>
<pdfrwt beam="1">  1        1 0.30723479E+00 0.23658148E+04</pdfrwt>
<pdfrwt beam="2">  1       -1 0.10779644E+00 0.23658148E+04</pdfrwt>
<totfact> 0.21536282E+00</totfact>
</mgrwt>
</event>
<event>
 6    1  0.5040916E-004  0.3326411E+04  0.7818608E-02  0.8156208E-01
          2   -1    0    0  501    0  0.00000000000E+00  0.00000000000E+00  0.30984302676E+04  0.30984302676E+04  0.00000000000E+00 0. -1.
         -2   -1    0    0    0  501 -0.00000000000E+00 -0.00000000000E+00 -0.89279144030E+03  0.89279144030E+03  0.00000000000E+00 0.  1.
         23    2    1    2    0    0  0.46977619058E+03 -0.66856806872E+03 -0.63283983799E+03  0.10374725539E+04  0.90499213860E+02 0.  0.
         11    1    3    3    0    0  0.33450830302E+03 -0.42896972320E+03 -0.37776333086E+03  0.66228087875E+03  0.00000000000E+00 0. -1.
        -11    1    3    3    0    0  0.13526788755E+03 -0.23959834552E+03 -0.25507650713E+03  0.37519167511E+03  0.00000000000E+00 0.  1.
         22    1    1    2    0    0 -0.46977619058E+03  0.66856806872E+03  0.28384786653E+04  0.29537491540E+04  0.00000000000E+00 0. -1.
<mgrwt>
<rscale>  0 0.33264107E+04</rscale>
<asrwt>0</asrwt>
<pdfrwt beam="1">  1        2 0.47668158E+00 0.33264107E+04</pdfrwt>
<pdfrwt beam="2">  1       -2 0.13735253E+00 0.33264107E+04</pdfrwt>
<totfact> 0.47400316E-01</totfact>
</mgrwt>
</event>
<event>
 6    1  0.5040916E-004  0.1839273E+04  0.7818608E-02  0.8685689E-01
          2   -1    0    0  501    0  0.00000000000E+00  0.00000000000E+00  0.93615474391E+03  0.93615474391E+03  0.00000000000E+00 0.  1.
         -2   -1    0    0    0  501 -0.00000000000E+00 -0.00000000000E+00 -0.90340930320E+03  0.90340930320E+03  0.00000000000E+00 0. -1.
         23    2    1    2    0    0 -0.54638268808E+03  0.17013813695E+03  0.73281526867E+03  0.93536341036E+03  0.10200717600E+03 0.  0.
         11    1    3    3    0    0 -0.23468500848E+03  0.12630750901E+03  0.33601124230E+03  0.42887550057E+03  0.00000000000E+00 0. -1.
        -11    1    3    3    0    0 -0.31169767960E+03  0.43830627939E+02  0.39680402638E+03  0.50648790979E+03  0.00000000000E+00 0.  1.
         22    1    1    2    0    0  0.54638268808E+03 -0.17013813695E+03 -0.70006982796E+03  0.90420063675E+03  0.00000000000E+00 0. -1.
<mgrwt>
<rscale>  0 0.18392726E+04</rscale>
<asrwt>0</asrwt>
<pdfrwt beam="1">  1        2 0.14402381E+00 0.18392726E+04</pdfrwt>
<pdfrwt beam="2">  1       -2 0.13898605E+00 0.18392726E+04</pdfrwt>
<totfact> 0.95502122E+00</totfact>
</mgrwt>
</event>
<event>
 6    1  0.5040916E-004  0.2106020E+04  0.7818608E-02  0.8558596E-01
          2   -1    0    0  501    0  0.00000000000E+00  0.00000000000E+00  0.21424444733E+04  0.21424444733E+04  0.00000000000E+00 0.  1.
         -2   -1    0    0    0  501 -0.00000000000E+00 -0.00000000000E+00 -0.51755377770E+03  0.51755377770E+03  0.00000000000E+00 0. -1.
         23    2    1    2    0    0  0.36643539048E+03  0.40785766046E+03  0.19466038089E+04  0.20242922704E+04  0.88713247785E+02 0.  0.
         13    1    3    3    0    0  0.23681033872E+03  0.25384017171E+03  0.13798434723E+04  0.14228429208E+04  0.00000000000E+00 0.  1.
        -13    1    3    3    0    0  0.12962505176E+03  0.15401748875E+03  0.56676033663E+03  0.60144934954E+03  0.00000000000E+00 0. -1.
         22    1    1    2    0    0 -0.36643539048E+03 -0.40785766046E+03 -0.32171311330E+03  0.63570598067E+03  0.00000000000E+00 0. -1.
<mgrwt>
<rscale>  0 0.21060202E+04</rscale>
<asrwt>0</asrwt>
<pdfrwt beam="1">  1        2 0.32960684E+00 0.21060202E+04</pdfrwt>
<pdfrwt beam="2">  1       -2 0.79623659E-01 0.21060202E+04</pdfrwt>
<totfact> 0.71578723E+00</totfact>
</mgrwt>
</event>
<event>
 6    1  0.5040916E-004  0.3248172E+04  0.7818608E-02  0.8176210E-01
         -1   -1    0    0    0  501 -0.00000000000E+00  0.00000000000E+00  0.53970426417E+03  0.53970426417E+03  0.00000000000E+00 0. -1.
          1   -1    0    0  501    0  0.00000000000E+00 -0.00000000000E+00 -0.48872226001E+04  0.48872226001E+04  0.00000000000E+00 0.  1.
         23    2    1    2    0    0  0.93533166177E+03 -0.13002774415E+04 -0.26108356202E+04  0.30643787489E+04  0.91584596433E+02 0.  0.
         11    1    3    3    0    0  0.50270121660E+03 -0.77337837027E+03 -0.15249992056E+04  0.17822584532E+04  0.00000000000E+00 0.  1.
        -11    1    3    3    0    0  0.43263044517E+03 -0.52689907127E+03 -0.10858364146E+04  0.12821202957E+04  0.00000000000E+00 0. -1.
         22    1    1    2    0    0 -0.93533166177E+03  0.13002774415E+04 -0.17366827157E+04  0.23625481154E+04  0.00000000000E+00 0. -1.
<mgrwt>
<rscale>  0 0.32481717E+04</rscale>
<asrwt>0</asrwt>
<pdfrwt beam="1">  1        1 0.75188039E+00 0.32481717E+04</pdfrwt>
<pdfrwt beam="2">  1       -1 0.83031427E-01 0.32481717E+04</pdfrwt>
<totfact> 0.14291577E-02</totfact>
</mgrwt>
</event>
<event>
 6    1  0.5040916E-004  0.4029024E+04  0.7818608E-02  0.7998717E-01
         -2   -1    0    0    0  501 -0.00000000000E+00  0.00000000000E+00  0.15102733153E+04  0.15102733153E+04  0.00000000000E+00 0. -1.
          2   -1    0    0  501    0  0.00000000000E+00 -0.00000000000E+00 -0.26871026352E+04  0.26871026352E+04  0.00000000000E+00 0.  1.
         23    2    1    2    0    0  0.19426400606E+04 -0.47727868277E+03 -0.34963134548E+03  0.20326815529E+04  0.88920592037E+02 0.  0.
         13    1    3    3    0    0  0.82385674281E+03 -0.17309203440E+03 -0.11319026740E+03  0.84941910838E+03  0.00000000000E+00 0. -1.
        -13    1    3    3    0    0  0.11187833178E+04 -0.30418664837E+03 -0.23644107808E+03  0.11832624445E+04  0.00000000000E+00 0.  1.
         22    1    1    2    0    0 -0.19426400606E+04  0.47727868277E+03 -0.82719797446E+03  0.21646943976E+04  0.00000000000E+00 0.  1.
<mgrwt>
<rscale>  0 0.40290244E+04</rscale>
<asrwt>0</asrwt>
<pdfrwt beam="1">  1        2 0.41340040E+00 0.40290244E+04</pdfrwt>
<pdfrwt beam="2">  1       -2 0.23234974E+00 0.40290244E+04</pdfrwt>
<totfact> 0.17580282E-01</totfact>
</mgrwt>
</event>
<event>
 6    1  0.5040916E-004  0.1884151E+04  0.7818608E-02  0.8662786E-01
         -2   -1    0    0    0  501 -0.00000000000E+00  0.00000000000E+00  0.65369452931E+03  0.65369452931E+03  0.00000000000E+00 0. -1.
          2   -1    0    0  501    0  0.00000000000E+00 -0.00000000000E+00 -0.13576780545E+04  0.13576780545E+04  0.00000000000E+00 0.  1.
         23    2    1    2    0    0  0.47114615436E+03  0.27220373302E+03  0.46522205496E+03  0.72175432258E+03  0.91783281121E+02 0.  0.
         13    1    3    3    0    0  0.99150236136E+02  0.70096414251E+02  0.15503347449E+03  0.19692550579E+03  0.00000000000E+00 0.  1.
        -13    1    3    3    0    0  0.37199591823E+03  0.20210731877E+03  0.31018858047E+03  0.52482881679E+03  0.00000000000E+00 0. -1.
         22    1    1    2    0    0 -0.47114615436E+03 -0.27220373302E+03 -0.11692055801E+04  0.12896182612E+04  0.00000000000E+00 0.  1.
<mgrwt>
<rscale>  0 0.18841515E+04</rscale>
<asrwt>0</asrwt>
<pdfrwt beam="1">  1        2 0.20887355E+00 0.18841515E+04</pdfrwt>
<pdfrwt beam="2">  1       -2 0.10056839E+00 0.18841515E+04</pdfrwt>
<totfact> 0.11698019E+01</totfact>
</mgrwt>
</event>
<event>
 6    1  0.5040916E-004  0.3272724E+04  0.7818608E-02  0.8169871E-01
         -1   -1    0    0    0  501 -0.00000000000E+00  0.00000000000E+00  0.86261664604E+03  0.86261664604E+03  0.00000000000E+00 0.  1.
          1   -1    0    0  501    0  0.00000000000E+00 -0.00000000000E+00 -0.31041372103E+04  0.31041372103E+04  0.00000000000E+00 0. -1.
         23    2    1    2    0    0 -0.27943168803E+03 -0.52363570158E+03 -0.29683039937E+04  0.30284092663E+04  0.90319815030E+02 0.  0.
         11    1    3    3    0    0 -0.52194656177E+02 -0.85001308445E+02 -0.68929005700E+03  0.69646987534E+03  0.00000000000E+00 0. -1.
        -11    1    3    3    0    0 -0.22723703185E+03 -0.43863439314E+03 -0.22790139367E+04  0.23319393910E+04  0.00000000000E+00 0.  1.
         22    1    1    2    0    0  0.27943168803E+03  0.52363570158E+03  0.72678342947E+03  0.93834459001E+03  0.00000000000E+00 0.  1.
<mgrwt>
<rscale>  0 0.32727239E+04</rscale>
<asrwt>0</asrwt>
<pdfrwt beam="1">  1        1 0.47755957E+00 0.32727239E+04</pdfrwt>
<pdfrwt beam="2">  1       -1 0.13271025E+00 0.32727239E+04</pdfrwt>
<totfact> 0.20034034E-01</totfact>
</mgrwt>
</event>
<event>
 6    1  0.5040916E-004  0.3719946E+04  0.7818608E-02  0.8063556E-01
          2   -1    0    0  501    0  0.00000000000E+00  0.00000000000E+00  0.16303070917E+04  0.16303070917E+04  0.00000000000E+00 0.  1.
         -2   -1    0    0    0  501 -0.00000000000E+00 -0.00000000000E+00 -0.21219920403E+04  0.21219920403E+04  0.00000000000E+00 0. -1.
         23    2    1    2    0    0  0.35907979998E+01  0.15276373313E+04 -0.13143563775E+04  0.20172265141E+04  0.89338749394E+02 0.  0.
         11    1    3    3    0    0  0.28024059221E+00  0.10664815327E+04 -0.97069483268E+03  0.14420927142E+04  0.00000000000E+00 0. -1.
        -11    1    3    3    0    0  0.33105574075E+01  0.46115579853E+03 -0.34366154484E+03  0.57513379984E+03  0.00000000000E+00 0.  1.
         22    1    1    2    0    0 -0.35907979998E+01 -0.15276373313E+04  0.82267142886E+03  0.17350726180E+04  0.00000000000E+00 0.  1.
<mgrwt>
<rscale>  0 0.37199455E+04</rscale>
<asrwt>0</asrwt>
<pdfrwt beam="1">  1        2 0.25081647E+00 0.37199455E+04</pdfrwt>
<pdfrwt beam="2">  1       -2 0.32646032E+00 0.37199455E+04</pdfrwt>
<totfact> 0.18897939E-01</totfact>
</mgrwt>
</event>
<event>
 6    1  0.5040916E-004  0.1768318E+04  0.7818608E-02  0.8723331E-01
         -2   -1    0    0    0  501 -0.00000000000E+00  0.00000000000E+00  0.68394800277E+03  0.68394800277E+03  0.00000000000E+00 0. -1.
          2   -1    0    0  501    0  0.00000000000E+00 -0.00000000000E+00 -0.11429780367E+04  0.11429780367E+04  0.00000000000E+00 0.  1.
         23    2    1    2    0    0  0.51982675674E+03 -0.57386889648E+03 -0.66612516674E+03  0.10254063820E+04  0.90499409267E+02 0.  0.
         13    1    3    3    0    0  0.12388722384E+03 -0.12553441610E+03 -0.20309500552E+03  0.26898794605E+03  0.00000000000E+00 0.  1.
        -13    1    3    3    0    0  0.39593953290E+03 -0.44833448039E+03 -0.46303016122E+03  0.75641843593E+03  0.00000000000E+00 0. -1.
         22    1    1    2    0    0 -0.51982675674E+03  0.57386889648E+03  0.20709513277E+03  0.80151965752E+03  0.00000000000E+00 0. -1.
<mgrwt>
<rscale>  0 0.17683185E+04</rscale>
<asrwt>0</asrwt>
<pdfrwt beam="1">  1        2 0.17584277E+00 0.17683185E+04</pdfrwt>
<pdfrwt beam="2">  1       -2 0.10522277E+00 0.17683185E+04</pdfrwt>
<totfact> 0.14194370E+01</totfact>
</mgrwt>
</event>
<event>
 6    1  0.5040916E-004  0.4222663E+04  0.7818608E-02  0.7961075E-01
         -2   -1    0    0    0  501 -0.00000000000E+00  0.00000000000E+00  0.20664346663E+04  0.20664346663E+04  0.00000000000E+00 0. -1.
          2   -1    0    0  501    0  0.00000000000E+00 -0.00000000000E+00 -0.21572034173E+04  0.21572034173E+04  0.00000000000E+00 0.  1.
         23    2    1    2    0    0  0.13022847107E+04  0.12915607634E+04  0.99865882233E+03  0.20903478757E+04  0.90333407943E+02 0.  0.
         13    1    3    3    0    0  0.53108419651E+03  0.47042456778E+03  0.36504667178E+03  0.79787766627E+03  0.00000000000E+00 0. -1.
        -13    1    3    3    0    0  0.77120051422E+03  0.82113619564E+03  0.63361215055E+03  0.12924702094E+04  0.00000000000E+00 0.  1.
         22    1    1    2    0    0 -0.13022847107E+04 -0.12915607634E+04 -0.10894275733E+04  0.21332902079E+04  0.00000000000E+00 0.  1.
<mgrwt>
<rscale>  0 0.42226626E+04</rscale>
<asrwt>0</asrwt>
<pdfrwt beam="1">  1        2 0.33187745E+00 0.42226626E+04</pdfrwt>
<pdfrwt beam="2">  1       -2 0.31791303E+00 0.42226626E+04</pdfrwt>
<totfact> 0.10431043E-01</totfact>
</mgrwt>
</event>
<event>
 6    1  0.5040916E-004  0.2015370E+04  0.7818608E-02  0.8599468E-01
          2   -1    0    0  501    0  0.00000000000E+00  0.00000000000E+00  0.17873538852E+04  0.17873538852E+04  0.00000000000E+00 0.  1.
         -2   -1    0    0    0  501 -0.00000000000E+00 -0.00000000000E+00 -0.56811848536E+03  0.56811848536E+03  0.00000000000E+00 0. -1.
         23    2    1    2    0    0  0.50570374391E+03  0.60459783169E+03 -0.11889092073E+03  0.80245696030E+03  0.92343421084E+02 0.  0.
         13    1    3    3    0    0  0.33836240233E+03  0.46799146913E+03 -0.81378613742E+02  0.58320460327E+03  0.00000000000E+00 0. -1.
        -13    1    3    3    0    0  0.16734134157E+03  0.13660636256E+03 -0.37512306985E+02  0.21925235704E+03  0.00000000000E+00 0.  1.
         22    1    1    2    0    0 -0.50570374391E+03 -0.60459783169E+03  0.13381263206E+04  0.15530154102E+04  0.00000000000E+00 0.  1.
<mgrwt>
<rscale>  0 0.20153697E+04</rscale>
<asrwt>0</asrwt>
<pdfrwt beam="1">  1        2 0.27497752E+00 0.20153697E+04</pdfrwt>
<pdfrwt beam="2">  1       -2 0.87402845E-01 0.20153697E+04</pdfrwt>
<totfact> 0.91987007E+00</totfact>
</mgrwt>
</event>
<event>
 6    1  0.5040916E-004  0.2068855E+04  0.7818608E-02  0.8575089E-01
         -2   -1    0    0    0  501 -0.00000000000E+00  0.00000000000E+00  0.76526343019E+03  0.76526343019E+03  0.00000000000E+00 0. -1.
          2   -1    0    0  501    0  0.00000000000E+00 -0.00000000000E+00 -0.13982634171E+04  0.13982634171E+04  0.00000000000E+00 0.  1.
         23    2    1    2    0    0  0.29176857778E+03 -0.66433122604E+03  0.45097885598E+03  0.85912084733E+03  0.90784475013E+02 0.  0.
         11    1    3    3    0    0  0.31674046036E+02 -0.11312043692E+03  0.40354386780E+02  0.12420931919E+03  0.00000000000E+00 0.  1.
        -11    1    3    3    0    0  0.26009453175E+03 -0.55121078912E+03  0.41062446920E+03  0.73491152814E+03  0.00000000000E+00 0. -1.
         22    1    1    2    0    0 -0.29176857778E+03  0.66433122604E+03 -0.10839788429E+04  0.13044059999E+04  0.00000000000E+00 0.  1.
<mgrwt>
<rscale>  0 0.20688546E+04</rscale>
<asrwt>0</asrwt>
<pdfrwt beam="1">  1        2 0.21511745E+00 0.20688546E+04</pdfrwt>
<pdfrwt beam="2">  1       -2 0.11773284E+00 0.20688546E+04</pdfrwt>
<totfact> 0.74608342E+00</totfact>
</mgrwt>
</event>
<event>
 6    1  0.5040916E-004  0.2866379E+04  0.7818608E-02  0.8282952E-01
          2   -1    0    0  501    0  0.00000000000E+00  0.00000000000E+00  0.16943872648E+04  0.16943872648E+04  0.00000000000E+00 0.  1.
         -2   -1    0    0    0  501 -0.00000000000E+00 -0.00000000000E+00 -0.12122566180E+04  0.12122566180E+04  0.00000000000E+00 0. -1.
         23    2    1    2    0    0  0.14194174857E+04 -0.17105909309E+03  0.16367813856E+03  0.14419189216E+04  0.91282152119E+02 0.  0.
         11    1    3    3    0    0  0.84115027397E+02  0.38195534903E+01  0.26357178362E+02  0.88230537084E+02  0.00000000000E+00 0. -1.
        -11    1    3    3    0    0  0.13353024583E+04 -0.17487864658E+03  0.13732096020E+03  0.13536883845E+04  0.00000000000E+00 0.  1.
         22    1    1    2    0    0 -0.14194174857E+04  0.17105909309E+03  0.31845250823E+03  0.14647249612E+04  0.00000000000E+00 0. -1.
<mgrwt>
<rscale>  0 0.28663790E+04</rscale>
<asrwt>0</asrwt>
<pdfrwt beam="1">  1        2 0.26067496E+00 0.28663790E+04</pdfrwt>
<pdfrwt beam="2">  1       -2 0.18650102E+00 0.28663790E+04</pdfrwt>
<totfact> 0.13992753E+00</totfact>
</mgrwt>
</event>
<event>
 6    1  0.5040916E-004  0.4161839E+04  0.7818608E-02  0.7972671E-01
         -2   -1    0    0    0  501 -0.00000000000E+00  0.00000000000E+00  0.20781439161E+04  0.20781439161E+04  0.00000000000E+00 0. -1.
          2   -1    0    0  501    0  0.00000000000E+00 -0.00000000000E+00 -0.20836991598E+04  0.20836991598E+04  0.00000000000E+00 0.  1.
         23    2    1    2    0    0  0.32669249275E+03 -0.23345703104E+03 -0.20435175820E+04  0.20847006489E+04  0.93715086580E+02 0.  0.
         11    1    3    3    0    0  0.25087726067E+03 -0.18939734429E+03 -0.17627612080E+04  0.17905691359E+04  0.00000000000E+00 0. -1.
        -11    1    3    3    0    0  0.75815232079E+02 -0.44059686757E+02 -0.28075637394E+03  0.29413151297E+03  0.00000000000E+00 0.  1.
         22    1    1    2    0    0 -0.32669249275E+03  0.23345703104E+03  0.20379623382E+04  0.20771424270E+04  0.00000000000E+00 0. -1.
<mgrwt>
<rscale>  0 0.41618394E+04</rscale>
<asrwt>0</asrwt>
<pdfrwt beam="1">  1        2 0.32056910E+00 0.41618394E+04</pdfrwt>
<pdfrwt beam="2">  1       -2 0.31971445E+00 0.41618394E+04</pdfrwt>
<totfact> 0.11232697E-01</totfact>
</mgrwt>
</event>
<event>
 6    1  0.5040916E-004  0.1372978E+04  0.7818608E-02  0.8973614E-01
         -2   -1    0    0    0  501 -0.00000000000E+00  0.00000000000E+00  0.24089129630E+03  0.24089129630E+03  0.00000000000E+00 0. -1.
          2   -1    0    0  501    0  0.00000000000E+00 -0.00000000000E+00 -0.19563478868E+04  0.19563478868E+04  0.00000000000E+00 0.  1.
         23    2    1    2    0    0 -0.26832031144E+03 -0.44165165558E+03 -0.14566128958E+03  0.54457186595E+03  0.91045765908E+02 0.  0.
         11    1    3    3    0    0 -0.20076913939E+03 -0.33128416362E+03 -0.66955304851E+02  0.39311634059E+03  0.00000000000E+00 0.  1.
        -11    1    3    3    0    0 -0.67551172051E+02 -0.11036749197E+03 -0.78705984727E+02  0.15145552535E+03  0.00000000000E+00 0. -1.
         22    1    1    2    0    0  0.26832031144E+03  0.44165165558E+03 -0.15697953009E+04  0.16526673171E+04  0.00000000000E+00 0.  1.
<mgrwt>
<rscale>  0 0.13729780E+04</rscale>
<asrwt>0</asrwt>
<pdfrwt beam="1">  1        2 0.30097659E+00 0.13729780E+04</pdfrwt>
<pdfrwt beam="2">  1       -2 0.37060201E-01 0.13729780E+04</pdfrwt>
<totfact> 0.47304820E+01</totfact>
</mgrwt>
</event>
<event>
 6    1  0.5040916E-004  0.4627393E+04  0.7818608E-02  0.7888706E-01
         -2   -1    0    0    0  501 -0.00000000000E+00  0.00000000000E+00  0.26262808184E+04  0.26262808184E+04  0.00000000000E+00 0. -1.
          2   -1    0    0  501    0  0.00000000000E+00 -0.00000000000E+00 -0.20383161792E+04  0.20383161792E+04  0.00000000000E+00 0.  1.
         23    2    1    2    0    0 -0.62739617996E+03 -0.61311947856E+03  0.24512494208E+04  0.26051379331E+04  0.92620007059E+02 0.  0.
         11    1    3    3    0    0 -0.30408442388E+03 -0.34584227358E+03  0.13724600777E+04  0.14476604850E+04  0.00000000000E+00 0. -1.
        -11    1    3    3    0    0 -0.32331175608E+03 -0.26727720498E+03  0.10787893431E+04  0.11574774480E+04  0.00000000000E+00 0.  1.
         22    1    1    2    0    0  0.62739617996E+03  0.61311947856E+03 -0.18632847815E+04  0.20594590646E+04  0.00000000000E+00 0.  1.
<mgrwt>
<rscale>  0 0.46273926E+04</rscale>
<asrwt>0</asrwt>
<pdfrwt beam="1">  1        2 0.31358710E+00 0.46273926E+04</pdfrwt>
<pdfrwt beam="2">  1       -2 0.40404320E+00 0.46273926E+04</pdfrwt>
<totfact> 0.33324071E-02</totfact>
</mgrwt>
</event>
<event>
 6    1  0.5040916E-004  0.2205781E+04  0.7818608E-02  0.8516026E-01
         -2   -1    0    0    0  501 -0.00000000000E+00  0.00000000000E+00  0.64479307413E+03  0.64479307413E+03  0.00000000000E+00 0. -1.
          2   -1    0    0  501    0  0.00000000000E+00 -0.00000000000E+00 -0.18864464794E+04  0.18864464794E+04  0.00000000000E+00 0.  1.
         23    2    1    2    0    0 -0.55800014714E+03  0.94824187126E+03 -0.57693356158E+03  0.12457904953E+04  0.92816017744E+02 0.  0.
         11    1    3    3    0    0 -0.26740029113E+03  0.47500657354E+03 -0.33681636078E+03  0.64076471617E+03  0.00000000000E+00 0. -1.
        -11    1    3    3    0    0 -0.29059985601E+03  0.47323529772E+03 -0.24011720080E+03  0.60502577915E+03  0.00000000000E+00 0.  1.
         22    1    1    2    0    0  0.55800014714E+03 -0.94824187126E+03 -0.66471984365E+03  0.12854490582E+04  0.00000000000E+00 0.  1.
<mgrwt>
<rscale>  0 0.22057812E+04</rscale>
<asrwt>0</asrwt>
<pdfrwt beam="1">  1        2 0.29022253E+00 0.22057812E+04</pdfrwt>
<pdfrwt beam="2">  1       -2 0.99198935E-01 0.22057812E+04</pdfrwt>
<totfact> 0.59424382E+00</totfact>
</mgrwt>
</event>
<event>
 6    1  0.5040916E-004  0.3912230E+04  0.7818608E-02  0.8022490E-01
          2   -1    0    0  501    0  0.00000000000E+00  0.00000000000E+00  0.24261403240E+04  0.24261403240E+04  0.00000000000E+00 0.  1.
         -2   -1    0    0    0  501 -0.00000000000E+00 -0.00000000000E+00 -0.15771497546E+04  0.15771497546E+04  0.00000000000E+00 0. -1.
         23    2    1    2    0    0 -0.18001308664E+04 -0.73474663915E+03  0.21394892541E+03  0.19579046259E+04  0.85396847348E+02 0.  0.
         13    1    3    3    0    0 -0.95137292640E+03 -0.43424806827E+03  0.11708229623E+03  0.10523260398E+04  0.00000000000E+00 0. -1.
        -13    1    3    3    0    0 -0.84875794005E+03 -0.30049857087E+03  0.96866629187E+02  0.90557858618E+03  0.00000000000E+00 0.  1.
         22    1    1    2    0    0  0.18001308664E+04  0.73474663915E+03  0.63504164398E+03  0.20453854526E+04  0.00000000000E+00 0. -1.
<mgrwt>
<rscale>  0 0.39122304E+04</rscale>
<asrwt>0</asrwt>
<pdfrwt beam="1">  1        2 0.37325236E+00 0.39122304E+04</pdfrwt>
<pdfrwt beam="2">  1       -2 0.24263842E+00 0.39122304E+04</pdfrwt>
<totfact> 0.21768259E-01</totfact>
</mgrwt>
</event>
<event>
 6    1  0.5040916E-004  0.1319479E+04  0.7818608E-02  0.9014259E-01
         -2   -1    0    0    0  501 -0.00000000000E+00  0.00000000000E+00  0.28745638808E+03  0.28745638808E+03  0.00000000000E+00 0. -1.
          2   -1    0    0  501    0  0.00000000000E+00 -0.00000000000E+00 -0.15141645325E+04  0.15141645325E+04  0.00000000000E+00 0.  1.
         23    2    1    2    0    0 -0.17833998038E+03 -0.51629805044E+03 -0.11127850857E+04  0.12436358950E+04  0.99853727002E+02 0.  0.
         11    1    3    3    0    0 -0.11154237867E+03 -0.21423114072E+03 -0.41151689195E+03  0.47716122668E+03  0.00000000000E+00 0. -1.
        -11    1    3    3    0    0 -0.66797601709E+02 -0.30206690972E+03 -0.70126819379E+03  0.76647466832E+03  0.00000000000E+00 0.  1.
         22    1    1    2    0    0  0.17833998038E+03  0.51629805044E+03 -0.11392305871E+03  0.55798502560E+03  0.00000000000E+00 0. -1.
<mgrwt>
<rscale>  0 0.13194791E+04</rscale>
<asrwt>0</asrwt>
<pdfrwt beam="1">  1        2 0.23294840E+00 0.13194791E+04</pdfrwt>
<pdfrwt beam="2">  1       -2 0.44224058E-01 0.13194791E+04</pdfrwt>
<totfact> 0.59130653E+01</totfact>
</mgrwt>
</event>
<event>
 6    1  0.5040916E-004  0.1643190E+04  0.7818608E-02  0.8794446E-01
          2   -1    0    0  501    0  0.00000000000E+00  0.00000000000E+00  0.25955646585E+04  0.25955646585E+04  0.00000000000E+00 0.  1.
         -2   -1    0    0    0  501 -0.00000000000E+00 -0.00000000000E+00 -0.26006599303E+03  0.26006599303E+03  0.00000000000E+00 0. -1.
         23    2    1    2    0    0 -0.36271822590E+02  0.77726026330E+03  0.16160308588E+04  0.17958745066E+04  0.90334626008E+02 0.  0.
         13    1    3    3    0    0 -0.99348672637E+01  0.30066299631E+03  0.72761162322E+03  0.78734719989E+03  0.00000000000E+00 0.  1.
        -13    1    3    3    0    0 -0.26336955326E+02  0.47659726699E+03  0.88841923561E+03  0.10085273067E+04  0.00000000000E+00 0. -1.
         22    1    1    2    0    0  0.36271822590E+02 -0.77726026330E+03  0.71946780666E+03  0.10597561450E+04  0.00000000000E+00 0. -1.
<mgrwt>
<rscale>  0 0.16431897E+04</rscale>
<asrwt>0</asrwt>
<pdfrwt beam="1">  1        2 0.39931762E+00 0.16431897E+04</pdfrwt>
<pdfrwt beam="2">  1       -2 0.40010155E-01 0.16431897E+04</pdfrwt>
<totfact> 0.17339639E+01</totfact>
</mgrwt>
</event>
<event>
 6    1  0.5040916E-004  0.1485456E+04  0.7818608E-02  0.8894182E-01
          2   -1    0    0  501    0  0.00000000000E+00  0.00000000000E+00  0.21325429580E+04  0.21325429580E+04  0.00000000000E+00 0.  1.
         -2   -1    0    0    0  501 -0.00000000000E+00 -0.00000000000E+00 -0.25867949281E+03  0.25867949281E+03  0.00000000000E+00 0. -1.
         23    2    1    2    0    0 -0.43354570808E+02 -0.35919526854E+03  0.19793469442E+04  0.20143569256E+04  0.94438542862E+02 0.  0.
         13    1    3    3    0    0  0.13458649305E+02 -0.25429168447E+02  0.28956710094E+03  0.29099292740E+03  0.00000000000E+00 0.  1.
        -13    1    3    3    0    0 -0.56813220113E+02 -0.33376610009E+03  0.16897798433E+04  0.17233639982E+04  0.00000000000E+00 0. -1.
         22    1    1    2    0    0  0.43354570808E+02  0.35919526854E+03 -0.10548347902E+03  0.37686552522E+03  0.00000000000E+00 0. -1.
<mgrwt>
<rscale>  0 0.14854563E+04</rscale>
<asrwt>0</asrwt>
<pdfrwt beam="1">  1        2 0.32808352E+00 0.14854563E+04</pdfrwt>
<pdfrwt beam="2">  1       -2 0.39796846E-01 0.14854563E+04</pdfrwt>
<totfact> 0.32583607E+01</totfact>
</mgrwt>
</event>
<event>
 6    1  0.5040916E-004  0.5068449E+04  0.7818608E-02  0.7818034E-01
          2   -1    0    0  501    0  0.00000000000E+00  0.00000000000E+00  0.42466000912E+04  0.42466000912E+04  0.00000000000E+00 0.  1.
         -2   -1    0    0    0  501 -0.00000000000E+00 -0.00000000000E+00 -0.15123379923E+04  0.15123379923E+04  0.00000000000E+00 0. -1.
         23    2    1    2    0    0 -0.27665783997E+03  0.13700475574E+04  0.37683550646E+04  0.40202839684E+04  0.92808531091E+02 0.  0.
         11    1    3    3    0    0 -0.13435454610E+03  0.74751089420E+03  0.19222772065E+04  0.20668752598E+04  0.00000000000E+00 0. -1.
        -11    1    3    3    0    0 -0.14230329387E+03  0.62253666324E+03  0.18460778581E+04  0.19534087086E+04  0.00000000000E+00 0.  1.
         22    1    1    2    0    0  0.27665783997E+03 -0.13700475574E+04 -0.10340929658E+04  0.17386541151E+04  0.00000000000E+00 0. -1.
<mgrwt>
<rscale>  0 0.50684493E+04</rscale>
<asrwt>0</asrwt>
<pdfrwt beam="1">  1        2 0.65332308E+00 0.50684493E+04</pdfrwt>
<pdfrwt beam="2">  1       -2 0.23266739E+00 0.50684493E+04</pdfrwt>
<totfact> 0.12524016E-02</totfact>
</mgrwt>
</event>
<event>
 6    1  0.5040916E-004  0.3695030E+04  0.7818608E-02  0.8069064E-01
          2   -1    0    0  501    0  0.00000000000E+00  0.00000000000E+00  0.23039548475E+04  0.23039548475E+04  0.00000000000E+00 0.  1.
         -2   -1    0    0    0  501 -0.00000000000E+00 -0.00000000000E+00 -0.14815008906E+04  0.14815008906E+04  0.00000000000E+00 0. -1.
         23    2    1    2    0    0 -0.22279469262E+03 -0.18311862032E+04  0.33034539465E+03  0.18762540140E+04  0.91217647543E+02 0.  0.
         11    1    3    3    0    0 -0.68578998060E+02 -0.69898199425E+03  0.84015103880E+02  0.70734535055E+03  0.00000000000E+00 0.  1.
        -11    1    3    3    0    0 -0.15421569457E+03 -0.11322042090E+04  0.24633029078E+03  0.11689086634E+04  0.00000000000E+00 0. -1.
         22    1    1    2    0    0  0.22279469262E+03  0.18311862032E+04  0.49210856225E+03  0.19092017240E+04  0.00000000000E+00 0. -1.
<mgrwt>
<rscale>  0 0.36950297E+04</rscale>
<asrwt>0</asrwt>
<pdfrwt beam="1">  1        2 0.35445459E+00 0.36950297E+04</pdfrwt>
<pdfrwt beam="2">  1       -2 0.22792321E+00 0.36950297E+04</pdfrwt>
<totfact> 0.32135962E-01</totfact>
</mgrwt>
</event>
<event>
 6    1  0.5040916E-004  0.1993490E+03  0.7818608E-02  0.1150289E+00
          4   -1    0    0  501    0  0.00000000000E+00  0.00000000000E+00  0.37183927820E+02  0.37183927820E+02  0.00000000000E+00 0. -1.
         -4   -1    0    0    0  501 -0.00000000000E+00 -0.00000000000E+00 -0.26718540269E+03  0.26718540269E+03  0.00000000000E+00 0.  1.
         23    2    1    2    0    0  0.19462045493E+02  0.39682968351E+02 -0.39646795436E+02  0.10895077158E+03  0.91350386137E+02 0.  0.
         13    1    3    3    0    0  0.47087239171E+01  0.61463471977E+02 -0.51281844397E+02  0.80185772012E+02  0.00000000000E+00 0. -1.
        -13    1    3    3    0    0  0.14753321576E+02 -0.21780503626E+02  0.11635048961E+02  0.28764999567E+02  0.00000000000E+00 0.  1.
         22    1    1    2    0    0 -0.19462045493E+02 -0.39682968351E+02 -0.19035467944E+03  0.19541855893E+03  0.00000000000E+00 0.  1.
<mgrwt>
<rscale>  0 0.19934897E+03</rscale>
<asrwt>0</asrwt>
<pdfrwt beam="1">  1        4 0.57206041E-02 0.19934897E+03</pdfrwt>
<pdfrwt beam="2">  1       -4 0.41105448E-01 0.19934897E+03</pdfrwt>
<totfact> 0.19706157E+03</totfact>
</mgrwt>
</event>
<event>
 6    1  0.5040916E-004  0.3767040E+04  0.7818608E-02  0.8053265E-01
         -2   -1    0    0    0  501 -0.00000000000E+00  0.00000000000E+00  0.13652359007E+04  0.13652359007E+04  0.00000000000E+00 0.  1.
          2   -1    0    0  501    0  0.00000000000E+00 -0.00000000000E+00 -0.25985605145E+04  0.25985605145E+04  0.00000000000E+00 0. -1.
         23    2    1    2    0    0 -0.18127737512E+04  0.44025197086E+03 -0.88229484823E+03  0.20655887428E+04  0.90786476799E+02 0.  0.
         11    1    3    3    0    0 -0.15445828993E+03  0.17835123989E+02 -0.55909114112E+02  0.16523100198E+03  0.00000000000E+00 0. -1.
        -11    1    3    3    0    0 -0.16583154613E+04  0.42241684687E+03 -0.82638573412E+03  0.19003577409E+04  0.00000000000E+00 0.  1.
         22    1    1    2    0    0  0.18127737512E+04 -0.44025197086E+03 -0.35102976562E+03  0.18982076723E+04  0.00000000000E+00 0. -1.
<mgrwt>
<rscale>  0 0.37670403E+04</rscale>
<asrwt>0</asrwt>
<pdfrwt beam="1">  1        2 0.39977854E+00 0.37670403E+04</pdfrwt>
<pdfrwt beam="2">  1       -2 0.21003629E+00 0.37670403E+04</pdfrwt>
<totfact> 0.28053181E-01</totfact>
</mgrwt>
</event>
<event>
 6    1  0.5040916E-004  0.6846068E+03  0.7818608E-02  0.9743925E-01
          2   -1    0    0  501    0  0.00000000000E+00  0.00000000000E+00  0.20866337729E+04  0.20866337729E+04  0.00000000000E+00 0.  1.
         -2   -1    0    0    0  501 -0.00000000000E+00 -0.00000000000E+00 -0.56153424563E+02  0.56153424563E+02  0.00000000000E+00 0. -1.
         23    2    1    2    0    0  0.17332718269E+03  0.23783082123E+03  0.15431428195E+04  0.15734861533E+04  0.89236213080E+02 0.  0.
         11    1    3    3    0    0  0.44972807067E+02  0.10337927076E+03  0.77588650669E+03  0.78403424559E+03  0.00000000000E+00 0.  1.
        -11    1    3    3    0    0  0.12835437562E+03  0.13445155047E+03  0.76725631278E+03  0.78945190776E+03  0.00000000000E+00 0. -1.
         22    1    1    2    0    0 -0.17332718269E+03 -0.23783082123E+03  0.48733752889E+03  0.56930104413E+03  0.00000000000E+00 0. -1.
<mgrwt>
<rscale>  0 0.68460684E+03</rscale>
<asrwt>0</asrwt>
<pdfrwt beam="1">  1        2 0.32102052E+00 0.68460684E+03</pdfrwt>
<pdfrwt beam="2">  1       -2 0.86389900E-02 0.68460684E+03</pdfrwt>
<totfact> 0.53593261E+02</totfact>
</mgrwt>
</event>
<event>
 6    1  0.5040916E-004  0.3163212E+04  0.7818608E-02  0.8198601E-01
         -2   -1    0    0    0  501 -0.00000000000E+00  0.00000000000E+00  0.79274376531E+03  0.79274376531E+03  0.00000000000E+00 0. -1.
          2   -1    0    0  501    0  0.00000000000E+00 -0.00000000000E+00 -0.31554669742E+04  0.31554669742E+04  0.00000000000E+00 0.  1.
         23    2    1    2    0    0 -0.26457437927E+03  0.21486644348E+03 -0.31084017870E+04  0.31283304235E+04  0.90124241276E+02 0.  0.
         11    1    3    3    0    0 -0.17303889364E+03  0.18276962466E+03 -0.20212902300E+04  0.20368999455E+04  0.00000000000E+00 0.  1.
        -11    1    3    3    0    0 -0.91535485630E+02  0.32096818825E+02 -0.10871115570E+04  0.10914304780E+04  0.00000000000E+00 0. -1.
         22    1    1    2    0    0  0.26457437927E+03 -0.21486644348E+03  0.74567857808E+03  0.81988031597E+03  0.00000000000E+00 0. -1.
<mgrwt>
<rscale>  0 0.31632115E+04</rscale>
<asrwt>0</asrwt>
<pdfrwt beam="1">  1        2 0.48545646E+00 0.31632115E+04</pdfrwt>
<pdfrwt beam="2">  1       -2 0.12196058E+00 0.31632115E+04</pdfrwt>
<totfact> 0.59654791E-01</totfact>
</mgrwt>
</event>
<event>
 6    1  0.5040916E-004  0.3881860E+04  0.7818608E-02  0.8028813E-01
         -2   -1    0    0    0  501 -0.00000000000E+00  0.00000000000E+00  0.20751610861E+04  0.20751610861E+04  0.00000000000E+00 0. -1.
          2   -1    0    0  501    0  0.00000000000E+00 -0.00000000000E+00 -0.18153819351E+04  0.18153819351E+04  0.00000000000E+00 0.  1.
         23    2    1    2    0    0 -0.16050098669E+04 -0.93233455458E+03 -0.43500357979E+03  0.19086178366E+04  0.91046895284E+02 0.  0.
         11    1    3    3    0    0 -0.94682781301E+03 -0.56782609051E+03 -0.30171071371E+03  0.11445255486E+04  0.00000000000E+00 0.  1.
        -11    1    3    3    0    0 -0.65818205389E+03 -0.36450846406E+03 -0.13329286608E+03  0.76409228800E+03  0.00000000000E+00 0. -1.
         22    1    1    2    0    0  0.16050098669E+04  0.93233455458E+03  0.69478273085E+03  0.19819251847E+04  0.00000000000E+00 0. -1.
<mgrwt>
<rscale>  0 0.38818604E+04</rscale>
<asrwt>0</asrwt>
<pdfrwt beam="1">  1        2 0.27928953E+00 0.38818604E+04</pdfrwt>
<pdfrwt beam="2">  1       -2 0.31925555E+00 0.38818604E+04</pdfrwt>
<totfact> 0.16305343E-01</totfact>
</mgrwt>
</event>
<event>
 6    1  0.5040916E-004  0.9533264E+03  0.7818608E-02  0.9361271E-01
          2   -1    0    0  501    0  0.00000000000E+00  0.00000000000E+00  0.85801461101E+03  0.85801461101E+03  0.00000000000E+00 0.  1.
         -2   -1    0    0    0  501 -0.00000000000E+00 -0.00000000000E+00 -0.26480643461E+03  0.26480643461E+03  0.00000000000E+00 0. -1.
         23    2    1    2    0    0 -0.13562700200E+03  0.51054531554E+02 -0.23024938456E+03  0.28670885006E+03  0.90476166741E+02 0.  0.
         13    1    3    3    0    0 -0.49048568785E+02 -0.25327587723E+02 -0.80803815956E+02  0.97859621259E+02  0.00000000000E+00 0.  1.
        -13    1    3    3    0    0 -0.86578433216E+02  0.76382119278E+02 -0.14944556860E+03  0.18884922880E+03  0.00000000000E+00 0. -1.
         22    1    1    2    0    0  0.13562700200E+03 -0.51054531554E+02  0.82345756096E+03  0.83611219556E+03  0.00000000000E+00 0.  1.
<mgrwt>
<rscale>  0 0.95332637E+03</rscale>
<asrwt>0</asrwt>
<pdfrwt beam="1">  1        2 0.13200225E+00 0.95332637E+03</pdfrwt>
<pdfrwt beam="2">  1       -2 0.40739452E-01 0.95332637E+03</pdfrwt>
<totfact> 0.17875159E+02</totfact>
</mgrwt>
</event>
<event>
 6    1  0.5040916E-004  0.5111790E+04  0.7818608E-02  0.7811490E-01
          2   -1    0    0  501    0  0.00000000000E+00  0.00000000000E+00  0.28735213650E+04  0.28735213650E+04  0.00000000000E+00 0.  1.
         -2   -1    0    0    0  501 -0.00000000000E+00 -0.00000000000E+00 -0.22733776063E+04  0.22733776063E+04  0.00000000000E+00 0. -1.
         23    2    1    2    0    0  0.14081381726E+04 -0.20979686402E+04  0.68271960729E+03  0.26188277105E+04  0.88470258742E+02 0.  0.
         13    1    3    3    0    0  0.34221718272E+03 -0.56646060548E+03  0.15524743433E+03  0.67977347960E+03  0.00000000000E+00 0. -1.
        -13    1    3    3    0    0  0.10659209899E+04 -0.15315080347E+04  0.52747217296E+03  0.19390542309E+04  0.00000000000E+00 0.  1.
         22    1    1    2    0    0 -0.14081381726E+04  0.20979686402E+04 -0.82575848528E+02  0.25280712607E+04  0.00000000000E+00 0. -1.
<mgrwt>
<rscale>  0 0.51117899E+04</rscale>
<asrwt>0</asrwt>
<pdfrwt beam="1">  1        2 0.44208021E+00 0.51117899E+04</pdfrwt>
<pdfrwt beam="2">  1       -2 0.34975040E+00 0.51117899E+04</pdfrwt>
<totfact> 0.23497643E-02</totfact>
</mgrwt>
</event>
<event>
 6    1  0.5040916E-004  0.3787528E+04  0.7818608E-02  0.8048837E-01
          2   -1    0    0  501    0  0.00000000000E+00  0.00000000000E+00  0.13840900029E+04  0.13840900029E+04  0.00000000000E+00 0.  1.
         -2   -1    0    0    0  501 -0.00000000000E+00 -0.00000000000E+00 -0.25911184806E+04  0.25911184806E+04  0.00000000000E+00 0. -1.
         23    2    1    2    0    0 -0.10741832557E+04 -0.22389014619E+03 -0.22223522392E+04  0.24802573789E+04  0.93971941831E+02 0.  0.
         11    1    3    3    0    0 -0.46611768949E+03 -0.12180061039E+03 -0.88565256000E+03  0.10082070949E+04  0.00000000000E+00 0.  1.
        -11    1    3    3    0    0 -0.60806556625E+03 -0.10208953581E+03 -0.13366996792E+04  0.14720502840E+04  0.00000000000E+00 0. -1.
         22    1    1    2    0    0  0.10741832557E+04  0.22389014619E+03  0.10153237615E+04  0.14949511046E+04  0.00000000000E+00 0.  1.
<mgrwt>
<rscale>  0 0.37875275E+04</rscale>
<asrwt>0</asrwt>
<pdfrwt beam="1">  1        2 0.21293693E+00 0.37875275E+04</pdfrwt>
<pdfrwt beam="2">  1       -2 0.39863361E+00 0.37875275E+04</pdfrwt>
<totfact> 0.89808760E-02</totfact>
</mgrwt>
</event>
<event>
 6    1  0.6390682E-004  0.3994831E+04  0.7818608E-02  0.8005590E-01
          2   -1    0    0  501    0  0.00000000000E+00  0.00000000000E+00  0.18800294676E+04  0.18800294676E+04  0.00000000000E+00 0.  1.
         -2   -1    0    0    0  501 -0.00000000000E+00 -0.00000000000E+00 -0.21221307926E+04  0.21221307926E+04  0.00000000000E+00 0. -1.
         23    2    1    2    0    0  0.10602746270E+04  0.15516017343E+03 -0.18086312886E+04  0.21041947466E+04  0.90727225655E+02 0.  0.
         11    1    3    3    0    0  0.33455937735E+03  0.90430330219E+02 -0.60389877193E+03  0.69627677567E+03  0.00000000000E+00 0. -1.
        -11    1    3    3    0    0  0.72571524963E+03  0.64729843209E+02 -0.12047325167E+04  0.14079179709E+04  0.00000000000E+00 0.  1.
         22    1    1    2    0    0 -0.10602746270E+04 -0.15516017343E+03  0.15665299636E+04  0.18979655136E+04  0.00000000000E+00 0.  1.
<mgrwt>
<rscale>  0 0.39948309E+04</rscale>
<asrwt>0</asrwt>
<pdfrwt beam="1">  1        2 0.28923530E+00 0.39948309E+04</pdfrwt>
<pdfrwt beam="2">  1       -2 0.32648166E+00 0.39948309E+04</pdfrwt>
<totfact> 0.13419273E-01</totfact>
</mgrwt>
</event>
<event>
 6    1  0.5040916E-004  0.1840152E+04  0.7818608E-02  0.8685234E-01
          2   -1    0    0  501    0  0.00000000000E+00  0.00000000000E+00  0.13211119808E+04  0.13211119808E+04  0.00000000000E+00 0.  1.
         -2   -1    0    0    0  501 -0.00000000000E+00 -0.00000000000E+00 -0.64077807392E+03  0.64077807392E+03  0.00000000000E+00 0. -1.
         23    2    1    2    0    0  0.74185673929E+01 -0.88387135715E+03  0.77208149352E+02  0.89182263137E+03  0.90016089470E+02 0.  0.
         11    1    3    3    0    0  0.12172835007E+02 -0.57978474777E+03  0.82126719978E+01  0.57997067137E+03  0.00000000000E+00 0.  1.
        -11    1    3    3    0    0 -0.47542676141E+01 -0.30408660937E+03  0.68995477354E+02  0.31185196000E+03  0.00000000000E+00 0. -1.
         22    1    1    2    0    0 -0.74185673929E+01  0.88387135715E+03  0.60312575753E+03  0.10700674234E+04  0.00000000000E+00 0. -1.
<mgrwt>
<rscale>  0 0.18401517E+04</rscale>
<asrwt>0</asrwt>
<pdfrwt beam="1">  1        2 0.20324800E+00 0.18401517E+04</pdfrwt>
<pdfrwt beam="2">  1       -2 0.98581243E-01 0.18401517E+04</pdfrwt>
<totfact> 0.12922458E+01</totfact>
</mgrwt>
</event>
<event>
 6    1  0.5040916E-004  0.4581001E+04  0.7818608E-02  0.7896607E-01
          2   -1    0    0  501    0  0.00000000000E+00  0.00000000000E+00  0.14351074527E+04  0.14351074527E+04  0.00000000000E+00 0.  1.
         -2   -1    0    0    0  501 -0.00000000000E+00 -0.00000000000E+00 -0.36557495503E+04  0.36557495503E+04  0.00000000000E+00 0. -1.
         23    2    1    2    0    0 -0.11604202887E+04  0.14340289195E+04  0.39656814778E+03  0.18888570565E+04  0.86605401132E+02 0.  0.
         11    1    3    3    0    0 -0.37361386463E+03  0.43796273696E+03  0.16197412555E+03  0.59802533070E+03  0.00000000000E+00 0. -1.
        -11    1    3    3    0    0 -0.78680642407E+03  0.99606618258E+03  0.23459402223E+03  0.12908317258E+04  0.00000000000E+00 0.  1.
         22    1    1    2    0    0  0.11604202887E+04 -0.14340289195E+04 -0.26172102455E+04  0.32019999465E+04  0.00000000000E+00 0. -1.
<mgrwt>
<rscale>  0 0.45810014E+04</rscale>
<asrwt>0</asrwt>
<pdfrwt beam="1">  1        2 0.22078576E+00 0.45810014E+04</pdfrwt>
<pdfrwt beam="2">  1       -2 0.56242301E+00 0.45810014E+04</pdfrwt>
<totfact> 0.77477870E-03</totfact>
</mgrwt>
</event>
<event>
 6    1  0.5040916E-004  0.2131280E+04  0.7818608E-02  0.8547588E-01
         -2   -1    0    0    0  501 -0.00000000000E+00  0.00000000000E+00  0.38953605313E+03  0.38953605313E+03  0.00000000000E+00 0. -1.
          2   -1    0    0  501    0  0.00000000000E+00 -0.00000000000E+00 -0.29152342760E+04  0.29152342760E+04  0.00000000000E+00 0.  1.
         23    2    1    2    0    0  0.57036622706E+03 -0.89294255275E+03 -0.11207861862E+04  0.15450993751E+04  0.92229975708E+02 0.  0.
         11    1    3    3    0    0  0.28731555384E+03 -0.37487023299E+03 -0.46665757014E+03  0.66396325714E+03  0.00000000000E+00 0. -1.
        -11    1    3    3    0    0  0.28305067322E+03 -0.51807231976E+03 -0.65412861601E+03  0.88113611797E+03  0.00000000000E+00 0.  1.
         22    1    1    2    0    0 -0.57036622706E+03  0.89294255275E+03 -0.14049120367E+04  0.17596709540E+04  0.00000000000E+00 0.  1.
<mgrwt>
<rscale>  0 0.21312802E+04</rscale>
<asrwt>0</asrwt>
<pdfrwt beam="1">  1        2 0.44849757E+00 0.21312802E+04</pdfrwt>
<pdfrwt beam="2">  1       -2 0.59928625E-01 0.21312802E+04</pdfrwt>
<totfact> 0.46984401E+00</totfact>
</mgrwt>
</event>
<event>
 6    1  0.5040916E-004  0.2096766E+04  0.7818608E-02  0.8562669E-01
         -2   -1    0    0    0  501 -0.00000000000E+00  0.00000000000E+00  0.85799533192E+03  0.85799533192E+03  0.00000000000E+00 0. -1.
          2   -1    0    0  501    0  0.00000000000E+00 -0.00000000000E+00 -0.12810179262E+04  0.12810179262E+04  0.00000000000E+00 0.  1.
         23    2    1    2    0    0  0.26804973734E+03 -0.96463382247E+03  0.98536098948E+02  0.10101232973E+04  0.90943057801E+02 0.  0.
         11    1    3    3    0    0  0.17329999624E+03 -0.75046147149E+03  0.57442155152E+02  0.77235025091E+03  0.00000000000E+00 0.  1.
        -11    1    3    3    0    0  0.94749741100E+02 -0.21417235098E+03  0.41093943797E+02  0.23777304637E+03  0.00000000000E+00 0. -1.
         22    1    1    2    0    0 -0.26804973734E+03  0.96463382247E+03 -0.52155869318E+03  0.11288899608E+04  0.00000000000E+00 0.  1.
<mgrwt>
<rscale>  0 0.20967665E+04</rscale>
<asrwt>0</asrwt>
<pdfrwt beam="1">  1        2 0.19707968E+00 0.20967665E+04</pdfrwt>
<pdfrwt beam="2">  1       -2 0.13199928E+00 0.20967665E+04</pdfrwt>
<totfact> 0.65325465E+00</totfact>
</mgrwt>
</event>
<event>
 6    1  0.5040916E-004  0.3399101E+04  0.7818608E-02  0.8138127E-01
         -2   -1    0    0    0  501 -0.00000000000E+00  0.00000000000E+00  0.26763282563E+04  0.26763282563E+04  0.00000000000E+00 0. -1.
          2   -1    0    0  501    0  0.00000000000E+00 -0.00000000000E+00 -0.10792664615E+04  0.10792664615E+04  0.00000000000E+00 0.  1.
         23    2    1    2    0    0 -0.90234705564E+03  0.13043956621E+04  0.14697501778E+04  0.21644044401E+04  0.93822933760E+02 0.  0.
         13    1    3    3    0    0 -0.62252776163E+03  0.96320284471E+03  0.10905657185E+04  0.15826035892E+04  0.00000000000E+00 0.  1.
        -13    1    3    3    0    0 -0.27981929401E+03  0.34119281739E+03  0.37918445933E+03  0.58180085092E+03  0.00000000000E+00 0. -1.
         22    1    1    2    0    0  0.90234705564E+03 -0.13043956621E+04  0.12731161696E+03  0.15911902777E+04  0.00000000000E+00 0.  1.
<mgrwt>
<rscale>  0 0.33991007E+04</rscale>
<asrwt>0</asrwt>
<pdfrwt beam="1">  1        2 0.16604099E+00 0.33991007E+04</pdfrwt>
<pdfrwt beam="2">  1       -2 0.41174281E+00 0.33991007E+04</pdfrwt>
<totfact> 0.11544645E-01</totfact>
</mgrwt>
</event>
<event>
 6    1  0.5040916E-004  0.2494024E+04  0.7818608E-02  0.8405118E-01
         -2   -1    0    0    0  501 -0.00000000000E+00  0.00000000000E+00  0.90582642808E+03  0.90582642808E+03  0.00000000000E+00 0. -1.
          2   -1    0    0  501    0  0.00000000000E+00 -0.00000000000E+00 -0.17167072051E+04  0.17167072051E+04  0.00000000000E+00 0.  1.
         23    2    1    2    0    0 -0.22725929959E+03  0.57534322276E+03 -0.15425813468E+04  0.16643831559E+04  0.89148555790E+02 0.  0.
         13    1    3    3    0    0 -0.55591251795E+02  0.75779219434E+02 -0.18146514790E+03  0.20435869758E+03  0.00000000000E+00 0. -1.
        -13    1    3    3    0    0 -0.17166804779E+03  0.49956400332E+03 -0.13611161989E+04  0.14600244583E+04  0.00000000000E+00 0.  1.
         22    1    1    2    0    0  0.22725929959E+03 -0.57534322276E+03  0.73170056979E+03  0.95815047725E+03  0.00000000000E+00 0. -1.
<mgrwt>
<rscale>  0 0.24940239E+04</rscale>
<asrwt>0</asrwt>
<pdfrwt beam="1">  1        2 0.26410880E+00 0.24940239E+04</pdfrwt>
<pdfrwt beam="2">  1       -2 0.13935791E+00 0.24940239E+04</pdfrwt>
<totfact> 0.31138327E+00</totfact>
</mgrwt>
</event>
<event>
 6    1  0.5040916E-004  0.1269621E+04  0.7818608E-02  0.9054009E-01
          2   -1    0    0  501    0  0.00000000000E+00  0.00000000000E+00  0.34588214032E+04  0.34588214032E+04  0.00000000000E+00 0.  1.
         -2   -1    0    0    0  501 -0.00000000000E+00 -0.00000000000E+00 -0.11650909414E+03  0.11650909414E+03  0.00000000000E+00 0. -1.
         23    2    1    2    0    0  0.27310626690E+03 -0.52191877911E+03  0.10377638772E+04  0.11966901884E+04  0.90151522257E+02 0.  0.
         11    1    3    3    0    0  0.24279854368E+03 -0.38114544421E+03  0.78903292668E+03  0.90928320222E+03  0.00000000000E+00 0.  1.
        -11    1    3    3    0    0  0.30307723220E+02 -0.14077333490E+03  0.24873095057E+03  0.28740698613E+03  0.00000000000E+00 0. -1.
         22    1    1    2    0    0 -0.27310626690E+03  0.52191877911E+03  0.23045484319E+04  0.23786403090E+04  0.00000000000E+00 0. -1.
<mgrwt>
<rscale>  0 0.12696206E+04</rscale>
<asrwt>0</asrwt>
<pdfrwt beam="1">  1        2 0.53212629E+00 0.12696206E+04</pdfrwt>
<pdfrwt beam="2">  1       -2 0.17924479E-01 0.12696206E+04</pdfrwt>
<totfact> 0.22552376E+01</totfact>
</mgrwt>
</event>
<event>
 6    1  0.5040916E-004  0.3271631E+04  0.7818608E-02  0.8170152E-01
         -1   -1    0    0    0  501 -0.00000000000E+00  0.00000000000E+00  0.37220613522E+04  0.37220613522E+04  0.00000000000E+00 0. -1.
          1   -1    0    0  501    0  0.00000000000E+00 -0.00000000000E+00 -0.71892745113E+03  0.71892745113E+03  0.00000000000E+00 0.  1.
         23    2    1    2    0    0 -0.12912882886E+04 -0.97006771165E+03  0.18440536319E+04  0.24530441663E+04  0.91842664829E+02 0.  0.
         13    1    3    3    0    0 -0.12033451788E+04 -0.93051930607E+03  0.17405399922E+04  0.23115763588E+04  0.00000000000E+00 0.  1.
        -13    1    3    3    0    0 -0.87943109819E+02 -0.39548405584E+02  0.10351363967E+03  0.14146780745E+03  0.00000000000E+00 0. -1.
         22    1    1    2    0    0  0.12912882886E+04  0.97006771165E+03  0.11590802691E+04  0.19879446370E+04  0.00000000000E+00 0. -1.
<mgrwt>
<rscale>  0 0.32716308E+04</rscale>
<asrwt>0</asrwt>
<pdfrwt beam="1">  1        1 0.11060423E+00 0.32716308E+04</pdfrwt>
<pdfrwt beam="2">  1       -1 0.57262481E+00 0.32716308E+04</pdfrwt>
<totfact> 0.12502428E-02</totfact>
</mgrwt>
</event>
<event>
 6    1  0.5040916E-004  0.3892862E+04  0.7818608E-02  0.8026515E-01
         -2   -1    0    0    0  501 -0.00000000000E+00  0.00000000000E+00  0.15188347335E+04  0.15188347335E+04  0.00000000000E+00 0. -1.
          2   -1    0    0  501    0  0.00000000000E+00 -0.00000000000E+00 -0.24944086764E+04  0.24944086764E+04  0.00000000000E+00 0.  1.
         23    2    1    2    0    0 -0.95074653205E+03  0.12979407177E+04 -0.16154181184E+04  0.22817788149E+04  0.91486544254E+02 0.  0.
         13    1    3    3    0    0 -0.29788314060E+03  0.34802003058E+03 -0.42803580756E+03  0.62695052411E+03  0.00000000000E+00 0. -1.
        -13    1    3    3    0    0 -0.65286339146E+03  0.94992068716E+03 -0.11873823108E+04  0.16548282907E+04  0.00000000000E+00 0.  1.
         22    1    1    2    0    0  0.95074653205E+03 -0.12979407177E+04  0.63984417554E+03  0.17314645951E+04  0.00000000000E+00 0. -1.
<mgrwt>
<rscale>  0 0.38928625E+04</rscale>
<asrwt>0</asrwt>
<pdfrwt beam="1">  1        2 0.38375518E+00 0.38928625E+04</pdfrwt>
<pdfrwt beam="2">  1       -2 0.23366688E+00 0.38928625E+04</pdfrwt>
<totfact> 0.22634433E-01</totfact>
</mgrwt>
</event>
<event>
 6    1  0.5040916E-004  0.2442381E+04  0.7818608E-02  0.8423805E-01
          2   -1    0    0  501    0  0.00000000000E+00  0.00000000000E+00  0.16051439827E+04  0.16051439827E+04  0.00000000000E+00 0.  1.
         -2   -1    0    0    0  501 -0.00000000000E+00 -0.00000000000E+00 -0.92907933139E+03  0.92907933139E+03  0.00000000000E+00 0. -1.
         23    2    1    2    0    0 -0.94107901031E+03 -0.49889975537E+03  0.95466091576E+03  0.14332480427E+04  0.91059422253E+02 0.  0.
         13    1    3    3    0    0 -0.33372196198E+03 -0.20492291173E+03  0.39983395445E+03  0.55967038406E+03  0.00000000000E+00 0. -1.
        -13    1    3    3    0    0 -0.60735704832E+03 -0.29397684363E+03  0.55482696132E+03  0.87357765868E+03  0.00000000000E+00 0.  1.
         22    1    1    2    0    0  0.94107901031E+03  0.49889975537E+03 -0.27859626445E+03  0.11009752713E+04  0.00000000000E+00 0. -1.
<mgrwt>
<rscale>  0 0.24423809E+04</rscale>
<asrwt>0</asrwt>
<pdfrwt beam="1">  1        2 0.24694523E+00 0.24423809E+04</pdfrwt>
<pdfrwt beam="2">  1       -2 0.14293528E+00 0.24423809E+04</pdfrwt>
<totfact> 0.33781757E+00</totfact>
</mgrwt>
</event>
<event>
 6    1  0.5040916E-004  0.1735588E+04  0.7818608E-02  0.8741323E-01
         -2   -1    0    0    0  501 -0.00000000000E+00  0.00000000000E+00  0.73503014967E+03  0.73503014967E+03  0.00000000000E+00 0. -1.
          2   -1    0    0  501    0  0.00000000000E+00 -0.00000000000E+00 -0.10245385118E+04  0.10245385118E+04  0.00000000000E+00 0.  1.
         23    2    1    2    0    0 -0.24831624646E+03 -0.81160137982E+03  0.25845450531E+02  0.85413739121E+03  0.92330589612E+02 0.  0.
         13    1    3    3    0    0 -0.44858401135E+02 -0.28789204831E+03 -0.55499180643E+01  0.29141878666E+03  0.00000000000E+00 0.  1.
        -13    1    3    3    0    0 -0.20345784533E+03 -0.52370933151E+03  0.31395368596E+02  0.56271860455E+03  0.00000000000E+00 0. -1.
         22    1    1    2    0    0  0.24831624646E+03  0.81160137982E+03 -0.31535381265E+03  0.90543127024E+03  0.00000000000E+00 0.  1.
<mgrwt>
<rscale>  0 0.17355883E+04</rscale>
<asrwt>0</asrwt>
<pdfrwt beam="1">  1        2 0.15762131E+00 0.17355883E+04</pdfrwt>
<pdfrwt beam="2">  1       -2 0.11308156E+00 0.17355883E+04</pdfrwt>
<totfact> 0.14164021E+01</totfact>
</mgrwt>
</event>
<event>
 6    1  0.5040916E-004  0.3545615E+04  0.7818608E-02  0.8103064E-01
          2   -1    0    0  501    0  0.00000000000E+00  0.00000000000E+00  0.24937014921E+04  0.24937014921E+04  0.00000000000E+00 0.  1.
         -2   -1    0    0    0  501 -0.00000000000E+00 -0.00000000000E+00 -0.12603138519E+04  0.12603138519E+04  0.00000000000E+00 0. -1.
         23    2    1    2    0    0 -0.48127214002E+03  0.67656563891E+03  0.22741554901E+04  0.24226394940E+04  0.89638096690E+02 0.  0.
         13    1    3    3    0    0 -0.22328620623E+03  0.34436713306E+03  0.12427575197E+04  0.13087748870E+04  0.00000000000E+00 0. -1.
        -13    1    3    3    0    0 -0.25798593379E+03  0.33219850585E+03  0.10313979704E+04  0.11138646070E+04  0.00000000000E+00 0.  1.
         22    1    1    2    0    0  0.48127214002E+03 -0.67656563891E+03 -0.10407678499E+04  0.13313758500E+04  0.00000000000E+00 0. -1.
<mgrwt>
<rscale>  0 0.35456151E+04</rscale>
<asrwt>0</asrwt>
<pdfrwt beam="1">  1        2 0.38364638E+00 0.35456151E+04</pdfrwt>
<pdfrwt beam="2">  1       -2 0.19389444E+00 0.35456151E+04</pdfrwt>
<totfact> 0.41947079E-01</totfact>
</mgrwt>
</event>
<event>
 6    1  0.5040916E-004  0.4234425E+04  0.7818608E-02  0.7958856E-01
          2   -1    0    0  501    0  0.00000000000E+00  0.00000000000E+00  0.30268851534E+04  0.30268851534E+04  0.00000000000E+00 0.  1.
         -2   -1    0    0    0  501 -0.00000000000E+00 -0.00000000000E+00 -0.14809248363E+04  0.14809248363E+04  0.00000000000E+00 0. -1.
         23    2    1    2    0    0  0.24459904750E+02 -0.21104742462E+04  0.93883751108E+03  0.23116091945E+04  0.86147345280E+02 0.  0.
         13    1    3    3    0    0  0.12367327599E+02 -0.18654106652E+04  0.85767331397E+03  0.20531715501E+04  0.00000000000E+00 0. -1.
        -13    1    3    3    0    0  0.12092577151E+02 -0.24506358101E+03  0.81164197113E+02  0.25843764442E+03  0.00000000000E+00 0.  1.
         22    1    1    2    0    0 -0.24459904750E+02  0.21104742462E+04  0.60712280604E+03  0.21962007951E+04  0.00000000000E+00 0. -1.
<mgrwt>
<rscale>  0 0.42344253E+04</rscale>
<asrwt>0</asrwt>
<pdfrwt beam="1">  1        2 0.46567464E+00 0.42344253E+04</pdfrwt>
<pdfrwt beam="2">  1       -2 0.22783459E+00 0.42344253E+04</pdfrwt>
<totfact> 0.11428740E-01</totfact>
</mgrwt>
</event>
<event>
 6    1  0.5040916E-004  0.1984464E+04  0.7818608E-02  0.8613919E-01
          2   -1    0    0  501    0  0.00000000000E+00  0.00000000000E+00  0.63069558816E+03  0.63069558816E+03  0.00000000000E+00 0. -1.
         -2   -1    0    0    0  501 -0.00000000000E+00 -0.00000000000E+00 -0.15610130283E+04  0.15610130283E+04  0.00000000000E+00 0.  1.
         23    2    1    2    0    0  0.75149082928E+03 -0.92217830191E+02  0.23866172111E+03  0.79895778658E+03  0.90175012712E+02 0.  0.
         13    1    3    3    0    0  0.48862294941E+03 -0.55567937411E+02  0.19939371574E+03  0.53065811615E+03  0.00000000000E+00 0.  1.
        -13    1    3    3    0    0  0.26286787987E+03 -0.36649892780E+02  0.39268005371E+02  0.26829967043E+03  0.00000000000E+00 0. -1.
         22    1    1    2    0    0 -0.75149082928E+03  0.92217830191E+02 -0.11689791613E+04  0.13927508299E+04  0.00000000000E+00 0.  1.
<mgrwt>
<rscale>  0 0.19844637E+04</rscale>
<asrwt>0</asrwt>
<pdfrwt beam="1">  1        2 0.97030091E-01 0.19844637E+04</pdfrwt>
<pdfrwt beam="2">  1       -2 0.24015585E+00 0.19844637E+04</pdfrwt>
<totfact> 0.32074243E+00</totfact>
</mgrwt>
</event>
<event>
 6    1  0.5650606E-004  0.2339362E+04  0.7818608E-02  0.8462561E-01
          2   -1    0    0  501    0  0.00000000000E+00  0.00000000000E+00  0.12949945542E+04  0.12949945542E+04  0.00000000000E+00 0.  1.
         -2   -1    0    0    0  501 -0.00000000000E+00 -0.00000000000E+00 -0.10564935515E+04  0.10564935515E+04  0.00000000000E+00 0. -1.
         23    2    1    2    0    0  0.88508835027E+03  0.28796667256E+03 -0.58971685373E+03  0.11055944465E+04  0.90922606014E+02 0.  0.
         13    1    3    3    0    0  0.54000580648E+03  0.13594497940E+03 -0.37946914631E+03  0.67385765667E+03  0.00000000000E+00 0.  1.
        -13    1    3    3    0    0  0.34508254379E+03  0.15202169316E+03 -0.21024770742E+03  0.43173678983E+03  0.00000000000E+00 0. -1.
         22    1    1    2    0    0 -0.88508835027E+03 -0.28796667256E+03  0.82821785642E+03  0.12458936592E+04  0.00000000000E+00 0.  1.
<mgrwt>
<rscale>  0 0.23393618E+04</rscale>
<asrwt>0</asrwt>
<pdfrwt beam="1">  1        2 0.19922993E+00 0.23393618E+04</pdfrwt>
<pdfrwt beam="2">  1       -2 0.16253747E+00 0.23393618E+04</pdfrwt>
<totfact> 0.36294384E+00</totfact>
</mgrwt>
</event>
<event>
 6    1  0.5040916E-004  0.3860814E+04  0.7818608E-02  0.8033229E-01
          2   -1    0    0  501    0  0.00000000000E+00  0.00000000000E+00  0.26064207181E+04  0.26064207181E+04  0.00000000000E+00 0.  1.
         -2   -1    0    0    0  501 -0.00000000000E+00 -0.00000000000E+00 -0.14297270764E+04  0.14297270764E+04  0.00000000000E+00 0. -1.
         23    2    1    2    0    0  0.10738832500E+04  0.15569457076E+04  0.19020727779E+03  0.19029669496E+04  0.88313260095E+02 0.  0.
         13    1    3    3    0    0  0.99836725209E+03  0.14379269603E+04  0.15314016284E+03  0.17572202545E+04  0.00000000000E+00 0.  1.
        -13    1    3    3    0    0  0.75515997868E+02  0.11901874728E+03  0.37067114954E+02  0.14574669515E+03  0.00000000000E+00 0. -1.
         22    1    1    2    0    0 -0.10738832500E+04 -0.15569457076E+04  0.98648636384E+03  0.21331808449E+04  0.00000000000E+00 0.  1.
<mgrwt>
<rscale>  0 0.38608135E+04</rscale>
<asrwt>0</asrwt>
<pdfrwt beam="1">  1        2 0.40098780E+00 0.38608135E+04</pdfrwt>
<pdfrwt beam="2">  1       -2 0.21995801E+00 0.38608135E+04</pdfrwt>
<totfact> 0.23801548E-01</totfact>
</mgrwt>
</event>
<event>
 6    1  0.5040916E-004  0.3779891E+04  0.7818608E-02  0.8050484E-01
         -2   -1    0    0    0  501 -0.00000000000E+00  0.00000000000E+00  0.10882882658E+04  0.10882882658E+04  0.00000000000E+00 0. -1.
          2   -1    0    0  501    0  0.00000000000E+00 -0.00000000000E+00 -0.32821214125E+04  0.32821214125E+04  0.00000000000E+00 0.  1.
         23    2    1    2    0    0 -0.15014649861E+04 -0.36298757034E+03  0.15945007870E+03  0.15554320550E+04  0.88246639420E+02 0.  0.
         11    1    3    3    0    0 -0.48982477951E+03 -0.87220453327E+02  0.23277595453E+02  0.49807385853E+03  0.00000000000E+00 0. -1.
        -11    1    3    3    0    0 -0.10116402066E+04 -0.27576711702E+03  0.13617248325E+03  0.10573581964E+04  0.00000000000E+00 0.  1.
         22    1    1    2    0    0  0.15014649861E+04  0.36298757034E+03 -0.23532832254E+04  0.28149776233E+04  0.00000000000E+00 0.  1.
<mgrwt>
<rscale>  0 0.37798911E+04</rscale>
<asrwt>0</asrwt>
<pdfrwt beam="1">  1        2 0.50494176E+00 0.37798911E+04</pdfrwt>
<pdfrwt beam="2">  1       -2 0.16742896E+00 0.37798911E+04</pdfrwt>
<totfact> 0.20419377E-01</totfact>
</mgrwt>
</event>
<event>
 6    1  0.5040916E-004  0.1558817E+04  0.7818608E-02  0.8846256E-01
         -1   -1    0    0    0  501 -0.00000000000E+00  0.00000000000E+00  0.19355407075E+03  0.19355407075E+03  0.00000000000E+00 0. -1.
          1   -1    0    0  501    0  0.00000000000E+00 -0.00000000000E+00 -0.31385403345E+04  0.31385403345E+04  0.00000000000E+00 0.  1.
         23    2    1    2    0    0  0.43504262838E+03  0.59708163041E+03 -0.97176159441E+03  0.12251097927E+04  0.10394636071E+03 0.  0.
         11    1    3    3    0    0  0.17772474364E+03  0.30742064596E+03 -0.40575090049E+03  0.53919136799E+03  0.00000000000E+00 0.  1.
        -11    1    3    3    0    0  0.25731788474E+03  0.28966098445E+03 -0.56601069392E+03  0.68591842470E+03  0.00000000000E+00 0. -1.
         22    1    1    2    0    0 -0.43504262838E+03 -0.59708163041E+03 -0.19732246693E+04  0.21069846125E+04  0.00000000000E+00 0.  1.
<mgrwt>
<rscale>  0 0.15588165E+04</rscale>
<asrwt>0</asrwt>
<pdfrwt beam="1">  1        1 0.48285232E+00 0.15588165E+04</pdfrwt>
<pdfrwt beam="2">  1       -1 0.29777551E-01 0.15588165E+04</pdfrwt>
<totfact> 0.47342278E+00</totfact>
</mgrwt>
</event>
<event>
 6    1  0.5040916E-004  0.1642359E+04  0.7818608E-02  0.8794939E-01
         -2   -1    0    0    0  501 -0.00000000000E+00  0.00000000000E+00  0.48492886504E+03  0.48492886504E+03  0.00000000000E+00 0. -1.
          2   -1    0    0  501    0  0.00000000000E+00 -0.00000000000E+00 -0.13905878192E+04  0.13905878192E+04  0.00000000000E+00 0.  1.
         23    2    1    2    0    0  0.70708982893E+03 -0.11633869546E+03 -0.19182136402E+01  0.72214855380E+03  0.89353992527E+02 0.  0.
         13    1    3    3    0    0  0.16838956862E+03 -0.63118145811E+02 -0.16864980849E+02  0.18061941958E+03  0.00000000000E+00 0. -1.
        -13    1    3    3    0    0  0.53870026031E+03 -0.53220549654E+02  0.14946767208E+02  0.54152913423E+03  0.00000000000E+00 0.  1.
         22    1    1    2    0    0 -0.70708982893E+03  0.11633869546E+03 -0.90374074055E+03  0.11533681305E+04  0.00000000000E+00 0.  1.
<mgrwt>
<rscale>  0 0.16423595E+04</rscale>
<asrwt>0</asrwt>
<pdfrwt beam="1">  1        2 0.21393659E+00 0.16423595E+04</pdfrwt>
<pdfrwt beam="2">  1       -2 0.74604441E-01 0.16423595E+04</pdfrwt>
<totfact> 0.22626133E+01</totfact>
</mgrwt>
</event>
<event>
 6    1  0.5040916E-004  0.6641920E+03  0.7818608E-02  0.9780507E-01
          2   -1    0    0  501    0  0.00000000000E+00  0.00000000000E+00  0.84022853544E+02  0.84022853544E+02  0.00000000000E+00 0.  1.
         -2   -1    0    0    0  501 -0.00000000000E+00 -0.00000000000E+00 -0.13125925165E+04  0.13125925165E+04  0.00000000000E+00 0. -1.
         23    2    1    2    0    0 -0.31561970406E+03 -0.23672921445E+02 -0.48624487290E+03  0.58963191376E+03  0.10514519719E+03 0.  0.
         11    1    3    3    0    0 -0.15327593017E+03 -0.61285181261E+02 -0.21142614223E+03  0.26823571318E+03  0.00000000000E+00 0. -1.
        -11    1    3    3    0    0 -0.16234377389E+03  0.37612259815E+02 -0.27481873068E+03  0.32139620057E+03  0.00000000000E+00 0.  1.
         22    1    1    2    0    0  0.31561970406E+03  0.23672921445E+02 -0.74232479006E+03  0.80698345629E+03  0.00000000000E+00 0. -1.
<mgrwt>
<rscale>  0 0.66419205E+03</rscale>
<asrwt>0</asrwt>
<pdfrwt beam="1">  1        2 0.12926593E-01 0.66419205E+03</pdfrwt>
<pdfrwt beam="2">  1       -2 0.20193731E+00 0.66419205E+03</pdfrwt>
<totfact> 0.63595900E+01</totfact>
</mgrwt>
</event>
<event>
 6    1  0.5040916E-004  0.1277158E+04  0.7818608E-02  0.9047878E-01
         -1   -1    0    0    0  501 -0.00000000000E+00  0.00000000000E+00  0.46142890944E+03  0.46142890944E+03  0.00000000000E+00 0. -1.
          1   -1    0    0  501    0  0.00000000000E+00 -0.00000000000E+00 -0.88373945751E+03  0.88373945751E+03  0.00000000000E+00 0.  1.
         23    2    1    2    0    0 -0.25109361815E+03 -0.43385285521E+03  0.19905175563E+03  0.54681542650E+03  0.90051119862E+02 0.  0.
         11    1    3    3    0    0 -0.19536006693E+03 -0.25563316832E+03  0.11079990939E+03  0.34028002059E+03  0.00000000000E+00 0.  1.
        -11    1    3    3    0    0 -0.55733551225E+02 -0.17821968689E+03  0.88251846244E+02  0.20653540591E+03  0.00000000000E+00 0. -1.
         22    1    1    2    0    0  0.25109361815E+03  0.43385285521E+03 -0.62136230371E+03  0.79835294045E+03  0.00000000000E+00 0.  1.
<mgrwt>
<rscale>  0 0.12771577E+04</rscale>
<asrwt>0</asrwt>
<pdfrwt beam="1">  1        1 0.13595991E+00 0.12771577E+04</pdfrwt>
<pdfrwt beam="2">  1       -1 0.70989064E-01 0.12771577E+04</pdfrwt>
<totfact> 0.37032864E+01</totfact>
</mgrwt>
</event>
<event>
 6    1  0.5040916E-004  0.7080903E+03  0.7818608E-02  0.9703496E-01
          2   -1    0    0  501    0  0.00000000000E+00  0.00000000000E+00  0.17889959452E+04  0.17889959452E+04  0.00000000000E+00 0.  1.
         -2   -1    0    0    0  501 -0.00000000000E+00 -0.00000000000E+00 -0.70066109574E+02  0.70066109574E+02  0.00000000000E+00 0. -1.
         23    2    1    2    0    0 -0.20923336508E+03  0.18294306035E+03  0.14245506274E+04  0.14542091400E+04  0.90182971653E+02 0.  0.
         13    1    3    3    0    0 -0.11080818302E+03  0.88892210460E+02  0.94837429089E+03  0.95895467783E+03  0.00000000000E+00 0.  1.
        -13    1    3    3    0    0 -0.98425182057E+02  0.94050849888E+02  0.47617633650E+03  0.49525446214E+03  0.00000000000E+00 0. -1.
         22    1    1    2    0    0  0.20923336508E+03 -0.18294306035E+03  0.29437920827E+03  0.40485291484E+03  0.00000000000E+00 0. -1.
<mgrwt>
<rscale>  0 0.70809035E+03</rscale>
<asrwt>0</asrwt>
<pdfrwt beam="1">  1        2 0.27523011E+00 0.70809035E+03</pdfrwt>
<pdfrwt beam="2">  1       -2 0.10779403E-01 0.70809035E+03</pdfrwt>
<totfact> 0.54259615E+02</totfact>
</mgrwt>
</event>
<event>
 6    1  0.5040916E-004  0.1137558E+04  0.7818608E-02  0.9169339E-01
          2   -1    0    0  501    0  0.00000000000E+00  0.00000000000E+00  0.64073388798E+03  0.64073388798E+03  0.00000000000E+00 0.  1.
         -2   -1    0    0    0  501 -0.00000000000E+00 -0.00000000000E+00 -0.50490503554E+03  0.50490503554E+03  0.00000000000E+00 0. -1.
         23    2    1    2    0    0 -0.26774729881E+03  0.34834727295E+03 -0.28985661975E+03  0.53388524775E+03  0.89342930096E+02 0.  0.
         11    1    3    3    0    0 -0.34560246024E+02  0.10801344329E+03 -0.77542836076E+02  0.13738342681E+03  0.00000000000E+00 0. -1.
        -11    1    3    3    0    0 -0.23318705278E+03  0.24033382966E+03 -0.21231378368E+03  0.39650182094E+03  0.00000000000E+00 0.  1.
         22    1    1    2    0    0  0.26774729881E+03 -0.34834727295E+03  0.42568547219E+03  0.61175367578E+03  0.00000000000E+00 0.  1.
<mgrwt>
<rscale>  0 0.11375584E+04</rscale>
<asrwt>0</asrwt>
<pdfrwt beam="1">  1        2 0.98574445E-01 0.11375584E+04</pdfrwt>
<pdfrwt beam="2">  1       -2 0.77677698E-01 0.11375584E+04</pdfrwt>
<totfact> 0.66994518E+01</totfact>
</mgrwt>
</event>
<event>
 6    1  0.5040916E-004  0.1792164E+04  0.7818608E-02  0.8710478E-01
          2   -1    0    0  501    0  0.00000000000E+00  0.00000000000E+00  0.12853107873E+04  0.12853107873E+04  0.00000000000E+00 0.  1.
         -2   -1    0    0    0  501 -0.00000000000E+00 -0.00000000000E+00 -0.62472270298E+03  0.62472270298E+03  0.00000000000E+00 0. -1.
         23    2    1    2    0    0  0.20662389452E+03 -0.68386071104E+03  0.90398054100E+03  0.11553157988E+04  0.84940394522E+02 0.  0.
         11    1    3    3    0    0  0.14507320926E+03 -0.51101417321E+03  0.61106522828E+03  0.80968045208E+03  0.00000000000E+00 0. -1.
        -11    1    3    3    0    0  0.61550685258E+02 -0.17284653783E+03  0.29291531272E+03  0.34563534675E+03  0.00000000000E+00 0.  1.
         22    1    1    2    0    0 -0.20662389452E+03  0.68386071104E+03 -0.24339245664E+03  0.75471769149E+03  0.00000000000E+00 0. -1.
<mgrwt>
<rscale>  0 0.17921639E+04</rscale>
<asrwt>0</asrwt>
<pdfrwt beam="1">  1        2 0.19774012E+00 0.17921639E+04</pdfrwt>
<pdfrwt beam="2">  1       -2 0.96111185E-01 0.17921639E+04</pdfrwt>
<totfact> 0.14448754E+01</totfact>
</mgrwt>
</event>
<event>
 6    1  0.5040916E-004  0.1497807E+04  0.7818608E-02  0.8885913E-01
          2   -1    0    0  501    0  0.00000000000E+00  0.00000000000E+00  0.34765733252E+04  0.34765733252E+04  0.00000000000E+00 0.  1.
         -2   -1    0    0    0  501 -0.00000000000E+00 -0.00000000000E+00 -0.16132439816E+03  0.16132439816E+03  0.00000000000E+00 0. -1.
         23    2    1    2    0    0  0.24835324379E+03  0.44391878480E+03  0.34081811980E+03  0.62028577875E+03  0.99268501205E+02 0.  0.
         11    1    3    3    0    0  0.46001986645E+02  0.17313001428E+03  0.99183744968E+02  0.20476230094E+03  0.00000000000E+00 0.  1.
        -11    1    3    3    0    0  0.20235125715E+03  0.27078877052E+03  0.24163437484E+03  0.41552347781E+03  0.00000000000E+00 0. -1.
         22    1    1    2    0    0 -0.24835324379E+03 -0.44391878480E+03  0.29744308072E+04  0.30176119446E+04  0.00000000000E+00 0.  1.
<mgrwt>
<rscale>  0 0.14978065E+04</rscale>
<asrwt>0</asrwt>
<pdfrwt beam="1">  1        2 0.53485738E+00 0.14978065E+04</pdfrwt>
<pdfrwt beam="2">  1       -2 0.24819141E-01 0.14978065E+04</pdfrwt>
<totfact> 0.12024607E+01</totfact>
</mgrwt>
</event>
<event>
 6    1  0.5040916E-004  0.1504924E+04  0.7818608E-02  0.8881185E-01
         -2   -1    0    0    0  501 -0.00000000000E+00  0.00000000000E+00  0.36866701444E+03  0.36866701444E+03  0.00000000000E+00 0. -1.
          2   -1    0    0  501    0  0.00000000000E+00 -0.00000000000E+00 -0.15357997509E+04  0.15357997509E+04  0.00000000000E+00 0.  1.
         23    2    1    2    0    0 -0.71950382687E+03 -0.43049612262E+02 -0.84635937055E+03  0.11155215339E+04  0.92331372897E+02 0.  0.
         11    1    3    3    0    0 -0.57142051476E+03  0.98282629567E+00 -0.68671348638E+03  0.89336318651E+03  0.00000000000E+00 0.  1.
        -11    1    3    3    0    0 -0.14808331211E+03 -0.44032438558E+02 -0.15964588418E+03  0.22215834737E+03  0.00000000000E+00 0. -1.
         22    1    1    2    0    0  0.71950382687E+03  0.43049612262E+02 -0.32077336591E+03  0.78894523148E+03  0.00000000000E+00 0. -1.
<mgrwt>
<rscale>  0 0.15049235E+04</rscale>
<asrwt>0</asrwt>
<pdfrwt beam="1">  1        2 0.23627688E+00 0.15049235E+04</pdfrwt>
<pdfrwt beam="2">  1       -2 0.56718003E-01 0.15049235E+04</pdfrwt>
<totfact> 0.34115836E+01</totfact>
</mgrwt>
</event>
<event>
 6    1  0.5040916E-004  0.5591582E+04  0.7818608E-02  0.7743212E-01
          2   -1    0    0  501    0  0.00000000000E+00  0.00000000000E+00  0.45447409881E+04  0.45447409881E+04  0.00000000000E+00 0.  1.
         -2   -1    0    0    0  501 -0.00000000000E+00 -0.00000000000E+00 -0.17198886167E+04  0.17198886167E+04  0.00000000000E+00 0. -1.
         23    2    1    2    0    0 -0.20542101258E+04  0.88896129213E+03 -0.46204829091E+03  0.22879793331E+04  0.10643958594E+03 0.  0.
         11    1    3    3    0    0 -0.10756906537E+04  0.42692832801E+03 -0.27930166428E+03  0.11905408852E+04  0.00000000000E+00 0. -1.
        -11    1    3    3    0    0 -0.97851947213E+03  0.46203296413E+03 -0.18274662664E+03  0.10974384479E+04  0.00000000000E+00 0.  1.
         22    1    1    2    0    0  0.20542101258E+04 -0.88896129213E+03  0.32869006623E+04  0.39766502717E+04  0.00000000000E+00 0.  1.
<mgrwt>
<rscale>  0 0.55915823E+04</rscale>
<asrwt>0</asrwt>
<pdfrwt beam="1">  1        2 0.69919092E+00 0.55915823E+04</pdfrwt>
<pdfrwt beam="2">  1       -2 0.26459825E+00 0.55915823E+04</pdfrwt>
<totfact> 0.39914803E-03</totfact>
</mgrwt>
</event>
<event>
 6    1  0.5040916E-004  0.3117751E+04  0.7818608E-02  0.8210883E-01
         -2   -1    0    0    0  501 -0.00000000000E+00  0.00000000000E+00  0.11971366715E+04  0.11971366715E+04  0.00000000000E+00 0. -1.
          2   -1    0    0  501    0  0.00000000000E+00 -0.00000000000E+00 -0.20299210758E+04  0.20299210758E+04  0.00000000000E+00 0.  1.
         23    2    1    2    0    0 -0.10650841050E+04 -0.92911228677E+03  0.26052684047E+03  0.14401656772E+04  0.92461619220E+02 0.  0.
         13    1    3    3    0    0 -0.59028973609E+03 -0.57193048559E+03  0.16685487372E+03  0.83868170468E+03  0.00000000000E+00 0. -1.
        -13    1    3    3    0    0 -0.47479436893E+03 -0.35718180118E+03  0.93671966748E+02  0.60148397254E+03  0.00000000000E+00 0.  1.
         22    1    1    2    0    0  0.10650841050E+04  0.92911228677E+03 -0.10933112448E+04  0.17868920701E+04  0.00000000000E+00 0.  1.
<mgrwt>
<rscale>  0 0.31177511E+04</rscale>
<asrwt>0</asrwt>
<pdfrwt beam="1">  1        2 0.31229555E+00 0.31177511E+04</pdfrwt>
<pdfrwt beam="2">  1       -2 0.18417488E+00 0.31177511E+04</pdfrwt>
<totfact> 0.92529824E-01</totfact>
</mgrwt>
</event>
<event>
 6    1  0.5040916E-004  0.4343269E+04  0.7818608E-02  0.7938665E-01
         -2   -1    0    0    0  501 -0.00000000000E+00  0.00000000000E+00  0.19574055592E+04  0.19574055592E+04  0.00000000000E+00 0. -1.
          2   -1    0    0  501    0  0.00000000000E+00 -0.00000000000E+00 -0.24093092812E+04  0.24093092812E+04  0.00000000000E+00 0.  1.
         23    2    1    2    0    0  0.18007126362E+04 -0.55434329902E+03  0.85763015219E+03  0.20722123978E+04  0.93124927038E+02 0.  0.
         13    1    3    3    0    0  0.12299623229E+04 -0.37555390877E+03  0.53748653628E+03  0.13938220226E+04  0.00000000000E+00 0.  1.
        -13    1    3    3    0    0  0.57075031336E+03 -0.17878939024E+03  0.32014361591E+03  0.67839037514E+03  0.00000000000E+00 0. -1.
         22    1    1    2    0    0 -0.18007126362E+04  0.55434329902E+03 -0.13095338741E+04  0.22945024426E+04  0.00000000000E+00 0.  1.
<mgrwt>
<rscale>  0 0.43432685E+04</rscale>
<asrwt>0</asrwt>
<pdfrwt beam="1">  1        2 0.37066296E+00 0.43432685E+04</pdfrwt>
<pdfrwt beam="2">  1       -2 0.30113932E+00 0.43432685E+04</pdfrwt>
<totfact> 0.94250156E-02</totfact>
</mgrwt>
</event>
<event>
 6    1  0.5040916E-004  0.1235377E+04  0.7818608E-02  0.9082442E-01
         -1   -1    0    0    0  501 -0.00000000000E+00  0.00000000000E+00  0.26350098990E+03  0.26350098990E+03  0.00000000000E+00 0. -1.
          1   -1    0    0  501    0  0.00000000000E+00 -0.00000000000E+00 -0.14479611146E+04  0.14479611146E+04  0.00000000000E+00 0.  1.
         23    2    1    2    0    0 -0.11438277228E+03  0.27002105849E+03  0.15268287669E+03  0.34254055935E+03  0.89594549742E+02 0.  0.
         13    1    3    3    0    0 -0.10691552283E+03  0.16439781358E+03  0.12682340190E+03  0.23354174231E+03  0.00000000000E+00 0. -1.
        -13    1    3    3    0    0 -0.74672494485E+01  0.10562324491E+03  0.25859474787E+02  0.10899881704E+03  0.00000000000E+00 0.  1.
         22    1    1    2    0    0  0.11438277228E+03 -0.27002105849E+03 -0.13371430013E+04  0.13689215451E+04  0.00000000000E+00 0.  1.
<mgrwt>
<rscale>  0 0.12353772E+04</rscale>
<asrwt>0</asrwt>
<pdfrwt beam="1">  1        1 0.22276325E+00 0.12353772E+04</pdfrwt>
<pdfrwt beam="2">  1       -1 0.40538614E-01 0.12353772E+04</pdfrwt>
<totfact> 0.41708809E+01</totfact>
</mgrwt>
</event>
<event>
 6    1  0.5040916E-004  0.3148935E+04  0.7818608E-02  0.8202435E-01
          2   -1    0    0  501    0  0.00000000000E+00  0.00000000000E+00  0.12575993294E+04  0.12575993294E+04  0.00000000000E+00 0.  1.
         -2   -1    0    0    0  501 -0.00000000000E+00 -0.00000000000E+00 -0.19711743329E+04  0.19711743329E+04  0.00000000000E+00 0. -1.
         23    2    1    2    0    0  0.19464129524E+03  0.12760961434E+04  0.56490056005E+03  0.14119615180E+04  0.90642620412E+02 0.  0.
         11    1    3    3    0    0  0.15736950784E+03  0.96136850435E+03  0.38458769110E+03  0.10473310152E+04  0.00000000000E+00 0.  1.
        -11    1    3    3    0    0  0.37271787397E+02  0.31472763904E+03  0.18031286895E+03  0.36463050287E+03  0.00000000000E+00 0. -1.
         22    1    1    2    0    0 -0.19464129524E+03 -0.12760961434E+04 -0.12784755636E+04  0.18168121443E+04  0.00000000000E+00 0. -1.
<mgrwt>
<rscale>  0 0.31489348E+04</rscale>
<asrwt>0</asrwt>
<pdfrwt beam="1">  1        2 0.19347682E+00 0.31489348E+04</pdfrwt>
<pdfrwt beam="2">  1       -2 0.30325759E+00 0.31489348E+04</pdfrwt>
<totfact> 0.44931331E-01</totfact>
</mgrwt>
</event>
<event>
 6    1  0.5040916E-004  0.2548683E+04  0.7818608E-02  0.8385844E-01
          2   -1    0    0  501    0  0.00000000000E+00  0.00000000000E+00  0.26207889643E+04  0.26207889643E+04  0.00000000000E+00 0.  1.
         -2   -1    0    0    0  501 -0.00000000000E+00 -0.00000000000E+00 -0.61964019880E+03  0.61964019880E+03  0.00000000000E+00 0. -1.
         23    2    1    2    0    0  0.50087502976E+03  0.24312733653E+03  0.24569824484E+04  0.25208660709E+04  0.89533783395E+02 0.  0.
         13    1    3    3    0    0  0.24712224919E+03  0.79151463509E+02  0.12495232152E+04  0.12761828339E+04  0.00000000000E+00 0. -1.
        -13    1    3    3    0    0  0.25375278057E+03  0.16397587302E+03  0.12074592333E+04  0.12446832370E+04  0.00000000000E+00 0.  1.
         22    1    1    2    0    0 -0.50087502976E+03 -0.24312733653E+03 -0.45583368290E+03  0.71956309221E+03  0.00000000000E+00 0. -1.
<mgrwt>
<rscale>  0 0.25486829E+04</rscale>
<asrwt>0</asrwt>
<pdfrwt beam="1">  1        2 0.40319830E+00 0.25486829E+04</pdfrwt>
<pdfrwt beam="2">  1       -2 0.95329263E-01 0.25486829E+04</pdfrwt>
<totfact> 0.24293304E+00</totfact>
</mgrwt>
</event>
<event>
 6    1  0.5040916E-004  0.3157761E+04  0.7818608E-02  0.8200062E-01
         -2   -1    0    0    0  501 -0.00000000000E+00  0.00000000000E+00  0.16370746730E+04  0.16370746730E+04  0.00000000000E+00 0. -1.
          2   -1    0    0  501    0  0.00000000000E+00 -0.00000000000E+00 -0.15227552385E+04  0.15227552385E+04  0.00000000000E+00 0.  1.
         23    2    1    2    0    0  0.78555317165E+03  0.72870864641E+03  0.12157865051E+04  0.16231647611E+04  0.91743876672E+02 0.  0.
         11    1    3    3    0    0  0.56096979154E+03  0.46261483270E+03  0.83250088014E+03  0.11053313105E+04  0.00000000000E+00 0.  1.
        -11    1    3    3    0    0  0.22458338011E+03  0.26609381371E+03  0.38328562497E+03  0.51783345066E+03  0.00000000000E+00 0. -1.
         22    1    1    2    0    0 -0.78555317165E+03 -0.72870864641E+03 -0.11014670706E+04  0.15366651504E+04  0.00000000000E+00 0.  1.
<mgrwt>
<rscale>  0 0.31577613E+04</rscale>
<asrwt>0</asrwt>
<pdfrwt beam="1">  1        2 0.23427003E+00 0.31577613E+04</pdfrwt>
<pdfrwt beam="2">  1       -2 0.25185764E+00 0.31577613E+04</pdfrwt>
<totfact> 0.65182920E-01</totfact>
</mgrwt>
</event>
<event>
 6    1  0.5040916E-004  0.2199336E+04  0.7818608E-02  0.8518704E-01
          2   -1    0    0  501    0  0.00000000000E+00  0.00000000000E+00  0.81350557132E+03  0.81350557132E+03  0.00000000000E+00 0.  1.
         -2   -1    0    0    0  501 -0.00000000000E+00 -0.00000000000E+00 -0.14864924618E+04  0.14864924618E+04  0.00000000000E+00 0. -1.
         23    2    1    2    0    0  0.20908333631E+03 -0.52193689977E+03 -0.13230133221E+04  0.14405398720E+04  0.93042482723E+02 0.  0.
         13    1    3    3    0    0  0.21489117367E+03 -0.46048445092E+03 -0.11758894163E+04  0.12809918288E+04  0.00000000000E+00 0. -1.
        -13    1    3    3    0    0 -0.58078373531E+01 -0.61452448853E+02 -0.14712390576E+03  0.15954804321E+03  0.00000000000E+00 0.  1.
         22    1    1    2    0    0 -0.20908333631E+03  0.52193689977E+03  0.65002643162E+03  0.85945816109E+03  0.00000000000E+00 0.  1.
<mgrwt>
<rscale>  0 0.21993362E+04</rscale>
<asrwt>0</asrwt>
<pdfrwt beam="1">  1        2 0.12515470E+00 0.21993362E+04</pdfrwt>
<pdfrwt beam="2">  1       -2 0.22869114E+00 0.21993362E+04</pdfrwt>
<totfact> 0.26817567E+00</totfact>
</mgrwt>
</event>
<event>
 6    1  0.5040916E-004  0.2304325E+04  0.7818608E-02  0.8476218E-01
         -2   -1    0    0    0  501 -0.00000000000E+00  0.00000000000E+00  0.10839964084E+04  0.10839964084E+04  0.00000000000E+00 0. -1.
          2   -1    0    0  501    0  0.00000000000E+00 -0.00000000000E+00 -0.12246153195E+04  0.12246153195E+04  0.00000000000E+00 0.  1.
         23    2    1    2    0    0 -0.58131715547E+03  0.40495990707E+03  0.83759280375E+03  0.11007953839E+04  0.90920903831E+02 0.  0.
         11    1    3    3    0    0 -0.29640180841E+03  0.24093214810E+03  0.39522373083E+03  0.54963999984E+03  0.00000000000E+00 0. -1.
        -11    1    3    3    0    0 -0.28491534706E+03  0.16402775897E+03  0.44236907292E+03  0.55115538406E+03  0.00000000000E+00 0.  1.
         22    1    1    2    0    0  0.58131715547E+03 -0.40495990707E+03 -0.97821171493E+03  0.12078163440E+04  0.00000000000E+00 0.  1.
<mgrwt>
<rscale>  0 0.23043252E+04</rscale>
<asrwt>0</asrwt>
<pdfrwt beam="1">  1        2 0.18840236E+00 0.23043252E+04</pdfrwt>
<pdfrwt beam="2">  1       -2 0.16676868E+00 0.23043252E+04</pdfrwt>
<totfact> 0.37308097E+00</totfact>
</mgrwt>
</event>
<event>
 6    1  0.5040916E-004  0.3633503E+03  0.7818608E-02  0.1057265E+00
         -2   -1    0    0    0  501 -0.00000000000E+00  0.00000000000E+00  0.20105471996E+02  0.20105471996E+02  0.00000000000E+00 0. -1.
          2   -1    0    0  501    0  0.00000000000E+00 -0.00000000000E+00 -0.16416353358E+04  0.16416353358E+04  0.00000000000E+00 0.  1.
         23    2    1    2    0    0 -0.12982291102E+03 -0.10992127913E+03 -0.77990073522E+03  0.80309287883E+03  0.88183555181E+02 0.  0.
         11    1    3    3    0    0 -0.12915340232E+03 -0.62183439982E+02 -0.60961358142E+03  0.62623965077E+03  0.00000000000E+00 0. -1.
        -11    1    3    3    0    0 -0.66950869919E+00 -0.47737839153E+02 -0.17028715380E+03  0.17685322807E+03  0.00000000000E+00 0.  1.
         22    1    1    2    0    0  0.12982291102E+03  0.10992127913E+03 -0.84162912861E+03  0.85864792899E+03  0.00000000000E+00 0.  1.
<mgrwt>
<rscale>  0 0.36335026E+03</rscale>
<asrwt>0</asrwt>
<pdfrwt beam="1">  1        2 0.25255930E+00 0.36335026E+03</pdfrwt>
<pdfrwt beam="2">  1       -2 0.30931493E-02 0.36335026E+03</pdfrwt>
<totfact> 0.46462019E+03</totfact>
</mgrwt>
</event>
<event>
 6    1  0.5040916E-004  0.1743424E+04  0.7818608E-02  0.8736979E-01
          2   -1    0    0  501    0  0.00000000000E+00  0.00000000000E+00  0.24339528318E+04  0.24339528318E+04  0.00000000000E+00 0.  1.
         -2   -1    0    0    0  501 -0.00000000000E+00 -0.00000000000E+00 -0.31220061620E+03  0.31220061620E+03  0.00000000000E+00 0. -1.
         23    2    1    2    0    0  0.24775252023E+03  0.76583542446E+03  0.15820186708E+04  0.17770314185E+04  0.84689899145E+02 0.  0.
         13    1    3    3    0    0  0.20343521785E+03  0.66339701106E+03  0.12972234123E+04  0.14711458335E+04  0.00000000000E+00 0. -1.
        -13    1    3    3    0    0  0.44317302384E+02  0.10243841340E+03  0.28479525854E+03  0.30588558502E+03  0.00000000000E+00 0.  1.
         22    1    1    2    0    0 -0.24775252023E+03 -0.76583542446E+03  0.53973354478E+03  0.96912202947E+03  0.00000000000E+00 0. -1.
<mgrwt>
<rscale>  0 0.17434237E+04</rscale>
<asrwt>0</asrwt>
<pdfrwt beam="1">  1        2 0.37445427E+00 0.17434237E+04</pdfrwt>
<pdfrwt beam="2">  1       -2 0.48030866E-01 0.17434237E+04</pdfrwt>
<totfact> 0.14819493E+01</totfact>
</mgrwt>
</event>
<event>
 6    1  0.5040916E-004  0.1766884E+04  0.7818608E-02  0.8724111E-01
         -2   -1    0    0    0  501 -0.00000000000E+00  0.00000000000E+00  0.65351608812E+03  0.65351608812E+03  0.00000000000E+00 0. -1.
          2   -1    0    0  501    0  0.00000000000E+00 -0.00000000000E+00 -0.11942624958E+04  0.11942624958E+04  0.00000000000E+00 0.  1.
         23    2    1    2    0    0  0.86680984343E+03 -0.72634029860E+02 -0.12558191267E+03  0.88393390508E+03  0.94516267334E+02 0.  0.
         13    1    3    3    0    0  0.35862099156E+03  0.16593345678E+02 -0.51897223239E+02  0.36273637326E+03  0.00000000000E+00 0. -1.
        -13    1    3    3    0    0  0.50818885188E+03 -0.89227375538E+02 -0.73684689436E+02  0.52119753182E+03  0.00000000000E+00 0.  1.
         22    1    1    2    0    0 -0.86680984343E+03  0.72634029860E+02 -0.41516449497E+03  0.96384467880E+03  0.00000000000E+00 0. -1.
<mgrwt>
<rscale>  0 0.17668840E+04</rscale>
<asrwt>0</asrwt>
<pdfrwt beam="1">  1        2 0.18373269E+00 0.17668840E+04</pdfrwt>
<pdfrwt beam="2">  1       -2 0.10054094E+00 0.17668840E+04</pdfrwt>
<totfact> 0.14739189E+01</totfact>
</mgrwt>
</event>
<event>
 6    1  0.5040916E-004  0.3087845E+04  0.7818608E-02  0.8219082E-01
         -2   -1    0    0    0  501 -0.00000000000E+00  0.00000000000E+00  0.75107084516E+03  0.75107084516E+03  0.00000000000E+00 0. -1.
          2   -1    0    0  501    0  0.00000000000E+00 -0.00000000000E+00 -0.31737312050E+04  0.31737312050E+04  0.00000000000E+00 0.  1.
         23    2    1    2    0    0 -0.69118415913E+03 -0.10797003998E+04 -0.23028269864E+04  0.26372273795E+04  0.92019710771E+02 0.  0.
         11    1    3    3    0    0 -0.41414078642E+03 -0.63520710608E+03 -0.14528931650E+04  0.16388713212E+04  0.00000000000E+00 0.  1.
        -11    1    3    3    0    0 -0.27704337271E+03 -0.44449329371E+03 -0.84993382137E+03  0.99835605834E+03  0.00000000000E+00 0. -1.
         22    1    1    2    0    0  0.69118415913E+03  0.10797003998E+04 -0.11983337353E+03  0.12875746707E+04  0.00000000000E+00 0. -1.
<mgrwt>
<rscale>  0 0.30878452E+04</rscale>
<asrwt>0</asrwt>
<pdfrwt beam="1">  1        2 0.48826635E+00 0.30878452E+04</pdfrwt>
<pdfrwt beam="2">  1       -2 0.11554936E+00 0.30878452E+04</pdfrwt>
<totfact> 0.66757893E-01</totfact>
</mgrwt>
</event>
<event>
 6    1  0.5040916E-004  0.5909634E+04  0.7818608E-02  0.7701708E-01
         -2   -1    0    0    0  501 -0.00000000000E+00  0.00000000000E+00  0.23495697375E+04  0.23495697375E+04  0.00000000000E+00 0. -1.
          2   -1    0    0  501    0  0.00000000000E+00 -0.00000000000E+00 -0.37159756335E+04  0.37159756335E+04  0.00000000000E+00 0.  1.
         23    2    1    2    0    0 -0.10289272604E+04  0.26396603496E+04  0.17553148147E+03  0.28400114703E+04  0.91409969291E+02 0.  0.
         13    1    3    3    0    0 -0.36434487116E+02  0.13864286291E+03 -0.25845424081E+01  0.14337362082E+03  0.00000000000E+00 0.  1.
        -13    1    3    3    0    0 -0.99249277325E+03  0.25010174866E+04  0.17811602388E+03  0.26966378495E+04  0.00000000000E+00 0. -1.
         22    1    1    2    0    0  0.10289272604E+04 -0.26396603496E+04 -0.15419373775E+04  0.32255339006E+04  0.00000000000E+00 0.  1.
<mgrwt>
<rscale>  0 0.59096341E+04</rscale>
<asrwt>0</asrwt>
<pdfrwt beam="1">  1        2 0.57168855E+00 0.59096341E+04</pdfrwt>
<pdfrwt beam="2">  1       -2 0.36147227E+00 0.59096341E+04</pdfrwt>
<totfact> 0.50515246E-03</totfact>
</mgrwt>
</event>
<event>
 6    1  0.5040916E-004  0.5118693E+04  0.7818608E-02  0.7810454E-01
         -2   -1    0    0    0  501 -0.00000000000E+00  0.00000000000E+00  0.31318256135E+04  0.31318256135E+04  0.00000000000E+00 0. -1.
          2   -1    0    0  501    0  0.00000000000E+00 -0.00000000000E+00 -0.20915132665E+04  0.20915132665E+04  0.00000000000E+00 0.  1.
         23    2    1    2    0    0 -0.10494432298E+04 -0.15068826456E+04  0.23383304572E+04  0.29745886906E+04  0.91444796675E+02 0.  0.
         11    1    3    3    0    0 -0.14274042884E+03 -0.26198219825E+03  0.39339098052E+03  0.49372661036E+03  0.00000000000E+00 0. -1.
        -11    1    3    3    0    0 -0.90670280099E+03 -0.12449004473E+04  0.19449394767E+04  0.24808620802E+04  0.00000000000E+00 0.  1.
         22    1    1    2    0    0  0.10494432298E+04  0.15068826456E+04 -0.12980181102E+04  0.22487501895E+04  0.00000000000E+00 0.  1.
<mgrwt>
<rscale>  0 0.51186931E+04</rscale>
<asrwt>0</asrwt>
<pdfrwt beam="1">  1        2 0.32177127E+00 0.51186931E+04</pdfrwt>
<pdfrwt beam="2">  1       -2 0.48181932E+00 0.51186931E+04</pdfrwt>
<totfact> 0.92612915E-03</totfact>
</mgrwt>
</event>
<event>
 6    1  0.5040916E-004  0.3199396E+04  0.7818608E-02  0.8188977E-01
         -2   -1    0    0    0  501 -0.00000000000E+00  0.00000000000E+00  0.18843770387E+04  0.18843770387E+04  0.00000000000E+00 0. -1.
          2   -1    0    0  501    0  0.00000000000E+00 -0.00000000000E+00 -0.13580261293E+04  0.13580261293E+04  0.00000000000E+00 0.  1.
         23    2    1    2    0    0 -0.12377961940E+04 -0.90401876453E+03  0.72269247942E+03  0.16971072880E+04  0.92192097168E+02 0.  0.
         11    1    3    3    0    0 -0.85157548561E+03 -0.64187118090E+03  0.45883134220E+03  0.11609072405E+04  0.00000000000E+00 0.  1.
        -11    1    3    3    0    0 -0.38622070838E+03 -0.26214758364E+03  0.26386113722E+03  0.53620004749E+03  0.00000000000E+00 0. -1.
         22    1    1    2    0    0  0.12377961940E+04  0.90401876453E+03 -0.19634157007E+03  0.15452958800E+04  0.00000000000E+00 0.  1.
<mgrwt>
<rscale>  0 0.31993957E+04</rscale>
<asrwt>0</asrwt>
<pdfrwt beam="1">  1        2 0.20892710E+00 0.31993957E+04</pdfrwt>
<pdfrwt beam="2">  1       -2 0.28990416E+00 0.31993957E+04</pdfrwt>
<totfact> 0.47195993E-01</totfact>
</mgrwt>
</event>
<event>
 6    1  0.5040916E-004  0.1583864E+04  0.7818608E-02  0.8830523E-01
          2   -1    0    0  501    0  0.00000000000E+00  0.00000000000E+00  0.93598152429E+03  0.93598152429E+03  0.00000000000E+00 0.  1.
         -2   -1    0    0    0  501 -0.00000000000E+00 -0.00000000000E+00 -0.67005220944E+03  0.67005220944E+03  0.00000000000E+00 0. -1.
         23    2    1    2    0    0  0.74462566909E+03 -0.15993254930E+03 -0.70445839260E+02  0.77345097406E+03  0.11496949864E+03 0.  0.
         11    1    3    3    0    0  0.55623750116E+03 -0.16903013263E+03 -0.62073036089E+02  0.58465751106E+03  0.00000000000E+00 0.  1.
        -11    1    3    3    0    0  0.18838816793E+03  0.90975833313E+01 -0.83728031706E+01  0.18879346300E+03  0.00000000000E+00 0. -1.
         22    1    1    2    0    0 -0.74462566909E+03  0.15993254930E+03  0.33637515412E+03  0.83258275967E+03  0.00000000000E+00 0. -1.
<mgrwt>
<rscale>  0 0.15838642E+04</rscale>
<asrwt>0</asrwt>
<pdfrwt beam="1">  1        2 0.14399716E+00 0.15838642E+04</pdfrwt>
<pdfrwt beam="2">  1       -2 0.10308496E+00 0.15838642E+04</pdfrwt>
<totfact> 0.20462261E+01</totfact>
</mgrwt>
</event>
<event>
 6    1  0.5040916E-004  0.1300179E+04  0.7818608E-02  0.9029424E-01
         -2   -1    0    0    0  501 -0.00000000000E+00  0.00000000000E+00  0.33251806482E+03  0.33251806482E+03  0.00000000000E+00 0. -1.
          2   -1    0    0  501    0  0.00000000000E+00 -0.00000000000E+00 -0.12709566798E+04  0.12709566798E+04  0.00000000000E+00 0.  1.
         23    2    1    2    0    0 -0.46082724280E+01  0.54354664946E+03 -0.90400646388E+03  0.10588191017E+04  0.91684279325E+02 0.  0.
         13    1    3    3    0    0  0.62021592461E+01  0.44869086505E+03 -0.67322130950E+03  0.80906667878E+03  0.00000000000E+00 0.  1.
        -13    1    3    3    0    0 -0.10810431674E+02  0.94855784410E+02 -0.23078515438E+03  0.24975242291E+03  0.00000000000E+00 0. -1.
         22    1    1    2    0    0  0.46082724280E+01 -0.54354664946E+03 -0.34432151081E+02  0.54465564289E+03  0.00000000000E+00 0. -1.
<mgrwt>
<rscale>  0 0.13001785E+04</rscale>
<asrwt>0</asrwt>
<pdfrwt beam="1">  1        2 0.19553179E+00 0.13001785E+04</pdfrwt>
<pdfrwt beam="2">  1       -2 0.51156626E-01 0.13001785E+04</pdfrwt>
<totfact> 0.60836316E+01</totfact>
</mgrwt>
</event>
<event>
 6    1  0.5040916E-004  0.4206763E+04  0.7818608E-02  0.7964087E-01
          2   -1    0    0  501    0  0.00000000000E+00  0.00000000000E+00  0.34346039675E+04  0.34346039675E+04  0.00000000000E+00 0. -1.
         -2   -1    0    0    0  501 -0.00000000000E+00 -0.00000000000E+00 -0.12881289549E+04  0.12881289549E+04  0.00000000000E+00 0.  1.
         23    2    1    2    0    0 -0.90981812254E+03  0.10126097756E+04 -0.72491481303E+03  0.15449936153E+04  0.91412315576E+02 0.  0.
         11    1    3    3    0    0 -0.39935576802E+03  0.39122316237E+03 -0.26628426346E+03  0.61923170235E+03  0.00000000000E+00 0. -1.
        -11    1    3    3    0    0 -0.51046235452E+03  0.62138661321E+03 -0.45863054957E+03  0.92576191294E+03  0.00000000000E+00 0.  1.
         22    1    1    2    0    0  0.90981812254E+03 -0.10126097756E+04  0.28713898256E+04  0.31777393072E+04  0.00000000000E+00 0. -1.
<mgrwt>
<rscale>  0 0.42067626E+04</rscale>
<asrwt>0</asrwt>
<pdfrwt beam="1">  1        2 0.52840061E+00 0.42067626E+04</pdfrwt>
<pdfrwt beam="2">  1       -2 0.19817369E+00 0.42067626E+04</pdfrwt>
<totfact> 0.95601164E-02</totfact>
</mgrwt>
</event>
<event>
 6    1  0.5040916E-004  0.2127038E+04  0.7818608E-02  0.8549426E-01
          2   -1    0    0  501    0  0.00000000000E+00  0.00000000000E+00  0.20928032961E+04  0.20928032961E+04  0.00000000000E+00 0.  1.
         -2   -1    0    0    0  501 -0.00000000000E+00 -0.00000000000E+00 -0.54045806143E+03  0.54045806143E+03  0.00000000000E+00 0. -1.
         23    2    1    2    0    0 -0.89340300111E+03  0.52991914421E+03  0.50621004373E+03  0.11590218724E+04  0.89999280590E+02 0.  0.
         11    1    3    3    0    0 -0.63022625409E+03  0.33535215787E+03  0.37518347733E+03  0.80647928851E+03  0.00000000000E+00 0. -1.
        -11    1    3    3    0    0 -0.26317674702E+03  0.19456698634E+03  0.13102656640E+03  0.35254258388E+03  0.00000000000E+00 0.  1.
         22    1    1    2    0    0  0.89340300111E+03 -0.52991914421E+03  0.10461351909E+04  0.14742394851E+04  0.00000000000E+00 0.  1.
<mgrwt>
<rscale>  0 0.21270378E+04</rscale>
<asrwt>0</asrwt>
<pdfrwt beam="1">  1        2 0.32196973E+00 0.21270378E+04</pdfrwt>
<pdfrwt beam="2">  1       -2 0.83147395E-01 0.21270378E+04</pdfrwt>
<totfact> 0.69076286E+00</totfact>
</mgrwt>
</event>
<event>
 6    1  0.5040916E-004  0.1666272E+04  0.7818608E-02  0.8780838E-01
          2   -1    0    0  501    0  0.00000000000E+00  0.00000000000E+00  0.22031908691E+04  0.22031908691E+04  0.00000000000E+00 0.  1.
         -2   -1    0    0    0  501 -0.00000000000E+00 -0.00000000000E+00 -0.31505029809E+03  0.31505029809E+03  0.00000000000E+00 0. -1.
         23    2    1    2    0    0 -0.53082106859E+03 -0.82539073721E+02  0.19043640189E+04  0.19807963739E+04  0.91478155914E+02 0.  0.
         13    1    3    3    0    0 -0.38724331291E+03 -0.38200402344E+02  0.12386631789E+04  0.12983463039E+04  0.00000000000E+00 0. -1.
        -13    1    3    3    0    0 -0.14357775567E+03 -0.44338671378E+02  0.66570084001E+03  0.68245007003E+03  0.00000000000E+00 0.  1.
         22    1    1    2    0    0  0.53082106859E+03  0.82539073721E+02 -0.16223447878E+02  0.53744479326E+03  0.00000000000E+00 0. -1.
<mgrwt>
<rscale>  0 0.16662724E+04</rscale>
<asrwt>0</asrwt>
<pdfrwt beam="1">  1        2 0.33895243E+00 0.16662724E+04</pdfrwt>
<pdfrwt beam="2">  1       -2 0.48469278E-01 0.16662724E+04</pdfrwt>
<totfact> 0.19792398E+01</totfact>
</mgrwt>
</event>
<event>
 6    1  0.5040916E-004  0.2137178E+04  0.7818608E-02  0.8545041E-01
          2   -1    0    0  501    0  0.00000000000E+00  0.00000000000E+00  0.33493573671E+04  0.33493573671E+04  0.00000000000E+00 0.  1.
         -2   -1    0    0    0  501 -0.00000000000E+00 -0.00000000000E+00 -0.34092597113E+03  0.34092597113E+03  0.00000000000E+00 0. -1.
         23    2    1    2    0    0  0.27974088141E+02 -0.59218647439E+03 -0.23904855142E+02  0.60053731146E+03  0.92769878219E+02 0.  0.
         11    1    3    3    0    0  0.60047086605E+02 -0.43018820015E+03 -0.57204566951E+01  0.43439643620E+03  0.00000000000E+00 0. -1.
        -11    1    3    3    0    0 -0.32072998464E+02 -0.16199827424E+03 -0.18184398447E+02  0.16614087526E+03  0.00000000000E+00 0.  1.
         22    1    1    2    0    0 -0.27974088141E+02  0.59218647439E+03  0.30323362512E+04  0.30897460268E+04  0.00000000000E+00 0.  1.
<mgrwt>
<rscale>  0 0.21371784E+04</rscale>
<asrwt>0</asrwt>
<pdfrwt beam="1">  1        2 0.51528573E+00 0.21371784E+04</pdfrwt>
<pdfrwt beam="2">  1       -2 0.52450152E-01 0.21371784E+04</pdfrwt>
<totfact> 0.32630248E+00</totfact>
</mgrwt>
</event>
<event>
 6    1  0.9744144E-004  0.3625285E+04  0.7818608E-02  0.8084724E-01
          2   -1    0    0  501    0  0.00000000000E+00  0.00000000000E+00  0.24959548896E+04  0.24959548896E+04  0.00000000000E+00 0.  1.
         -2   -1    0    0    0  501 -0.00000000000E+00 -0.00000000000E+00 -0.13163989578E+04  0.13163989578E+04  0.00000000000E+00 0. -1.
         23    2    1    2    0    0 -0.11644932948E+03  0.45509278049E+03 -0.12496474186E+04  0.13381471456E+04  0.91374106693E+02 0.  0.
         11    1    3    3    0    0 -0.59565822797E+02  0.20427664422E+03 -0.69354579593E+03  0.72545351723E+03  0.00000000000E+00 0. -1.
        -11    1    3    3    0    0 -0.56883506681E+02  0.25081613628E+03 -0.55610162267E+03  0.61269362840E+03  0.00000000000E+00 0.  1.
         22    1    1    2    0    0  0.11644932948E+03 -0.45509278049E+03  0.24292033504E+04  0.24742067018E+04  0.00000000000E+00 0.  1.
<mgrwt>
<rscale>  0 0.36252848E+04</rscale>
<asrwt>0</asrwt>
<pdfrwt beam="1">  1        2 0.38399306E+00 0.36252848E+04</pdfrwt>
<pdfrwt beam="2">  1       -2 0.20252292E+00 0.36252848E+04</pdfrwt>
<totfact> 0.36443979E-01</totfact>
</mgrwt>
</event>
<event>
 6    1  0.5040916E-004  0.6933838E+03  0.7818608E-02  0.9728614E-01
          2   -1    0    0  501    0  0.00000000000E+00  0.00000000000E+00  0.61702632686E+03  0.61702632686E+03  0.00000000000E+00 0.  1.
         -2   -1    0    0    0  501 -0.00000000000E+00 -0.00000000000E+00 -0.19479761922E+03  0.19479761922E+03  0.00000000000E+00 0. -1.
         23    2    1    2    0    0  0.15962778523E+03  0.48932454347E+02  0.56276077178E+03  0.59359316007E+03  0.88191487823E+02 0.  0.
         11    1    3    3    0    0  0.12157715593E+03  0.63455101389E+02  0.33107499168E+03  0.35835485884E+03  0.00000000000E+00 0.  1.
        -11    1    3    3    0    0  0.38050629296E+02 -0.14522647042E+02  0.23168578010E+03  0.23523830123E+03  0.00000000000E+00 0. -1.
         22    1    1    2    0    0 -0.15962778523E+03 -0.48932454347E+02 -0.14053206414E+03  0.21823078600E+03  0.00000000000E+00 0. -1.
<mgrwt>
<rscale>  0 0.69338376E+03</rscale>
<asrwt>0</asrwt>
<pdfrwt beam="1">  1        2 0.94927126E-01 0.69338376E+03</pdfrwt>
<pdfrwt beam="2">  1       -2 0.29968865E-01 0.69338376E+03</pdfrwt>
<totfact> 0.49547815E+02</totfact>
</mgrwt>
</event>
<event>
 6    1  0.5040916E-004  0.1958040E+04  0.7818608E-02  0.8626494E-01
         -2   -1    0    0    0  501 -0.00000000000E+00  0.00000000000E+00  0.23924549743E+03  0.23924549743E+03  0.00000000000E+00 0. -1.
          2   -1    0    0  501    0  0.00000000000E+00 -0.00000000000E+00 -0.40062603115E+04  0.40062603115E+04  0.00000000000E+00 0.  1.
         23    2    1    2    0    0  0.61362305929E+03 -0.62287347645E+03 -0.94302273655E+03  0.12892521188E+04  0.91512390433E+02 0.  0.
         13    1    3    3    0    0  0.24787317860E+03 -0.19296532458E+03 -0.31518318525E+03  0.44499120151E+03  0.00000000000E+00 0. -1.
        -13    1    3    3    0    0  0.36574988069E+03 -0.42990815187E+03 -0.62783955131E+03  0.84426091728E+03  0.00000000000E+00 0.  1.
         22    1    1    2    0    0 -0.61362305929E+03  0.62287347645E+03 -0.28239920776E+04  0.29562536902E+04  0.00000000000E+00 0.  1.
<mgrwt>
<rscale>  0 0.19580396E+04</rscale>
<asrwt>0</asrwt>
<pdfrwt beam="1">  1        2 0.61634772E+00 0.19580396E+04</pdfrwt>
<pdfrwt beam="2">  1       -2 0.36807001E-01 0.19580396E+04</pdfrwt>
<totfact> 0.22171020E+00</totfact>
</mgrwt>
</event>
<event>
 6    1  0.5040916E-004  0.3698118E+04  0.7818608E-02  0.8068379E-01
          2   -1    0    0  501    0  0.00000000000E+00  0.00000000000E+00  0.15286941712E+04  0.15286941712E+04  0.00000000000E+00 0.  1.
         -2   -1    0    0    0  501 -0.00000000000E+00 -0.00000000000E+00 -0.22365625298E+04  0.22365625298E+04  0.00000000000E+00 0. -1.
         23    2    1    2    0    0  0.34522153452E+03 -0.17630734926E+04 -0.79508674152E+03  0.19665868884E+04  0.87721232581E+02 0.  0.
         11    1    3    3    0    0  0.30939081835E+02 -0.23869851062E+03 -0.13493959326E+03  0.27594002896E+03  0.00000000000E+00 0.  1.
        -11    1    3    3    0    0  0.31428245269E+03 -0.15243749820E+04 -0.66014714826E+03  0.16906468594E+04  0.00000000000E+00 0. -1.
         22    1    1    2    0    0 -0.34522153452E+03  0.17630734926E+04  0.87218382911E+02  0.17986698126E+04  0.00000000000E+00 0.  1.
<mgrwt>
<rscale>  0 0.36981185E+04</rscale>
<asrwt>0</asrwt>
<pdfrwt beam="1">  1        2 0.23518372E+00 0.36981185E+04</pdfrwt>
<pdfrwt beam="2">  1       -2 0.34408654E+00 0.36981185E+04</pdfrwt>
<totfact> 0.16754189E-01</totfact>
</mgrwt>
</event>
<event>
 6    1  0.5040916E-004  0.2209886E+04  0.7818608E-02  0.8514325E-01
          2   -1    0    0  501    0  0.00000000000E+00  0.00000000000E+00  0.17105481764E+04  0.17105481764E+04  0.00000000000E+00 0.  1.
         -2   -1    0    0    0  501 -0.00000000000E+00 -0.00000000000E+00 -0.71374731164E+03  0.71374731164E+03  0.00000000000E+00 0. -1.
         23    2    1    2    0    0 -0.62430587809E+03  0.50465598749E+03  0.13292038283E+04  0.15554300064E+04  0.90245178800E+02 0.  0.
         11    1    3    3    0    0 -0.37848304460E+03  0.29363285054E+03  0.87465361859E+03  0.99724050182E+03  0.00000000000E+00 0.  1.
        -11    1    3    3    0    0 -0.24582283349E+03  0.21102313696E+03  0.45455020973E+03  0.55818950453E+03  0.00000000000E+00 0. -1.
         22    1    1    2    0    0  0.62430587809E+03 -0.50465598749E+03 -0.33240296354E+03  0.86886548171E+03  0.00000000000E+00 0. -1.
<mgrwt>
<rscale>  0 0.22098861E+04</rscale>
<asrwt>0</asrwt>
<pdfrwt beam="1">  1        2 0.26316126E+00 0.22098861E+04</pdfrwt>
<pdfrwt beam="2">  1       -2 0.10980728E+00 0.22098861E+04</pdfrwt>
<totfact> 0.58308228E+00</totfact>
</mgrwt>
</event>
<event>
 6    1  0.5040916E-004  0.1568676E+04  0.7818608E-02  0.8840026E-01
          2   -1    0    0  501    0  0.00000000000E+00  0.00000000000E+00  0.24394073806E+04  0.24394073806E+04  0.00000000000E+00 0.  1.
         -2   -1    0    0    0  501 -0.00000000000E+00 -0.00000000000E+00 -0.25218677788E+03  0.25218677788E+03  0.00000000000E+00 0. -1.
         23    2    1    2    0    0  0.31379687607E+03  0.71440541727E+03  0.11773194157E+04  0.14153716123E+04  0.91390452955E+02 0.  0.
         11    1    3    3    0    0  0.92438841449E+02  0.18842179824E+03  0.24870919553E+03  0.32542891298E+03  0.00000000000E+00 0.  1.
        -11    1    3    3    0    0  0.22135803462E+03  0.52598361903E+03  0.92861022012E+03  0.10899426994E+04  0.00000000000E+00 0. -1.
         22    1    1    2    0    0 -0.31379687607E+03 -0.71440541727E+03  0.10099011871E+04  0.12762225462E+04  0.00000000000E+00 0. -1.
<mgrwt>
<rscale>  0 0.15686762E+04</rscale>
<asrwt>0</asrwt>
<pdfrwt beam="1">  1        2 0.37529343E+00 0.15686762E+04</pdfrwt>
<pdfrwt beam="2">  1       -2 0.38797968E-01 0.15686762E+04</pdfrwt>
<totfact> 0.22815603E+01</totfact>
</mgrwt>
</event>
<event>
 6    1  0.5040916E-004  0.4094208E+04  0.7818608E-02  0.7985807E-01
          2   -1    0    0  501    0  0.00000000000E+00  0.00000000000E+00  0.41130142206E+04  0.41130142206E+04  0.00000000000E+00 0.  1.
         -2   -1    0    0    0  501 -0.00000000000E+00 -0.00000000000E+00 -0.10188718472E+04  0.10188718472E+04  0.00000000000E+00 0. -1.
         23    2    1    2    0    0 -0.13561036380E+04  0.10094117312E+04  0.10335605267E+03  0.16963756346E+04  0.95282211450E+02 0.  0.
         13    1    3    3    0    0 -0.70556042419E+03  0.57950268339E+03  0.36819682597E+02  0.91378036818E+03  0.00000000000E+00 0. -1.
        -13    1    3    3    0    0 -0.65054321379E+03  0.42990904783E+03  0.66536370070E+02  0.78259526638E+03  0.00000000000E+00 0.  1.
         22    1    1    2    0    0  0.13561036380E+04 -0.10094117312E+04  0.29907863207E+04  0.34355104332E+04  0.00000000000E+00 0.  1.
<mgrwt>
<rscale>  0 0.40942078E+04</rscale>
<asrwt>0</asrwt>
<pdfrwt beam="1">  1        2 0.63277141E+00 0.40942078E+04</pdfrwt>
<pdfrwt beam="2">  1       -2 0.15674952E+00 0.40942078E+04</pdfrwt>
<totfact> 0.57288244E-02</totfact>
</mgrwt>
</event>
<event>
 6    1  0.5040916E-004  0.4407404E+04  0.7818608E-02  0.7927051E-01
         -2   -1    0    0    0  501 -0.00000000000E+00  0.00000000000E+00  0.11612887691E+04  0.11612887691E+04  0.00000000000E+00 0. -1.
          2   -1    0    0  501    0  0.00000000000E+00 -0.00000000000E+00 -0.41818224590E+04  0.41818224590E+04  0.00000000000E+00 0.  1.
         23    2    1    2    0    0  0.13052942099E+04 -0.10862917916E+04  0.18986832947E+03  0.17112378883E+04  0.91990744372E+02 0.  0.
         11    1    3    3    0    0  0.39383876488E+03 -0.36776299219E+03  0.90217388887E+02  0.54634949291E+03  0.00000000000E+00 0.  1.
        -11    1    3    3    0    0  0.91145544503E+03 -0.71852879937E+03  0.99650940588E+02  0.11648883954E+04  0.00000000000E+00 0. -1.
         22    1    1    2    0    0 -0.13052942099E+04  0.10862917916E+04 -0.32104020194E+04  0.36318733398E+04  0.00000000000E+00 0.  1.
<mgrwt>
<rscale>  0 0.44074044E+04</rscale>
<asrwt>0</asrwt>
<pdfrwt beam="1">  1        2 0.64335729E+00 0.44074044E+04</pdfrwt>
<pdfrwt beam="2">  1       -2 0.17865981E+00 0.44074044E+04</pdfrwt>
<totfact> 0.33913543E-02</totfact>
</mgrwt>
</event>
<event>
 6    1  0.5040916E-004  0.1804026E+04  0.7818608E-02  0.8704161E-01
          2   -1    0    0  501    0  0.00000000000E+00  0.00000000000E+00  0.12221207516E+04  0.12221207516E+04  0.00000000000E+00 0.  1.
         -2   -1    0    0    0  501 -0.00000000000E+00 -0.00000000000E+00 -0.66575038619E+03  0.66575038619E+03  0.00000000000E+00 0. -1.
         23    2    1    2    0    0  0.17732582403E+03  0.82999511940E+03  0.59125289589E+03  0.10384282986E+04  0.91744201053E+02 0.  0.
         11    1    3    3    0    0  0.38979973406E+02  0.69449059991E+02  0.70470367578E+02  0.10634229153E+03  0.00000000000E+00 0.  1.
        -11    1    3    3    0    0  0.13834585062E+03  0.76054605940E+03  0.52078252832E+03  0.93208600711E+03  0.00000000000E+00 0. -1.
         22    1    1    2    0    0 -0.17732582403E+03 -0.82999511940E+03 -0.34882530456E+02  0.84944283917E+03  0.00000000000E+00 0. -1.
<mgrwt>
<rscale>  0 0.18040259E+04</rscale>
<asrwt>0</asrwt>
<pdfrwt beam="1">  1        2 0.18801858E+00 0.18040259E+04</pdfrwt>
<pdfrwt beam="2">  1       -2 0.10242314E+00 0.18040259E+04</pdfrwt>
<totfact> 0.13531248E+01</totfact>
</mgrwt>
</event>
<event>
 6    1  0.5040916E-004  0.3333380E+04  0.7818608E-02  0.8154453E-01
          2   -1    0    0  501    0  0.00000000000E+00  0.00000000000E+00  0.28970163630E+04  0.28970163630E+04  0.00000000000E+00 0.  1.
         -2   -1    0    0    0  501 -0.00000000000E+00 -0.00000000000E+00 -0.95886761677E+03  0.95886761677E+03  0.00000000000E+00 0. -1.
         23    2    1    2    0    0 -0.30614515832E+02 -0.11304482025E+04  0.23840933615E+04  0.26402701485E+04  0.90966550799E+02 0.  0.
         13    1    3    3    0    0 -0.36093642175E+02 -0.25859812086E+03  0.60919394471E+03  0.66279182357E+03  0.00000000000E+00 0.  1.
        -13    1    3    3    0    0  0.54791263434E+01 -0.87185008161E+03  0.17748994168E+04  0.19774783249E+04  0.00000000000E+00 0. -1.
         22    1    1    2    0    0  0.30614515832E+02  0.11304482025E+04 -0.44594461526E+03  0.12156138313E+04  0.00000000000E+00 0. -1.
<mgrwt>
<rscale>  0 0.33333798E+04</rscale>
<asrwt>0</asrwt>
<pdfrwt beam="1">  1        2 0.44569482E+00 0.33333798E+04</pdfrwt>
<pdfrwt beam="2">  1       -2 0.14751810E+00 0.33333798E+04</pdfrwt>
<totfact> 0.52594384E-01</totfact>
</mgrwt>
</event>
<event>
 6    1  0.5040916E-004  0.4551824E+04  0.7818608E-02  0.7901626E-01
         -2   -1    0    0    0  501 -0.00000000000E+00  0.00000000000E+00  0.34752299731E+04  0.34752299731E+04  0.00000000000E+00 0. -1.
          2   -1    0    0  501    0  0.00000000000E+00 -0.00000000000E+00 -0.14904840310E+04  0.14904840310E+04  0.00000000000E+00 0.  1.
         23    2    1    2    0    0 -0.19720873322E+04 -0.82696920418E+03  0.18389317817E+04  0.28222895758E+04  0.10315930123E+03 0.  0.
         11    1    3    3    0    0 -0.42475964599E+03 -0.15682548508E+03  0.34105769012E+03  0.56686447906E+03  0.00000000000E+00 0. -1.
        -11    1    3    3    0    0 -0.15473276862E+04 -0.67014371910E+03  0.14978740916E+04  0.22554250968E+04  0.00000000000E+00 0.  1.
         22    1    1    2    0    0  0.19720873322E+04  0.82696920418E+03  0.14581416038E+03  0.21434244283E+04  0.00000000000E+00 0.  1.
<mgrwt>
<rscale>  0 0.45518237E+04</rscale>
<asrwt>0</asrwt>
<pdfrwt beam="1">  1        2 0.22930524E+00 0.45518237E+04</pdfrwt>
<pdfrwt beam="2">  1       -2 0.53465077E+00 0.45518237E+04</pdfrwt>
<totfact> 0.10055723E-02</totfact>
</mgrwt>
</event>
<event>
 6    1  0.5040916E-004  0.8353708E+03  0.7818608E-02  0.9510185E-01
          2   -1    0    0  501    0  0.00000000000E+00  0.00000000000E+00  0.60196482623E+03  0.60196482623E+03  0.00000000000E+00 0.  1.
         -2   -1    0    0    0  501 -0.00000000000E+00 -0.00000000000E+00 -0.28981941253E+03  0.28981941253E+03  0.00000000000E+00 0. -1.
         23    2    1    2    0    0 -0.17323905981E+03 -0.16801174755E+03  0.51753851879E+03  0.57488354962E+03  0.66372117941E+02 0.  0.
         11    1    3    3    0    0 -0.29529899055E+02 -0.43423681090E+02  0.17936373504E+03  0.18689296526E+03  0.00000000000E+00 0. -1.
        -11    1    3    3    0    0 -0.14370916075E+03 -0.12458806646E+03  0.33817478375E+03  0.38799058436E+03  0.00000000000E+00 0.  1.
         22    1    1    2    0    0  0.17323905981E+03  0.16801174755E+03 -0.20539310509E+03  0.31690068914E+03  0.00000000000E+00 0. -1.
<mgrwt>
<rscale>  0 0.83537080E+03</rscale>
<asrwt>0</asrwt>
<pdfrwt beam="1">  1        2 0.92609973E-01 0.83537080E+03</pdfrwt>
<pdfrwt beam="2">  1       -2 0.44587602E-01 0.83537080E+03</pdfrwt>
<totfact> 0.23691833E+02</totfact>
</mgrwt>
</event>
<event>
 6    1  0.5040916E-004  0.3353494E+04  0.7818608E-02  0.8149416E-01
          2   -1    0    0  501    0  0.00000000000E+00  0.00000000000E+00  0.50016367199E+04  0.50016367199E+04  0.00000000000E+00 0.  1.
         -2   -1    0    0    0  501 -0.00000000000E+00 -0.00000000000E+00 -0.56211212109E+03  0.56211212109E+03  0.00000000000E+00 0. -1.
         23    2    1    2    0    0  0.11784767477E+04 -0.11298075996E+04  0.15965517770E+04  0.22853701072E+04  0.93092928180E+02 0.  0.
         13    1    3    3    0    0  0.51766216760E+03 -0.54614295105E+03  0.77618558847E+03  0.10810690591E+04  0.00000000000E+00 0. -1.
        -13    1    3    3    0    0  0.66081458007E+03 -0.58366464852E+03  0.82036618857E+03  0.12043010481E+04  0.00000000000E+00 0.  1.
         22    1    1    2    0    0 -0.11784767477E+04  0.11298075996E+04  0.28429728217E+04  0.32783787338E+04  0.00000000000E+00 0. -1.
<mgrwt>
<rscale>  0 0.33534941E+04</rscale>
<asrwt>0</asrwt>
<pdfrwt beam="1">  1        2 0.76948254E+00 0.33534941E+04</pdfrwt>
<pdfrwt beam="2">  1       -2 0.86478791E-01 0.33534941E+04</pdfrwt>
<totfact> 0.32724633E-02</totfact>
</mgrwt>
</event>
<event>
 6    1  0.5040916E-004  0.2518380E+04  0.7818608E-02  0.8396467E-01
         -2   -1    0    0    0  501 -0.00000000000E+00  0.00000000000E+00  0.68154550331E+03  0.68154550331E+03  0.00000000000E+00 0. -1.
          2   -1    0    0  501    0  0.00000000000E+00 -0.00000000000E+00 -0.23264167501E+04  0.23264167501E+04  0.00000000000E+00 0.  1.
         23    2    1    2    0    0  0.68306133623E+03  0.22850020525E+03  0.40760193963E+03  0.83277690181E+03  0.92697864806E+02 0.  0.
         13    1    3    3    0    0  0.35585874733E+03  0.99724686679E+02  0.25760427752E+03  0.45048909530E+03  0.00000000000E+00 0. -1.
        -13    1    3    3    0    0  0.32720258891E+03  0.12877551857E+03  0.14999766210E+03  0.38228780651E+03  0.00000000000E+00 0.  1.
         22    1    1    2    0    0 -0.68306133623E+03 -0.22850020525E+03 -0.20524731864E+04  0.21751853516E+04  0.00000000000E+00 0.  1.
<mgrwt>
<rscale>  0 0.25183795E+04</rscale>
<asrwt>0</asrwt>
<pdfrwt beam="1">  1        2 0.35791027E+00 0.25183795E+04</pdfrwt>
<pdfrwt beam="2">  1       -2 0.10485315E+00 0.25183795E+04</pdfrwt>
<totfact> 0.28760827E+00</totfact>
</mgrwt>
</event>
<event>
 6    1  0.5040916E-004  0.3976475E+04  0.7818608E-02  0.8009309E-01
          2   -1    0    0  501    0  0.00000000000E+00  0.00000000000E+00  0.30732361553E+04  0.30732361553E+04  0.00000000000E+00 0.  1.
         -2   -1    0    0    0  501 -0.00000000000E+00 -0.00000000000E+00 -0.12862948726E+04  0.12862948726E+04  0.00000000000E+00 0. -1.
         23    2    1    2    0    0  0.10853611886E+04  0.94068432827E+02  0.27159862270E+04  0.29277551067E+04  0.91164686806E+02 0.  0.
         11    1    3    3    0    0  0.81368081127E+03  0.73662382372E+02  0.21376112109E+04  0.22884239769E+04  0.00000000000E+00 0. -1.
        -11    1    3    3    0    0  0.27168037733E+03  0.20406050455E+02  0.57837501605E+03  0.63933112978E+03  0.00000000000E+00 0.  1.
         22    1    1    2    0    0 -0.10853611886E+04 -0.94068432827E+02 -0.92904494435E+03  0.14317759212E+04  0.00000000000E+00 0. -1.
<mgrwt>
<rscale>  0 0.39764748E+04</rscale>
<asrwt>0</asrwt>
<pdfrwt beam="1">  1        2 0.47280556E+00 0.39764748E+04</pdfrwt>
<pdfrwt beam="2">  1       -2 0.19789152E+00 0.39764748E+04</pdfrwt>
<totfact> 0.16975551E-01</totfact>
</mgrwt>
</event>
<event>
 6    1  0.5040916E-004  0.6423505E+03  0.7818608E-02  0.9821240E-01
          2   -1    0    0  501    0  0.00000000000E+00  0.00000000000E+00  0.65517649675E+03  0.65517649675E+03  0.00000000000E+00 0.  1.
         -2   -1    0    0    0  501 -0.00000000000E+00 -0.00000000000E+00 -0.15744391533E+03  0.15744391533E+03  0.00000000000E+00 0. -1.
         23    2    1    2    0    0  0.20646590538E+02  0.17357563251E+02  0.65052071522E+03  0.65746958051E+03  0.91441137721E+02 0.  0.
         11    1    3    3    0    0 -0.18714038081E+02 -0.64628704222E+01  0.49223938853E+03  0.49263739153E+03  0.00000000000E+00 0. -1.
        -11    1    3    3    0    0  0.39360628620E+02  0.23820433673E+02  0.15828132669E+03  0.16483218899E+03  0.00000000000E+00 0.  1.
         22    1    1    2    0    0 -0.20646590538E+02 -0.17357563251E+02 -0.15278813380E+03  0.15515083156E+03  0.00000000000E+00 0. -1.
<mgrwt>
<rscale>  0 0.64235054E+03</rscale>
<asrwt>0</asrwt>
<pdfrwt beam="1">  1        2 0.10079638E+00 0.64235054E+03</pdfrwt>
<pdfrwt beam="2">  1       -2 0.24222141E-01 0.64235054E+03</pdfrwt>
<totfact> 0.67945899E+02</totfact>
</mgrwt>
</event>
<event>
 6    1  0.5040916E-004  0.1956700E+04  0.7818608E-02  0.8627137E-01
         -2   -1    0    0    0  501 -0.00000000000E+00  0.00000000000E+00  0.16751116590E+04  0.16751116590E+04  0.00000000000E+00 0. -1.
          2   -1    0    0  501    0  0.00000000000E+00 -0.00000000000E+00 -0.57140567976E+03  0.57140567976E+03  0.00000000000E+00 0.  1.
         23    2    1    2    0    0 -0.48127565313E+02 -0.35614043606E+03  0.15951198154E+04  0.16377153750E+04  0.92477842269E+02 0.  0.
         13    1    3    3    0    0 -0.58254453895E+02 -0.18091884959E+03  0.68795559200E+03  0.71372831533E+03  0.00000000000E+00 0. -1.
        -13    1    3    3    0    0  0.10126888582E+02 -0.17522158646E+03  0.90716422341E+03  0.92398705969E+03  0.00000000000E+00 0.  1.
         22    1    1    2    0    0  0.48127565313E+02  0.35614043606E+03 -0.49141383614E+03  0.60880196377E+03  0.00000000000E+00 0.  1.
<mgrwt>
<rscale>  0 0.19566996E+04</rscale>
<asrwt>0</asrwt>
<pdfrwt beam="1">  1        2 0.87908567E-01 0.19566996E+04</pdfrwt>
<pdfrwt beam="2">  1       -2 0.25770948E+00 0.19566996E+04</pdfrwt>
<totfact> 0.28259330E+00</totfact>
</mgrwt>
</event>
<event>
 6    1  0.5040916E-004  0.2420012E+04  0.7818608E-02  0.8432049E-01
          2   -1    0    0  501    0  0.00000000000E+00  0.00000000000E+00  0.41765870405E+04  0.41765870405E+04  0.00000000000E+00 0.  1.
         -2   -1    0    0    0  501 -0.00000000000E+00 -0.00000000000E+00 -0.35055293185E+03  0.35055293185E+03  0.00000000000E+00 0. -1.
         23    2    1    2    0    0  0.45461412956E+03  0.49307705143E+03  0.35839643596E+02  0.67806565917E+03  0.93217877235E+02 0.  0.
         13    1    3    3    0    0  0.41424922709E+02  0.49313851949E+02 -0.24105226025E+02  0.68767304274E+02  0.00000000000E+00 0. -1.
        -13    1    3    3    0    0  0.41318920685E+03  0.44376319949E+03  0.59944869621E+02  0.60929835489E+03  0.00000000000E+00 0.  1.
         22    1    1    2    0    0 -0.45461412956E+03 -0.49307705143E+03  0.37901944650E+04  0.38490743131E+04  0.00000000000E+00 0.  1.
<mgrwt>
<rscale>  0 0.24200123E+04</rscale>
<asrwt>0</asrwt>
<pdfrwt beam="1">  1        2 0.64255182E+00 0.24200123E+04</pdfrwt>
<pdfrwt beam="2">  1       -2 0.53931223E-01 0.24200123E+04</pdfrwt>
<totfact> 0.71210111E-01</totfact>
</mgrwt>
</event>
<event>
 6    1  0.5040916E-004  0.4052766E+04  0.7818608E-02  0.7993986E-01
         -2   -1    0    0    0  501 -0.00000000000E+00  0.00000000000E+00  0.18710474157E+04  0.18710474157E+04  0.00000000000E+00 0. -1.
          2   -1    0    0  501    0  0.00000000000E+00 -0.00000000000E+00 -0.21946147900E+04  0.21946147900E+04  0.00000000000E+00 0.  1.
         23    2    1    2    0    0  0.22879322946E+03 -0.83587621768E+03  0.16745204129E+04  0.18877296543E+04  0.92028480474E+02 0.  0.
         13    1    3    3    0    0  0.21635763171E+02 -0.53967784413E+02  0.16818099305E+03  0.17794795426E+03  0.00000000000E+00 0. -1.
        -13    1    3    3    0    0  0.20715746629E+03 -0.78190843327E+03  0.15063394199E+04  0.17097817000E+04  0.00000000000E+00 0.  1.
         22    1    1    2    0    0 -0.22879322946E+03  0.83587621768E+03 -0.19980877872E+04  0.21779325514E+04  0.00000000000E+00 0.  1.
<mgrwt>
<rscale>  0 0.40527661E+04</rscale>
<asrwt>0</asrwt>
<pdfrwt beam="1">  1        2 0.33763305E+00 0.40527661E+04</pdfrwt>
<pdfrwt beam="2">  1       -2 0.28785345E+00 0.40527661E+04</pdfrwt>
<totfact> 0.15405102E-01</totfact>
</mgrwt>
</event>
<event>
 6    1  0.5040916E-004  0.1424146E+04  0.7818608E-02  0.8936523E-01
          2   -1    0    0  501    0  0.00000000000E+00  0.00000000000E+00  0.11116444142E+04  0.11116444142E+04  0.00000000000E+00 0.  1.
         -2   -1    0    0    0  501 -0.00000000000E+00 -0.00000000000E+00 -0.45612454433E+03  0.45612454433E+03  0.00000000000E+00 0. -1.
         23    2    1    2    0    0  0.46010935673E+03  0.15982936785E+03  0.89685903772E+03  0.10241784500E+04  0.85669813612E+02 0.  0.
         11    1    3    3    0    0  0.34006649766E+03  0.77816173767E+02  0.64948395324E+03  0.73724486112E+03  0.00000000000E+00 0.  1.
        -11    1    3    3    0    0  0.12004285907E+03  0.82013194079E+02  0.24737508449E+03  0.28693358890E+03  0.00000000000E+00 0. -1.
         22    1    1    2    0    0 -0.46010935673E+03 -0.15982936785E+03 -0.24133916787E+03  0.54359050849E+03  0.00000000000E+00 0. -1.
<mgrwt>
<rscale>  0 0.14241465E+04</rscale>
<asrwt>0</asrwt>
<pdfrwt beam="1">  1        2 0.17102222E+00 0.14241465E+04</pdfrwt>
<pdfrwt beam="2">  1       -2 0.70173007E-01 0.14241465E+04</pdfrwt>
<totfact> 0.38501039E+01</totfact>
</mgrwt>
</event>
<event>
 6    1  0.5040916E-004  0.8505558E+03  0.7818608E-02  0.9489591E-01
          2   -1    0    0  501    0  0.00000000000E+00  0.00000000000E+00  0.50431954227E+03  0.50431954227E+03  0.00000000000E+00 0.  1.
         -2   -1    0    0    0  501 -0.00000000000E+00 -0.00000000000E+00 -0.35862441201E+03  0.35862441201E+03  0.00000000000E+00 0. -1.
         23    2    1    2    0    0  0.27587637298E+03  0.95987507990E+02  0.38003037370E+03  0.48846514156E+03  0.94094286378E+02 0.  0.
         11    1    3    3    0    0  0.15511907892E+03  0.26086480891E+02  0.26255258410E+03  0.30606583041E+03  0.00000000000E+00 0. -1.
        -11    1    3    3    0    0  0.12075729406E+03  0.69901027099E+02  0.11747778960E+03  0.18239931115E+03  0.00000000000E+00 0.  1.
         22    1    1    2    0    0 -0.27587637298E+03 -0.95987507990E+02 -0.23433524344E+03  0.37447881272E+03  0.00000000000E+00 0. -1.
<mgrwt>
<rscale>  0 0.85055582E+03</rscale>
<asrwt>0</asrwt>
<pdfrwt beam="1">  1        2 0.77587622E-01 0.85055582E+03</pdfrwt>
<pdfrwt beam="2">  1       -2 0.55172986E-01 0.85055582E+03</pdfrwt>
<totfact> 0.18937810E+02</totfact>
</mgrwt>
</event>
<event>
 6    1  0.5040916E-004  0.2837034E+04  0.7818608E-02  0.8291862E-01
         -1   -1    0    0    0  501 -0.00000000000E+00  0.00000000000E+00  0.76742110848E+03  0.76742110848E+03  0.00000000000E+00 0. -1.
          1   -1    0    0  501    0  0.00000000000E+00 -0.00000000000E+00 -0.26220158343E+04  0.26220158343E+04  0.00000000000E+00 0.  1.
         23    2    1    2    0    0  0.60300680862E+03 -0.31757459413E+03  0.55574955765E+03  0.88459555081E+03  0.95816927516E+02 0.  0.
         11    1    3    3    0    0  0.12888401132E+03 -0.26583150328E+02  0.95739937321E+02  0.16273871037E+03  0.00000000000E+00 0. -1.
        -11    1    3    3    0    0  0.47412279730E+03 -0.29099144380E+03  0.46000962033E+03  0.72185684043E+03  0.00000000000E+00 0.  1.
         22    1    1    2    0    0 -0.60300680862E+03  0.31757459413E+03 -0.24103442835E+04  0.25048413920E+04  0.00000000000E+00 0.  1.
<mgrwt>
<rscale>  0 0.28370339E+04</rscale>
<asrwt>0</asrwt>
<pdfrwt beam="1">  1        1 0.40338705E+00 0.28370339E+04</pdfrwt>
<pdfrwt beam="2">  1       -1 0.11806479E+00 0.28370339E+04</pdfrwt>
<totfact> 0.61875770E-01</totfact>
</mgrwt>
</event>
<event>
 6    1  0.5040916E-004  0.2095354E+04  0.7818608E-02  0.8563293E-01
         -2   -1    0    0    0  501 -0.00000000000E+00  0.00000000000E+00  0.48720852049E+03  0.48720852049E+03  0.00000000000E+00 0. -1.
          2   -1    0    0  501    0  0.00000000000E+00 -0.00000000000E+00 -0.22528892343E+04  0.22528892343E+04  0.00000000000E+00 0.  1.
         23    2    1    2    0    0  0.63751150257E+03 -0.52833391987E+03 -0.17196820755E+04  0.19108369264E+04  0.91835024507E+02 0.  0.
         13    1    3    3    0    0  0.48363271567E+03 -0.44837349946E+03 -0.13468256216E+04  0.14996261713E+04  0.00000000000E+00 0.  1.
        -13    1    3    3    0    0  0.15387878690E+03 -0.79960420408E+02 -0.37285645397E+03  0.41121075516E+03  0.00000000000E+00 0. -1.
         22    1    1    2    0    0 -0.63751150257E+03  0.52833391987E+03 -0.45998638305E+02  0.82926082839E+03  0.00000000000E+00 0. -1.
<mgrwt>
<rscale>  0 0.20953537E+04</rscale>
<asrwt>0</asrwt>
<pdfrwt beam="1">  1        2 0.34659834E+00 0.20953537E+04</pdfrwt>
<pdfrwt beam="2">  1       -2 0.74955158E-01 0.20953537E+04</pdfrwt>
<totfact> 0.71062244E+00</totfact>
</mgrwt>
</event>
<event>
 6    1  0.5040916E-004  0.1970379E+04  0.7818608E-02  0.8620596E-01
         -2   -1    0    0    0  501 -0.00000000000E+00  0.00000000000E+00  0.28740682932E+03  0.28740682932E+03  0.00000000000E+00 0.  1.
          2   -1    0    0  501    0  0.00000000000E+00 -0.00000000000E+00 -0.33770883428E+04  0.33770883428E+04  0.00000000000E+00 0. -1.
         23    2    1    2    0    0 -0.12388705267E+03  0.63832947629E+03 -0.29193874787E+04  0.29923251189E+04  0.91508712529E+02 0.  0.
         13    1    3    3    0    0 -0.80389715677E+02  0.42265235156E+03 -0.21198186411E+04  0.21630368901E+04  0.00000000000E+00 0. -1.
        -13    1    3    3    0    0 -0.43497336990E+02  0.21567712473E+03 -0.79956883758E+03  0.82928822884E+03  0.00000000000E+00 0.  1.
         22    1    1    2    0    0  0.12388705267E+03 -0.63832947629E+03 -0.17029403477E+03  0.67217005318E+03  0.00000000000E+00 0.  1.
<mgrwt>
<rscale>  0 0.19703789E+04</rscale>
<asrwt>0</asrwt>
<pdfrwt beam="1">  1        2 0.51955201E+00 0.19703789E+04</pdfrwt>
<pdfrwt beam="2">  1       -2 0.44216439E-01 0.19703789E+04</pdfrwt>
<totfact> 0.44868990E+00</totfact>
</mgrwt>
</event>
<event>
 6    1  0.5040916E-004  0.1627790E+04  0.7818608E-02  0.8803655E-01
          2   -1    0    0  501    0  0.00000000000E+00  0.00000000000E+00  0.63271278058E+03  0.63271278058E+03  0.00000000000E+00 0.  1.
         -2   -1    0    0    0  501 -0.00000000000E+00 -0.00000000000E+00 -0.10469598013E+04  0.10469598013E+04  0.00000000000E+00 0. -1.
         23    2    1    2    0    0  0.40899408558E+03  0.10435253324E+03 -0.92273626867E+03  0.10188193996E+04  0.91570378224E+02 0.  0.
         11    1    3    3    0    0  0.18753306655E+03  0.11675253524E+01 -0.40905232478E+03  0.44999313169E+03  0.00000000000E+00 0. -1.
        -11    1    3    3    0    0  0.22146101903E+03  0.10318500789E+03 -0.51368394389E+03  0.56882626786E+03  0.00000000000E+00 0.  1.
         22    1    1    2    0    0 -0.40899408558E+03 -0.10435253324E+03  0.50848924798E+03  0.66085318229E+03  0.00000000000E+00 0.  1.
<mgrwt>
<rscale>  0 0.16277897E+04</rscale>
<asrwt>0</asrwt>
<pdfrwt beam="1">  1        2 0.97340430E-01 0.16277897E+04</pdfrwt>
<pdfrwt beam="2">  1       -2 0.16107074E+00 0.16277897E+04</pdfrwt>
<totfact> 0.10993523E+01</totfact>
</mgrwt>
</event>
<event>
 6    1  0.5040916E-004  0.1847784E+04  0.7818608E-02  0.8681293E-01
         -2   -1    0    0    0  501 -0.00000000000E+00  0.00000000000E+00  0.30844965996E+04  0.30844965996E+04  0.00000000000E+00 0. -1.
          2   -1    0    0  501    0  0.00000000000E+00 -0.00000000000E+00 -0.27673113282E+03  0.27673113282E+03  0.00000000000E+00 0.  1.
         23    2    1    2    0    0 -0.85682859172E+03  0.92567354167E+02  0.81791224921E+03  0.11927628888E+04  0.10478029776E+03 0.  0.
         13    1    3    3    0    0 -0.41337578033E+03  0.83608101602E+02  0.35027513250E+03  0.54823582414E+03  0.00000000000E+00 0. -1.
        -13    1    3    3    0    0 -0.44345281138E+03  0.89592525654E+01  0.46763711671E+03  0.64452706464E+03  0.00000000000E+00 0.  1.
         22    1    1    2    0    0  0.85682859172E+03 -0.92567354167E+02  0.19898532176E+04  0.21684648437E+04  0.00000000000E+00 0. -1.
<mgrwt>
<rscale>  0 0.18477838E+04</rscale>
<asrwt>0</asrwt>
<pdfrwt beam="1">  1        2 0.42574022E-01 0.18477838E+04</pdfrwt>
<pdfrwt beam="2">  1       -2 0.47453792E+00 0.18477838E+04</pdfrwt>
<totfact> 0.27092527E-01</totfact>
</mgrwt>
</event>
<event>
 6    1  0.5040916E-004  0.1939795E+04  0.7818608E-02  0.8635298E-01
         -2   -1    0    0    0  501 -0.00000000000E+00  0.00000000000E+00  0.24471918938E+04  0.24471918938E+04  0.00000000000E+00 0. -1.
          2   -1    0    0  501    0  0.00000000000E+00 -0.00000000000E+00 -0.38440005524E+03  0.38440005524E+03  0.00000000000E+00 0.  1.
         23    2    1    2    0    0 -0.73173241727E+03  0.26621365944E+03  0.18724436561E+04  0.20300094683E+04  0.92688472381E+02 0.  0.
         13    1    3    3    0    0 -0.61167540346E+03  0.24743576717E+03  0.16390279987E+04  0.17668571076E+04  0.00000000000E+00 0.  1.
        -13    1    3    3    0    0 -0.12005701381E+03  0.18777892272E+02  0.23341565745E+03  0.26315236071E+03  0.00000000000E+00 0. -1.
         22    1    1    2    0    0  0.73173241727E+03 -0.26621365944E+03  0.19034818245E+03  0.80158248079E+03  0.00000000000E+00 0.  1.
<mgrwt>
<rscale>  0 0.19397945E+04</rscale>
<asrwt>0</asrwt>
<pdfrwt beam="1">  1        2 0.59138471E-01 0.19397945E+04</pdfrwt>
<pdfrwt beam="2">  1       -2 0.37649105E+00 0.19397945E+04</pdfrwt>
<totfact> 0.82165320E-01</totfact>
</mgrwt>
</event>
<event>
 6    1  0.5040916E-004  0.5985941E+03  0.7818608E-02  0.9908327E-01
          2   -1    0    0  501    0  0.00000000000E+00  0.00000000000E+00  0.57913544634E+03  0.57913544634E+03  0.00000000000E+00 0.  1.
         -2   -1    0    0    0  501 -0.00000000000E+00 -0.00000000000E+00 -0.15467664650E+03  0.15467664650E+03  0.00000000000E+00 0. -1.
         23    2    1    2    0    0 -0.18837613680E+03  0.21951404981E+03  0.16747829963E+03  0.34688708141E+03  0.92788358229E+02 0.  0.
         13    1    3    3    0    0 -0.13417039932E+03  0.10048516987E+03  0.12591611149E+03  0.20965169341E+03  0.00000000000E+00 0. -1.
        -13    1    3    3    0    0 -0.54205737478E+02  0.11902887994E+03  0.41562188132E+02  0.13723538799E+03  0.00000000000E+00 0.  1.
         22    1    1    2    0    0  0.18837613680E+03 -0.21951404981E+03  0.25698050021E+03  0.38692501143E+03  0.00000000000E+00 0. -1.
<mgrwt>
<rscale>  0 0.59859412E+03</rscale>
<asrwt>0</asrwt>
<pdfrwt beam="1">  1        2 0.89097760E-01 0.59859412E+03</pdfrwt>
<pdfrwt beam="2">  1       -2 0.23796407E-01 0.59859412E+03</pdfrwt>
<totfact> 0.81485353E+02</totfact>
</mgrwt>
</event>
<event>
 6    1  0.5040916E-004  0.3010801E+04  0.7818608E-02  0.8240653E-01
          2   -1    0    0  501    0  0.00000000000E+00  0.00000000000E+00  0.27126410722E+04  0.27126410722E+04  0.00000000000E+00 0.  1.
         -2   -1    0    0    0  501 -0.00000000000E+00 -0.00000000000E+00 -0.83543326958E+03  0.83543326958E+03  0.00000000000E+00 0. -1.
         23    2    1    2    0    0  0.53149404128E+03 -0.10321992187E+04 -0.18730989879E+03  0.11794978743E+04  0.90604051792E+02 0.  0.
         13    1    3    3    0    0  0.25169452527E+03 -0.58700331827E+03 -0.99201546902E+02  0.64634663813E+03  0.00000000000E+00 0. -1.
        -13    1    3    3    0    0  0.27979951600E+03 -0.44519590043E+03 -0.88108351890E+02  0.53315123613E+03  0.00000000000E+00 0.  1.
         22    1    1    2    0    0 -0.53149404128E+03  0.10321992187E+04  0.20645177014E+04  0.23685764675E+04  0.00000000000E+00 0.  1.
<mgrwt>
<rscale>  0 0.30108010E+04</rscale>
<asrwt>0</asrwt>
<pdfrwt beam="1">  1        2 0.41732939E+00 0.30108010E+04</pdfrwt>
<pdfrwt beam="2">  1       -2 0.12852820E+00 0.30108010E+04</pdfrwt>
<totfact> 0.99734191E-01</totfact>
</mgrwt>
</event>
<event>
 6    1  0.5040916E-004  0.2114824E+04  0.7818608E-02  0.8554741E-01
          2   -1    0    0  501    0  0.00000000000E+00  0.00000000000E+00  0.21948212603E+04  0.21948212603E+04  0.00000000000E+00 0.  1.
         -2   -1    0    0    0  501 -0.00000000000E+00 -0.00000000000E+00 -0.50943571917E+03  0.50943571917E+03  0.00000000000E+00 0. -1.
         23    2    1    2    0    0  0.70504229384E+03  0.51242630199E+02  0.18464408735E+04  0.19792402464E+04  0.91310516139E+02 0.  0.
         11    1    3    3    0    0  0.85395761325E+02  0.24795473550E+02  0.30518774936E+03  0.31787861507E+03  0.00000000000E+00 0. -1.
        -11    1    3    3    0    0  0.61964653251E+03  0.26447156649E+02  0.15412531241E+04  0.16613616313E+04  0.00000000000E+00 0.  1.
         22    1    1    2    0    0 -0.70504229384E+03 -0.51242630199E+02 -0.16105533232E+03  0.72501673313E+03  0.00000000000E+00 0. -1.
<mgrwt>
<rscale>  0 0.21148242E+04</rscale>
<asrwt>0</asrwt>
<pdfrwt beam="1">  1        2 0.33766480E+00 0.21148242E+04</pdfrwt>
<pdfrwt beam="2">  1       -2 0.78374727E-01 0.21148242E+04</pdfrwt>
<totfact> 0.69258287E+00</totfact>
</mgrwt>
</event>
<event>
 6    1  0.5040916E-004  0.1974559E+04  0.7818608E-02  0.8618608E-01
         -2   -1    0    0    0  501 -0.00000000000E+00  0.00000000000E+00  0.25026825825E+03  0.25026825825E+03  0.00000000000E+00 0. -1.
          2   -1    0    0  501    0  0.00000000000E+00 -0.00000000000E+00 -0.38947031735E+04  0.38947031735E+04  0.00000000000E+00 0.  1.
         23    2    1    2    0    0 -0.87918761883E+03 -0.42712070841E+02 -0.89703272407E+03  0.12600080021E+04  0.90317591280E+02 0.  0.
         11    1    3    3    0    0 -0.59992293790E+03 -0.49233523784E+02 -0.55876797354E+03  0.82131182844E+03  0.00000000000E+00 0. -1.
        -11    1    3    3    0    0 -0.27926468093E+03  0.65214529430E+01 -0.33826475053E+03  0.43869617370E+03  0.00000000000E+00 0.  1.
         22    1    1    2    0    0  0.87918761883E+03  0.42712070841E+02 -0.27474021912E+04  0.28849634296E+04  0.00000000000E+00 0.  1.
<mgrwt>
<rscale>  0 0.19745588E+04</rscale>
<asrwt>0</asrwt>
<pdfrwt beam="1">  1        2 0.59918506E+00 0.19745588E+04</pdfrwt>
<pdfrwt beam="2">  1       -2 0.38502812E-01 0.19745588E+04</pdfrwt>
<totfact> 0.24862083E+00</totfact>
</mgrwt>
</event>
<event>
 6    1  0.5040916E-004  0.3637368E+04  0.7818608E-02  0.8081985E-01
         -2   -1    0    0    0  501 -0.00000000000E+00  0.00000000000E+00  0.16121962644E+04  0.16121962644E+04  0.00000000000E+00 0. -1.
          2   -1    0    0  501    0  0.00000000000E+00 -0.00000000000E+00 -0.20516186508E+04  0.20516186508E+04  0.00000000000E+00 0.  1.
         23    2    1    2    0    0 -0.57651358503E+03 -0.89643147542E+03  0.12631149558E+04  0.16551858540E+04  0.90683604398E+02 0.  0.
         13    1    3    3    0    0 -0.17504592828E+03 -0.21827849157E+03  0.37404249410E+03  0.46711279610E+03  0.00000000000E+00 0.  1.
        -13    1    3    3    0    0 -0.40146765675E+03 -0.67815298385E+03  0.88907246167E+03  0.11880730579E+04  0.00000000000E+00 0. -1.
         22    1    1    2    0    0  0.57651358503E+03  0.89643147542E+03 -0.17025373421E+04  0.20086290611E+04  0.00000000000E+00 0.  1.
<mgrwt>
<rscale>  0 0.36373682E+04</rscale>
<asrwt>0</asrwt>
<pdfrwt beam="1">  1        2 0.31563364E+00 0.36373682E+04</pdfrwt>
<pdfrwt beam="2">  1       -2 0.24803019E+00 0.36373682E+04</pdfrwt>
<totfact> 0.33578271E-01</totfact>
</mgrwt>
</event>
<event>
 6    1  0.5040916E-004  0.3226643E+04  0.7818608E-02  0.8181816E-01
          2   -1    0    0  501    0  0.00000000000E+00  0.00000000000E+00  0.14303895619E+04  0.14303895619E+04  0.00000000000E+00 0. -1.
         -2   -1    0    0    0  501 -0.00000000000E+00 -0.00000000000E+00 -0.18196488713E+04  0.18196488713E+04  0.00000000000E+00 0.  1.
         23    2    1    2    0    0 -0.30088928987E+03  0.60565371250E+03 -0.16686655521E+04  0.18028925809E+04  0.92877065589E+02 0.  0.
         13    1    3    3    0    0 -0.13238777769E+03  0.33525353893E+03 -0.97715647890E+03  0.10415163193E+04  0.00000000000E+00 0.  1.
        -13    1    3    3    0    0 -0.16850151217E+03  0.27040017357E+03 -0.69150907317E+03  0.76137626161E+03  0.00000000000E+00 0. -1.
         22    1    1    2    0    0  0.30088928987E+03 -0.60565371250E+03  0.12794062427E+04  0.14471458524E+04  0.00000000000E+00 0. -1.
<mgrwt>
<rscale>  0 0.32266433E+04</rscale>
<asrwt>0</asrwt>
<pdfrwt beam="1">  1        2 0.22005993E+00 0.32266433E+04</pdfrwt>
<pdfrwt beam="2">  1       -2 0.27994598E+00 0.32266433E+04</pdfrwt>
<totfact> 0.49229451E-01</totfact>
</mgrwt>
</event>
<event>
 6    1  0.5040916E-004  0.4064185E+04  0.7818608E-02  0.7991722E-01
          2   -1    0    0  501    0  0.00000000000E+00  0.00000000000E+00  0.16761911744E+04  0.16761911744E+04  0.00000000000E+00 0.  1.
         -2   -1    0    0    0  501 -0.00000000000E+00 -0.00000000000E+00 -0.24635613364E+04  0.24635613364E+04  0.00000000000E+00 0. -1.
         23    2    1    2    0    0 -0.17799716865E+04  0.88707448241E+03  0.26331318499E+02  0.19909597238E+04  0.89593198910E+02 0.  0.
         13    1    3    3    0    0 -0.80426506324E+03  0.42285173708E+03 -0.28009024157E+02  0.90908216842E+03  0.00000000000E+00 0. -1.
        -13    1    3    3    0    0 -0.97570662329E+03  0.46422274534E+03  0.54340342655E+02  0.10818775554E+04  0.00000000000E+00 0.  1.
         22    1    1    2    0    0  0.17799716865E+04 -0.88707448241E+03 -0.81370148054E+03  0.21487927870E+04  0.00000000000E+00 0. -1.
<mgrwt>
<rscale>  0 0.40641849E+04</rscale>
<asrwt>0</asrwt>
<pdfrwt beam="1">  1        2 0.25787557E+00 0.40641849E+04</pdfrwt>
<pdfrwt beam="2">  1       -2 0.37900943E+00 0.40641849E+04</pdfrwt>
<totfact> 0.80597096E-02</totfact>
</mgrwt>
</event>
<event>
 6    1  0.5040916E-004  0.6715859E+03  0.7818608E-02  0.9767097E-01
         -1   -1    0    0    0  501 -0.00000000000E+00  0.00000000000E+00  0.13771819928E+03  0.13771819928E+03  0.00000000000E+00 0. -1.
          1   -1    0    0  501    0  0.00000000000E+00 -0.00000000000E+00 -0.81875104441E+03  0.81875104441E+03  0.00000000000E+00 0.  1.
         23    2    1    2    0    0 -0.30607473956E+03  0.26793070744E+02 -0.51579196162E+03  0.60760800419E+03  0.93522854129E+02 0.  0.
         13    1    3    3    0    0 -0.14470934072E+03  0.46980927568E+02 -0.30994487021E+03  0.34527354868E+03  0.00000000000E+00 0.  1.
        -13    1    3    3    0    0 -0.16136539884E+03 -0.20187856824E+02 -0.20584709141E+03  0.26233445551E+03  0.00000000000E+00 0. -1.
         22    1    1    2    0    0  0.30607473956E+03 -0.26793070744E+02 -0.16524088351E+03  0.34886123950E+03  0.00000000000E+00 0.  1.
<mgrwt>
<rscale>  0 0.67158594E+03</rscale>
<asrwt>0</asrwt>
<pdfrwt beam="1">  1        1 0.12596170E+00 0.67158594E+03</pdfrwt>
<pdfrwt beam="2">  1       -1 0.21187415E-01 0.67158594E+03</pdfrwt>
<totfact> 0.39981057E+02</totfact>
</mgrwt>
</event>
<event>
 6    1  0.5040916E-004  0.3070014E+04  0.7818608E-02  0.8224016E-01
         -2   -1    0    0    0  501 -0.00000000000E+00  0.00000000000E+00  0.26960933673E+04  0.26960933673E+04  0.00000000000E+00 0. -1.
          2   -1    0    0  501    0  0.00000000000E+00 -0.00000000000E+00 -0.87394867369E+03  0.87394867369E+03  0.00000000000E+00 0.  1.
         23    2    1    2    0    0 -0.22474517922E+03 -0.64747024224E+03  0.25072719082E+04  0.26009561777E+04  0.93981415660E+02 0.  0.
         11    1    3    3    0    0 -0.53144245518E+01 -0.56317555662E+02  0.13642862818E+03  0.14769116687E+03  0.00000000000E+00 0. -1.
        -11    1    3    3    0    0 -0.21943075467E+03 -0.59115268657E+03  0.23708432800E+04  0.24532650108E+04  0.00000000000E+00 0.  1.
         22    1    1    2    0    0  0.22474517922E+03  0.64747024224E+03 -0.68512721462E+03  0.96908586327E+03  0.00000000000E+00 0.  1.
<mgrwt>
<rscale>  0 0.30700145E+04</rscale>
<asrwt>0</asrwt>
<pdfrwt beam="1">  1        2 0.13445364E+00 0.30700145E+04</pdfrwt>
<pdfrwt beam="2">  1       -2 0.41478359E+00 0.30700145E+04</pdfrwt>
<totfact> 0.15416684E-01</totfact>
</mgrwt>
</event>
<event>
 6    1  0.5040916E-004  0.2475482E+04  0.7818608E-02  0.8411772E-01
          2   -1    0    0  501    0  0.00000000000E+00  0.00000000000E+00  0.28194725302E+04  0.28194725302E+04  0.00000000000E+00 0.  1.
         -2   -1    0    0    0  501 -0.00000000000E+00 -0.00000000000E+00 -0.54336522265E+03  0.54336522265E+03  0.00000000000E+00 0. -1.
         23    2    1    2    0    0  0.69889751293E+03  0.55471575346E+03 -0.22275501927E+02  0.89732952135E+03  0.92394649131E+02 0.  0.
         11    1    3    3    0    0  0.30208950284E+03  0.19507620955E+03 -0.37709417479E+02  0.36157266963E+03  0.00000000000E+00 0.  1.
        -11    1    3    3    0    0  0.39680801009E+03  0.35963954392E+03  0.15433915552E+02  0.53575685172E+03  0.00000000000E+00 0. -1.
         22    1    1    2    0    0 -0.69889751293E+03 -0.55471575346E+03  0.22983828095E+04  0.24655082315E+04  0.00000000000E+00 0.  1.
<mgrwt>
<rscale>  0 0.24754824E+04</rscale>
<asrwt>0</asrwt>
<pdfrwt beam="1">  1        2 0.43376500E+00 0.24754824E+04</pdfrwt>
<pdfrwt beam="2">  1       -2 0.83594651E-01 0.24754824E+04</pdfrwt>
<totfact> 0.25169178E+00</totfact>
</mgrwt>
</event>
<event>
 6    1  0.5040916E-004  0.3117574E+04  0.7818608E-02  0.8210931E-01
         -2   -1    0    0    0  501 -0.00000000000E+00  0.00000000000E+00  0.11025298427E+04  0.11025298427E+04  0.00000000000E+00 0. -1.
          2   -1    0    0  501    0  0.00000000000E+00 -0.00000000000E+00 -0.22038562487E+04  0.22038562487E+04  0.00000000000E+00 0.  1.
         23    2    1    2    0    0  0.12566510443E+04  0.22132927172E+03 -0.14982311324E+04  0.19700882745E+04  0.91612170870E+02 0.  0.
         13    1    3    3    0    0  0.13823997267E+03  0.22670259316E+02 -0.21167911231E+03  0.25383513802E+03  0.00000000000E+00 0.  1.
        -13    1    3    3    0    0  0.11184110716E+04  0.19865901241E+03 -0.12865520201E+04  0.17162531365E+04  0.00000000000E+00 0. -1.
         22    1    1    2    0    0 -0.12566510443E+04 -0.22132927172E+03  0.39690472630E+03  0.13362978169E+04  0.00000000000E+00 0. -1.
<mgrwt>
<rscale>  0 0.31175742E+04</rscale>
<asrwt>0</asrwt>
<pdfrwt beam="1">  1        2 0.33905480E+00 0.31175742E+04</pdfrwt>
<pdfrwt beam="2">  1       -2 0.16961998E+00 0.31175742E+04</pdfrwt>
<totfact> 0.93420962E-01</totfact>
</mgrwt>
</event>
<event>
 6    1  0.5040916E-004  0.1184830E+04  0.7818608E-02  0.9126239E-01
         -2   -1    0    0    0  501 -0.00000000000E+00  0.00000000000E+00  0.43378947964E+03  0.43378947964E+03  0.00000000000E+00 0. -1.
          2   -1    0    0  501    0  0.00000000000E+00 -0.00000000000E+00 -0.80904579402E+03  0.80904579402E+03  0.00000000000E+00 0.  1.
         23    2    1    2    0    0 -0.55607491442E+03 -0.16646844780E+03 -0.29337871635E+03  0.65663138795E+03  0.90347406518E+02 0.  0.
         13    1    3    3    0    0 -0.13918370133E+03 -0.14947574472E+02 -0.39090778900E+02  0.14533967694E+03  0.00000000000E+00 0. -1.
        -13    1    3    3    0    0 -0.41689121309E+03 -0.15152087333E+03 -0.25428793745E+03  0.51129171101E+03  0.00000000000E+00 0.  1.
         22    1    1    2    0    0  0.55607491442E+03  0.16646844780E+03 -0.81877598027E+02  0.58620388571E+03  0.00000000000E+00 0. -1.
<mgrwt>
<rscale>  0 0.11848300E+04</rscale>
<asrwt>0</asrwt>
<pdfrwt beam="1">  1        2 0.12446858E+00 0.11848300E+04</pdfrwt>
<pdfrwt beam="2">  1       -2 0.66736844E-01 0.11848300E+04</pdfrwt>
<totfact> 0.69149029E+01</totfact>
</mgrwt>
</event>
<event>
 6    1  0.5040916E-004  0.2827558E+04  0.7818608E-02  0.8294763E-01
         -2   -1    0    0    0  501 -0.00000000000E+00  0.00000000000E+00  0.72543232865E+03  0.72543232865E+03  0.00000000000E+00 0. -1.
          2   -1    0    0  501    0  0.00000000000E+00 -0.00000000000E+00 -0.27552830235E+04  0.27552830235E+04  0.00000000000E+00 0.  1.
         23    2    1    2    0    0 -0.19225602540E+03 -0.73299045500E+03  0.45115331473E+03  0.88656456971E+03  0.90664416644E+02 0.  0.
         11    1    3    3    0    0 -0.78713210546E+02 -0.20470641686E+03  0.16972259441E+03  0.27731975348E+03  0.00000000000E+00 0. -1.
        -11    1    3    3    0    0 -0.11354281486E+03 -0.52828403815E+03  0.28143072033E+03  0.60924481624E+03  0.00000000000E+00 0.  1.
         22    1    1    2    0    0  0.19225602540E+03  0.73299045500E+03 -0.24810040095E+04  0.25941507824E+04  0.00000000000E+00 0.  1.
<mgrwt>
<rscale>  0 0.28275582E+04</rscale>
<asrwt>0</asrwt>
<pdfrwt beam="1">  1        2 0.42388970E+00 0.28275582E+04</pdfrwt>
<pdfrwt beam="2">  1       -2 0.11160497E+00 0.28275582E+04</pdfrwt>
<totfact> 0.13546116E+00</totfact>
</mgrwt>
</event>
<event>
 6    1  0.5040916E-004  0.2885815E+04  0.7818608E-02  0.8277110E-01
         -2   -1    0    0    0  501 -0.00000000000E+00  0.00000000000E+00  0.51063575832E+03  0.51063575832E+03  0.00000000000E+00 0. -1.
          2   -1    0    0  501    0  0.00000000000E+00 -0.00000000000E+00 -0.40772347831E+04  0.40772347831E+04  0.00000000000E+00 0.  1.
         23    2    1    2    0    0 -0.19882309837E+03  0.69417077382E+03 -0.37684450432E+04  0.38381069102E+04  0.92102784902E+02 0.  0.
         13    1    3    3    0    0 -0.40228299836E+02  0.30127127032E+03 -0.16275247642E+04  0.16556628741E+04  0.00000000000E+00 0. -1.
        -13    1    3    3    0    0 -0.15859479854E+03  0.39289950350E+03 -0.21409202789E+04  0.21824440361E+04  0.00000000000E+00 0.  1.
         22    1    1    2    0    0  0.19882309837E+03 -0.69417077382E+03  0.20184601833E+03  0.74976363128E+03  0.00000000000E+00 0. -1.
<mgrwt>
<rscale>  0 0.28858149E+04</rscale>
<asrwt>0</asrwt>
<pdfrwt beam="1">  1        2 0.62726689E+00 0.28858149E+04</pdfrwt>
<pdfrwt beam="2">  1       -2 0.78559348E-01 0.28858149E+04</pdfrwt>
<totfact> 0.36792396E-01</totfact>
</mgrwt>
</event>
<event>
 6    1  0.5040916E-004  0.1014468E+04  0.7818608E-02  0.9292817E-01
         -2   -1    0    0    0  501 -0.00000000000E+00  0.00000000000E+00  0.28197941576E+03  0.28197941576E+03  0.00000000000E+00 0. -1.
          2   -1    0    0  501    0  0.00000000000E+00 -0.00000000000E+00 -0.91243009294E+03  0.91243009294E+03  0.00000000000E+00 0.  1.
         23    2    1    2    0    0 -0.26423480731E+02  0.47266609860E+03 -0.11726670244E+03  0.49621953954E+03  0.91492681748E+02 0.  0.
         13    1    3    3    0    0 -0.41995399660E+02  0.17365208026E+03 -0.12863811229E+02  0.17912045168E+03  0.00000000000E+00 0. -1.
        -13    1    3    3    0    0  0.15571918930E+02  0.29901401834E+03 -0.10440289121E+03  0.31709908786E+03  0.00000000000E+00 0.  1.
         22    1    1    2    0    0  0.26423480731E+02 -0.47266609860E+03 -0.51318397474E+03  0.69818996916E+03  0.00000000000E+00 0. -1.
<mgrwt>
<rscale>  0 0.10144683E+04</rscale>
<asrwt>0</asrwt>
<pdfrwt beam="1">  1        2 0.14037386E+00 0.10144683E+04</pdfrwt>
<pdfrwt beam="2">  1       -2 0.43381449E-01 0.10144683E+04</pdfrwt>
<totfact> 0.14448407E+02</totfact>
</mgrwt>
</event>
<event>
 6    1  0.5040916E-004  0.5300536E+03  0.7818608E-02  0.1006219E+00
          2   -1    0    0  501    0  0.00000000000E+00  0.00000000000E+00  0.48154667650E+03  0.48154667650E+03  0.00000000000E+00 0.  1.
         -2   -1    0    0    0  501 -0.00000000000E+00 -0.00000000000E+00 -0.14586166592E+03  0.14586166592E+03  0.00000000000E+00 0. -1.
         23    2    1    2    0    0 -0.46524042706E+02  0.94220674068E+02 -0.10499726781E+03  0.17437093507E+03  0.91316892082E+02 0.  0.
         13    1    3    3    0    0 -0.28228014594E+01  0.23463153092E+02 -0.85832265557E+02  0.89026207219E+02  0.00000000000E+00 0. -1.
        -13    1    3    3    0    0 -0.43701241247E+02  0.70757520976E+02 -0.19165002250E+02  0.85344727853E+02  0.00000000000E+00 0.  1.
         22    1    1    2    0    0  0.46524042706E+02 -0.94220674068E+02  0.44068227838E+03  0.45303740734E+03  0.00000000000E+00 0.  1.
<mgrwt>
<rscale>  0 0.53005358E+03</rscale>
<asrwt>0</asrwt>
<pdfrwt beam="1">  1        2 0.74084103E-01 0.53005358E+03</pdfrwt>
<pdfrwt beam="2">  1       -2 0.22440256E-01 0.53005358E+03</pdfrwt>
<totfact> 0.11215558E+03</totfact>
</mgrwt>
</event>
<event>
 6    1  0.5040916E-004  0.2499502E+04  0.7818608E-02  0.8403163E-01
         -2   -1    0    0    0  501 -0.00000000000E+00  0.00000000000E+00  0.13861762722E+04  0.13861762722E+04  0.00000000000E+00 0. -1.
          2   -1    0    0  501    0  0.00000000000E+00 -0.00000000000E+00 -0.11267522072E+04  0.11267522072E+04  0.00000000000E+00 0.  1.
         23    2    1    2    0    0 -0.74952284788E+02 -0.20583289897E+03  0.13651815019E+04  0.13856820394E+04  0.91701438978E+02 0.  0.
         11    1    3    3    0    0  0.18314158405E+02 -0.19162937044E+02  0.10239643461E+03  0.10577171822E+03  0.00000000000E+00 0.  1.
        -11    1    3    3    0    0 -0.93266443193E+02 -0.18666996193E+03  0.12627850673E+04  0.12799103212E+04  0.00000000000E+00 0. -1.
         22    1    1    2    0    0  0.74952284788E+02  0.20583289897E+03 -0.11057574369E+04  0.11272464400E+04  0.00000000000E+00 0.  1.
<mgrwt>
<rscale>  0 0.24995017E+04</rscale>
<asrwt>0</asrwt>
<pdfrwt beam="1">  1        2 0.17334649E+00 0.24995017E+04</pdfrwt>
<pdfrwt beam="2">  1       -2 0.21325789E+00 0.24995017E+04</pdfrwt>
<totfact> 0.20412856E+00</totfact>
</mgrwt>
</event>
<event>
 6    1  0.6545788E-004  0.2820385E+04  0.7818608E-02  0.8296968E-01
         -2   -1    0    0    0  501 -0.00000000000E+00  0.00000000000E+00  0.11916602168E+04  0.11916602168E+04  0.00000000000E+00 0. -1.
          2   -1    0    0  501    0  0.00000000000E+00 -0.00000000000E+00 -0.16687998660E+04  0.16687998660E+04  0.00000000000E+00 0.  1.
         23    2    1    2    0    0 -0.13037843333E+04  0.47898375437E+02 -0.77767258985E+03  0.15216292904E+04  0.91832446472E+02 0.  0.
         13    1    3    3    0    0 -0.87893037549E+03  0.63802895451E+02 -0.49016849419E+03  0.10083920701E+04  0.00000000000E+00 0.  1.
        -13    1    3    3    0    0 -0.42485395785E+03 -0.15904520014E+02 -0.28750409566E+03  0.51323722028E+03  0.00000000000E+00 0. -1.
         22    1    1    2    0    0  0.13037843333E+04 -0.47898375437E+02  0.30053294058E+03  0.13388307924E+04  0.00000000000E+00 0. -1.
<mgrwt>
<rscale>  0 0.28203847E+04</rscale>
<asrwt>0</asrwt>
<pdfrwt beam="1">  1        2 0.25673844E+00 0.28203847E+04</pdfrwt>
<pdfrwt beam="2">  1       -2 0.18333234E+00 0.28203847E+04</pdfrwt>
<totfact> 0.15254112E+00</totfact>
</mgrwt>
</event>
<event>
 6    1  0.5040916E-004  0.2049992E+04  0.7818608E-02  0.8583598E-01
          2   -1    0    0  501    0  0.00000000000E+00  0.00000000000E+00  0.13528685743E+04  0.13528685743E+04  0.00000000000E+00 0.  1.
         -2   -1    0    0    0  501 -0.00000000000E+00 -0.00000000000E+00 -0.77658454103E+03  0.77658454103E+03  0.00000000000E+00 0. -1.
         23    2    1    2    0    0 -0.75281414910E+03  0.63537609587E+03  0.57516454060E+03  0.11443474461E+04  0.91021438247E+02 0.  0.
         13    1    3    3    0    0 -0.20102380778E+03  0.12005392135E+03  0.14477813158E+03  0.27528934362E+03  0.00000000000E+00 0.  1.
        -13    1    3    3    0    0 -0.55179034132E+03  0.51532217452E+03  0.43038640902E+03  0.86905810243E+03  0.00000000000E+00 0. -1.
         22    1    1    2    0    0  0.75281414910E+03 -0.63537609587E+03  0.11194926216E+01  0.98510566924E+03  0.00000000000E+00 0. -1.
<mgrwt>
<rscale>  0 0.20499920E+04</rscale>
<asrwt>0</asrwt>
<pdfrwt beam="1">  1        2 0.20813363E+00 0.20499920E+04</pdfrwt>
<pdfrwt beam="2">  1       -2 0.11947454E+00 0.20499920E+04</pdfrwt>
<totfact> 0.76525093E+00</totfact>
</mgrwt>
</event>
<event>
 6    1  0.5040916E-004  0.2664952E+04  0.7818608E-02  0.8346467E-01
         -2   -1    0    0    0  501 -0.00000000000E+00  0.00000000000E+00  0.12095887184E+04  0.12095887184E+04  0.00000000000E+00 0. -1.
          2   -1    0    0  501    0  0.00000000000E+00 -0.00000000000E+00 -0.14678484460E+04  0.14678484460E+04  0.00000000000E+00 0.  1.
         23    2    1    2    0    0 -0.10789682143E+03  0.12878240403E+04  0.19010433143E+03  0.13095326311E+04  0.92755442171E+02 0.  0.
         11    1    3    3    0    0 -0.75676077922E+02  0.91722176010E+03  0.92723019890E+02  0.92499739696E+03  0.00000000000E+00 0.  1.
        -11    1    3    3    0    0 -0.32220743512E+02  0.37060228023E+03  0.97381311539E+02  0.38453523409E+03  0.00000000000E+00 0. -1.
         22    1    1    2    0    0  0.10789682143E+03 -0.12878240403E+04 -0.44836405907E+03  0.13679045334E+04  0.00000000000E+00 0. -1.
<mgrwt>
<rscale>  0 0.26649525E+04</rscale>
<asrwt>0</asrwt>
<pdfrwt beam="1">  1        2 0.22582284E+00 0.26649525E+04</pdfrwt>
<pdfrwt beam="2">  1       -2 0.18609057E+00 0.26649525E+04</pdfrwt>
<totfact> 0.19186125E+00</totfact>
</mgrwt>
</event>
<event>
 6    1  0.5040916E-004  0.3221166E+04  0.7818608E-02  0.8183249E-01
         -2   -1    0    0    0  501 -0.00000000000E+00  0.00000000000E+00  0.11581477037E+04  0.11581477037E+04  0.00000000000E+00 0.  1.
          2   -1    0    0  501    0  0.00000000000E+00 -0.00000000000E+00 -0.22397646702E+04  0.22397646702E+04  0.00000000000E+00 0. -1.
         23    2    1    2    0    0 -0.91682115647E+03  0.13180193083E+04 -0.42465715811E+03  0.16631697071E+04  0.89798901588E+02 0.  0.
         11    1    3    3    0    0 -0.36079897192E+03  0.52535171587E+03 -0.21397449887E+03  0.67227628968E+03  0.00000000000E+00 0. -1.
        -11    1    3    3    0    0 -0.55602218455E+03  0.79266759246E+03 -0.21068265924E+03  0.99089341745E+03  0.00000000000E+00 0.  1.
         22    1    1    2    0    0  0.91682115647E+03 -0.13180193083E+04 -0.65695980843E+03  0.17347426668E+04  0.00000000000E+00 0. -1.
<mgrwt>
<rscale>  0 0.32211664E+04</rscale>
<asrwt>0</asrwt>
<pdfrwt beam="1">  1        2 0.34457918E+00 0.32211664E+04</pdfrwt>
<pdfrwt beam="2">  1       -2 0.17817657E+00 0.32211664E+04</pdfrwt>
<totfact> 0.76955562E-01</totfact>
</mgrwt>
</event>
<event>
 6    1  0.5040916E-004  0.3431530E+04  0.7818608E-02  0.8130211E-01
         -2   -1    0    0    0  501 -0.00000000000E+00  0.00000000000E+00  0.10997093292E+04  0.10997093292E+04  0.00000000000E+00 0. -1.
          2   -1    0    0  501    0  0.00000000000E+00 -0.00000000000E+00 -0.26769341422E+04  0.26769341422E+04  0.00000000000E+00 0.  1.
         23    2    1    2    0    0  0.10456745416E+04  0.13558087847E+04 -0.88865902899E+03  0.19311691296E+04  0.89703008268E+02 0.  0.
         13    1    3    3    0    0  0.66423352995E+03  0.91500272871E+03 -0.55581464139E+03  0.12599071757E+04  0.00000000000E+00 0.  1.
        -13    1    3    3    0    0  0.38144101163E+03  0.44080605601E+03 -0.33284438760E+03  0.67126195388E+03  0.00000000000E+00 0. -1.
         22    1    1    2    0    0 -0.10456745416E+04 -0.13558087847E+04 -0.68856578401E+03  0.18454743419E+04  0.00000000000E+00 0. -1.
<mgrwt>
<rscale>  0 0.34315300E+04</rscale>
<asrwt>0</asrwt>
<pdfrwt beam="1">  1        2 0.41183602E+00 0.34315300E+04</pdfrwt>
<pdfrwt beam="2">  1       -2 0.16918605E+00 0.34315300E+04</pdfrwt>
<totfact> 0.48904061E-01</totfact>
</mgrwt>
</event>
<event>
 6    1  0.5040916E-004  0.2142071E+04  0.7818608E-02  0.8542934E-01
          2   -1    0    0  501    0  0.00000000000E+00  0.00000000000E+00  0.12810260156E+04  0.12810260156E+04  0.00000000000E+00 0.  1.
         -2   -1    0    0    0  501 -0.00000000000E+00 -0.00000000000E+00 -0.89546701946E+03  0.89546701946E+03  0.00000000000E+00 0. -1.
         23    2    1    2    0    0  0.29351530598E+02 -0.79851752583E+03  0.91484524672E+03  0.12180381918E+04  0.90462478094E+02 0.  0.
         13    1    3    3    0    0  0.26610541665E+02 -0.44981491592E+03  0.44880501818E+03  0.63597761270E+03  0.00000000000E+00 0. -1.
        -13    1    3    3    0    0  0.27409889330E+01 -0.34870260991E+03  0.46604022854E+03  0.58206057915E+03  0.00000000000E+00 0.  1.
         22    1    1    2    0    0 -0.29351530598E+02  0.79851752583E+03 -0.52928625059E+03  0.95845484321E+03  0.00000000000E+00 0. -1.
<mgrwt>
<rscale>  0 0.21420705E+04</rscale>
<asrwt>0</asrwt>
<pdfrwt beam="1">  1        2 0.19708093E+00 0.21420705E+04</pdfrwt>
<pdfrwt beam="2">  1       -2 0.13776416E+00 0.21420705E+04</pdfrwt>
<totfact> 0.58336157E+00</totfact>
</mgrwt>
</event>
<event>
 6    1  0.5040916E-004  0.6786040E+03  0.7818608E-02  0.9754538E-01
         -2   -1    0    0    0  501 -0.00000000000E+00  0.00000000000E+00  0.10028567624E+04  0.10028567624E+04  0.00000000000E+00 0. -1.
          2   -1    0    0  501    0  0.00000000000E+00 -0.00000000000E+00 -0.11479790685E+03  0.11479790685E+03  0.00000000000E+00 0.  1.
         23    2    1    2    0    0  0.32916561269E+02  0.12594910274E+03  0.95712243005E+03  0.97028963335E+03  0.91825650020E+02 0.  0.
         11    1    3    3    0    0  0.40055995936E+02  0.10559007703E+03  0.49731896059E+03  0.50998028956E+03  0.00000000000E+00 0.  1.
        -11    1    3    3    0    0 -0.71394346672E+01  0.20359025704E+02  0.45980346946E+03  0.46030934379E+03  0.00000000000E+00 0. -1.
         22    1    1    2    0    0 -0.32916561269E+02 -0.12594910274E+03 -0.69063574496E+02  0.14736503591E+03  0.00000000000E+00 0.  1.
<mgrwt>
<rscale>  0 0.67860403E+03</rscale>
<asrwt>0</asrwt>
<pdfrwt beam="1">  1        2 0.17661217E-01 0.67860403E+03</pdfrwt>
<pdfrwt beam="2">  1       -2 0.15428565E+00 0.67860403E+03</pdfrwt>
<totfact> 0.92855769E+01</totfact>
</mgrwt>
</event>
<event>
 6    1  0.5040916E-004  0.1589838E+04  0.7818608E-02  0.8826815E-01
          2   -1    0    0  501    0  0.00000000000E+00  0.00000000000E+00  0.13960260459E+04  0.13960260459E+04  0.00000000000E+00 0.  1.
         -2   -1    0    0    0  501 -0.00000000000E+00 -0.00000000000E+00 -0.45263947694E+03  0.45263947694E+03  0.00000000000E+00 0. -1.
         23    2    1    2    0    0 -0.72177988237E+03  0.32514904626E+03  0.43085696055E+03  0.90559887598E+03  0.88224162494E+02 0.  0.
         13    1    3    3    0    0 -0.35861363494E+03  0.18971066596E+03  0.26106876594E+03  0.48244251107E+03  0.00000000000E+00 0. -1.
        -13    1    3    3    0    0 -0.36316624744E+03  0.13543838029E+03  0.16978819461E+03  0.42315636491E+03  0.00000000000E+00 0.  1.
         22    1    1    2    0    0  0.72177988237E+03 -0.32514904626E+03  0.51252960838E+03  0.94306664682E+03  0.00000000000E+00 0.  1.
<mgrwt>
<rscale>  0 0.15898384E+04</rscale>
<asrwt>0</asrwt>
<pdfrwt beam="1">  1        2 0.21477324E+00 0.15898384E+04</pdfrwt>
<pdfrwt beam="2">  1       -2 0.69636843E-01 0.15898384E+04</pdfrwt>
<totfact> 0.26246699E+01</totfact>
</mgrwt>
</event>
<event>
 6    1  0.5040916E-004  0.1290676E+04  0.7818608E-02  0.9036992E-01
         -2   -1    0    0    0  501 -0.00000000000E+00  0.00000000000E+00  0.27714482229E+03  0.27714482229E+03  0.00000000000E+00 0. -1.
          2   -1    0    0  501    0  0.00000000000E+00 -0.00000000000E+00 -0.15026848710E+04  0.15026848710E+04  0.00000000000E+00 0.  1.
         23    2    1    2    0    0  0.47132525677E+03  0.90720604333E+02 -0.27938866668E+02  0.48962571061E+03  0.92601460578E+02 0.  0.
         13    1    3    3    0    0  0.40976483178E+02 -0.16404937125E+02 -0.12505106673E+02  0.45875612569E+02  0.00000000000E+00 0. -1.
        -13    1    3    3    0    0  0.43034877359E+03  0.10712554146E+03 -0.15433759995E+02  0.44375009804E+03  0.00000000000E+00 0.  1.
         22    1    1    2    0    0 -0.47132525677E+03 -0.90720604333E+02 -0.11976011821E+04  0.12902039827E+04  0.00000000000E+00 0.  1.
<mgrwt>
<rscale>  0 0.12906763E+04</rscale>
<asrwt>0</asrwt>
<pdfrwt beam="1">  1        2 0.23118229E+00 0.12906763E+04</pdfrwt>
<pdfrwt beam="2">  1       -2 0.42637665E-01 0.12906763E+04</pdfrwt>
<totfact> 0.64669703E+01</totfact>
</mgrwt>
</event>
<event>
 6    1  0.5040916E-004  0.1373366E+04  0.7818608E-02  0.8973327E-01
         -2   -1    0    0    0  501 -0.00000000000E+00  0.00000000000E+00  0.69859669641E+03  0.69859669641E+03  0.00000000000E+00 0. -1.
          2   -1    0    0  501    0  0.00000000000E+00 -0.00000000000E+00 -0.67497198845E+03  0.67497198845E+03  0.00000000000E+00 0.  1.
         23    2    1    2    0    0 -0.45114849880E+03  0.34281688636E+03  0.39486193122E+03  0.69616521464E+03  0.87588103054E+02 0.  0.
         13    1    3    3    0    0 -0.20043295923E+03  0.99568677689E+02  0.14475403672E+03  0.26653522070E+03  0.00000000000E+00 0. -1.
        -13    1    3    3    0    0 -0.25071553957E+03  0.24324820867E+03  0.25010789450E+03  0.42962999394E+03  0.00000000000E+00 0.  1.
         22    1    1    2    0    0  0.45114849880E+03 -0.34281688636E+03 -0.37123722326E+03  0.67740347023E+03  0.00000000000E+00 0.  1.
<mgrwt>
<rscale>  0 0.13733655E+04</rscale>
<asrwt>0</asrwt>
<pdfrwt beam="1">  1        2 0.10384184E+00 0.13733655E+04</pdfrwt>
<pdfrwt beam="2">  1       -2 0.10747641E+00 0.13733655E+04</pdfrwt>
<totfact> 0.29074980E+01</totfact>
</mgrwt>
</event>
<event>
 6    1  0.5040916E-004  0.2053757E+04  0.7818608E-02  0.8581892E-01
          2   -1    0    0  501    0  0.00000000000E+00  0.00000000000E+00  0.30126547706E+04  0.30126547706E+04  0.00000000000E+00 0.  1.
         -2   -1    0    0    0  501 -0.00000000000E+00 -0.00000000000E+00 -0.35001675400E+03  0.35001675400E+03  0.00000000000E+00 0. -1.
         23    2    1    2    0    0  0.78757859869E+03 -0.11939139222E+03  0.23900069821E+04  0.25207320763E+04  0.86153772638E+02 0.  0.
         13    1    3    3    0    0  0.27598498766E+03 -0.10852415755E+02  0.91345123382E+03  0.95429484171E+03  0.00000000000E+00 0. -1.
        -13    1    3    3    0    0  0.51159361102E+03 -0.10853897646E+03  0.14765557483E+04  0.15664372346E+04  0.00000000000E+00 0.  1.
         22    1    1    2    0    0 -0.78757859869E+03  0.11939139222E+03  0.27263103457E+03  0.84193944833E+03  0.00000000000E+00 0. -1.
<mgrwt>
<rscale>  0 0.20537572E+04</rscale>
<asrwt>0</asrwt>
<pdfrwt beam="1">  1        2 0.46348533E+00 0.20537572E+04</pdfrwt>
<pdfrwt beam="2">  1       -2 0.53848733E-01 0.20537572E+04</pdfrwt>
<totfact> 0.51482981E+00</totfact>
</mgrwt>
</event>
<event>
 6    1  0.5040916E-004  0.2182999E+04  0.7818608E-02  0.8525538E-01
         -2   -1    0    0    0  501 -0.00000000000E+00  0.00000000000E+00  0.86915724696E+03  0.86915724696E+03  0.00000000000E+00 0. -1.
          2   -1    0    0  501    0  0.00000000000E+00 -0.00000000000E+00 -0.13707198765E+04  0.13707198765E+04  0.00000000000E+00 0.  1.
         23    2    1    2    0    0  0.65233220412E+03 -0.82405662208E+03 -0.54999948393E+03  0.11877589030E+04  0.60540552739E+02 0.  0.
         13    1    3    3    0    0  0.32819315680E+03 -0.37777408296E+03 -0.28398563766E+03  0.57538843256E+03  0.00000000000E+00 0.  1.
        -13    1    3    3    0    0  0.32413904732E+03 -0.44628253912E+03 -0.26601384627E+03  0.61237047049E+03  0.00000000000E+00 0. -1.
         22    1    1    2    0    0 -0.65233220412E+03  0.82405662208E+03  0.48436854359E+02  0.10521182204E+04  0.00000000000E+00 0.  1.
<mgrwt>
<rscale>  0 0.21829990E+04</rscale>
<asrwt>0</asrwt>
<pdfrwt beam="1">  1        2 0.21087998E+00 0.21829990E+04</pdfrwt>
<pdfrwt beam="2">  1       -2 0.13371650E+00 0.21829990E+04</pdfrwt>
<totfact> 0.55669541E+00</totfact>
</mgrwt>
</event>
<event>
 6    1  0.5040916E-004  0.1660734E+04  0.7818608E-02  0.8784082E-01
          2   -1    0    0  501    0  0.00000000000E+00  0.00000000000E+00  0.25132792601E+04  0.25132792601E+04  0.00000000000E+00 0.  1.
         -2   -1    0    0    0  501 -0.00000000000E+00 -0.00000000000E+00 -0.27434638423E+03  0.27434638423E+03  0.00000000000E+00 0. -1.
         23    2    1    2    0    0  0.42127797569E+03 -0.15178502360E+03 -0.46351408141E+02  0.45888390577E+03  0.88950321765E+02 0.  0.
         13    1    3    3    0    0  0.22693037410E+03 -0.34543477301E+02 -0.25448271616E+02  0.23095077623E+03  0.00000000000E+00 0.  1.
        -13    1    3    3    0    0  0.19434760159E+03 -0.11724154630E+03 -0.20903136525E+02  0.22793312954E+03  0.00000000000E+00 0. -1.
         22    1    1    2    0    0 -0.42127797569E+03  0.15178502360E+03  0.22852842840E+04  0.23287417386E+04  0.00000000000E+00 0.  1.
<mgrwt>
<rscale>  0 0.16607337E+04</rscale>
<asrwt>0</asrwt>
<pdfrwt beam="1">  1        2 0.38665833E+00 0.16607337E+04</pdfrwt>
<pdfrwt beam="2">  1       -2 0.42207138E-01 0.16607337E+04</pdfrwt>
<totfact> 0.17399627E+01</totfact>
</mgrwt>
</event>
<event>
 6    1  0.5040916E-004  0.2306300E+04  0.7818608E-02  0.8475441E-01
          2   -1    0    0  501    0  0.00000000000E+00  0.00000000000E+00  0.31254730611E+04  0.31254730611E+04  0.00000000000E+00 0.  1.
         -2   -1    0    0    0  501 -0.00000000000E+00 -0.00000000000E+00 -0.42545720038E+03  0.42545720038E+03  0.00000000000E+00 0. -1.
         23    2    1    2    0    0  0.50254782360E+02 -0.65073096945E+03 -0.10826938349E+03  0.66779961050E+03  0.90872012383E+02 0.  0.
         11    1    3    3    0    0 -0.50372508275E+01 -0.34812752860E+03 -0.90186738790E+02  0.35965510968E+03  0.00000000000E+00 0.  1.
        -11    1    3    3    0    0  0.55292033188E+02 -0.30260344084E+03 -0.18082644704E+02  0.30814450082E+03  0.00000000000E+00 0. -1.
         22    1    1    2    0    0 -0.50254782360E+02  0.65073096945E+03  0.28082852442E+04  0.28831306510E+04  0.00000000000E+00 0.  1.
<mgrwt>
<rscale>  0 0.23063001E+04</rscale>
<asrwt>0</asrwt>
<pdfrwt beam="1">  1        2 0.48084199E+00 0.23063001E+04</pdfrwt>
<pdfrwt beam="2">  1       -2 0.65454956E-01 0.23063001E+04</pdfrwt>
<totfact> 0.28275633E+00</totfact>
</mgrwt>
</event>
<event>
 6    1  0.5040916E-004  0.3967834E+04  0.7818608E-02  0.8011067E-01
         -2   -1    0    0    0  501 -0.00000000000E+00  0.00000000000E+00  0.18322911599E+04  0.18322911599E+04  0.00000000000E+00 0. -1.
          2   -1    0    0  501    0  0.00000000000E+00 -0.00000000000E+00 -0.21480898016E+04  0.21480898016E+04  0.00000000000E+00 0.  1.
         23    2    1    2    0    0 -0.18230137921E+04 -0.76577207669E+03 -0.30638225504E+03  0.20030406196E+04  0.92279346982E+02 0.  0.
         11    1    3    3    0    0 -0.38780497106E+03 -0.12385932059E+03 -0.53207882691E+02  0.41056656666E+03  0.00000000000E+00 0.  1.
        -11    1    3    3    0    0 -0.14352088210E+04 -0.64191275610E+03 -0.25317437235E+03  0.15924740529E+04  0.00000000000E+00 0. -1.
         22    1    1    2    0    0  0.18230137921E+04  0.76577207669E+03 -0.94163866096E+01  0.19773403420E+04  0.00000000000E+00 0. -1.
<mgrwt>
<rscale>  0 0.39678336E+04</rscale>
<asrwt>0</asrwt>
<pdfrwt beam="1">  1        2 0.33047535E+00 0.39678336E+04</pdfrwt>
<pdfrwt beam="2">  1       -2 0.28189095E+00 0.39678336E+04</pdfrwt>
<totfact> 0.17913573E-01</totfact>
</mgrwt>
</event>
<event>
 6    1  0.5040916E-004  0.4162479E+04  0.7818608E-02  0.7972548E-01
         -2   -1    0    0    0  501 -0.00000000000E+00  0.00000000000E+00  0.15744150787E+04  0.15744150787E+04  0.00000000000E+00 0. -1.
          2   -1    0    0  501    0  0.00000000000E+00 -0.00000000000E+00 -0.27512172263E+04  0.27512172263E+04  0.00000000000E+00 0.  1.
         23    2    1    2    0    0 -0.91018267275E+03 -0.15706470088E+04  0.46698580470E+03  0.18766726573E+04  0.91978239743E+02 0.  0.
         13    1    3    3    0    0 -0.51554007467E+03 -0.90429812231E+03  0.22133061820E+03  0.10642010643E+04  0.00000000000E+00 0.  1.
        -13    1    3    3    0    0 -0.39464259808E+03 -0.66634888653E+03  0.24565518650E+03  0.81247159301E+03  0.00000000000E+00 0. -1.
         22    1    1    2    0    0  0.91018267275E+03  0.15706470088E+04 -0.16437879523E+04  0.24489596477E+04  0.00000000000E+00 0.  1.
<mgrwt>
<rscale>  0 0.41624790E+04</rscale>
<asrwt>0</asrwt>
<pdfrwt beam="1">  1        2 0.42326418E+00 0.41624790E+04</pdfrwt>
<pdfrwt beam="2">  1       -2 0.24221771E+00 0.41624790E+04</pdfrwt>
<totfact> 0.13825490E-01</totfact>
</mgrwt>
</event>
<event>
 6    1  0.5040916E-004  0.5633093E+03  0.7818608E-02  0.9984594E-01
          4   -1    0    0  501    0  0.00000000000E+00  0.00000000000E+00  0.10247823763E+03  0.10247823763E+03  0.00000000000E+00 0.  1.
         -4   -1    0    0    0  501 -0.00000000000E+00 -0.00000000000E+00 -0.77410919563E+03  0.77410919563E+03  0.00000000000E+00 0. -1.
         23    2    1    2    0    0  0.86319554930E+02 -0.24139211990E+03 -0.19984442836E+03  0.33964819026E+03  0.98498103985E+02 0.  0.
         11    1    3    3    0    0  0.55496945155E+02 -0.16677244583E+03 -0.18915226814E+03  0.25820832704E+03  0.00000000000E+00 0. -1.
        -11    1    3    3    0    0  0.30822609775E+02 -0.74619674070E+02 -0.10692160219E+02  0.81439863223E+02  0.00000000000E+00 0.  1.
         22    1    1    2    0    0 -0.86319554930E+02  0.24139211990E+03 -0.47178652965E+03  0.53693924300E+03  0.00000000000E+00 0. -1.
<mgrwt>
<rscale>  0 0.56330932E+03</rscale>
<asrwt>0</asrwt>
<pdfrwt beam="1">  1        4 0.15765883E-01 0.56330932E+03</pdfrwt>
<pdfrwt beam="2">  1       -4 0.11909372E+00 0.56330932E+03</pdfrwt>
<totfact> 0.37867165E+01</totfact>
</mgrwt>
</event>
<event>
 6    1  0.5040916E-004  0.5559696E+04  0.7818608E-02  0.7747528E-01
         -2   -1    0    0    0  501 -0.00000000000E+00  0.00000000000E+00  0.39264165647E+04  0.39264165647E+04  0.00000000000E+00 0. -1.
          2   -1    0    0  501    0  0.00000000000E+00 -0.00000000000E+00 -0.19680932330E+04  0.19680932330E+04  0.00000000000E+00 0.  1.
         23    2    1    2    0    0 -0.31876203579E+03  0.24894956929E+04 -0.28582000741E+03  0.25277045811E+04  0.91647870686E+02 0.  0.
         13    1    3    3    0    0 -0.16412604794E+03  0.10794639108E+04 -0.86622889598E+02  0.10953005156E+04  0.00000000000E+00 0.  1.
        -13    1    3    3    0    0 -0.15463598785E+03  0.14100317821E+04 -0.19919711782E+03  0.14324040655E+04  0.00000000000E+00 0. -1.
         22    1    1    2    0    0  0.31876203579E+03 -0.24894956929E+04  0.22441433390E+04  0.33668052166E+04  0.00000000000E+00 0. -1.
<mgrwt>
<rscale>  0 0.55596956E+04</rscale>
<asrwt>0</asrwt>
<pdfrwt beam="1">  1        2 0.30278357E+00 0.55596956E+04</pdfrwt>
<pdfrwt beam="2">  1       -2 0.60406409E+00 0.55596956E+04</pdfrwt>
<totfact> 0.24124893E-03</totfact>
</mgrwt>
</event>
<event>
 6    1  0.5040916E-004  0.1913624E+04  0.7818608E-02  0.8648104E-01
          1   -1    0    0  501    0  0.00000000000E+00  0.00000000000E+00  0.90048709481E+03  0.90048709481E+03  0.00000000000E+00 0.  1.
         -1   -1    0    0    0  501 -0.00000000000E+00 -0.00000000000E+00 -0.10166600656E+04  0.10166600656E+04  0.00000000000E+00 0. -1.
         23    2    1    2    0    0 -0.16052957037E+03 -0.70249221627E+03  0.56874034171E+03  0.92297851146E+03  0.95701094251E+02 0.  0.
         13    1    3    3    0    0 -0.15324843210E+02 -0.26837072741E+03  0.19650730514E+03  0.33297570351E+03  0.00000000000E+00 0. -1.
        -13    1    3    3    0    0 -0.14520472716E+03 -0.43412148886E+03  0.37223303658E+03  0.59000280795E+03  0.00000000000E+00 0.  1.
         22    1    1    2    0    0  0.16052957037E+03  0.70249221627E+03 -0.68491331246E+03  0.99416864891E+03  0.00000000000E+00 0. -1.
<mgrwt>
<rscale>  0 0.19136241E+04</rscale>
<asrwt>0</asrwt>
<pdfrwt beam="1">  1        1 0.13853648E+00 0.19136241E+04</pdfrwt>
<pdfrwt beam="2">  1       -1 0.15640924E+00 0.19136241E+04</pdfrwt>
<totfact> 0.52885611E+00</totfact>
</mgrwt>
</event>
<event>
 6    1  0.5040916E-004  0.2930410E+04  0.7818608E-02  0.8263887E-01
          2   -1    0    0  501    0  0.00000000000E+00  0.00000000000E+00  0.27122191568E+04  0.27122191568E+04  0.00000000000E+00 0. -1.
         -2   -1    0    0    0  501 -0.00000000000E+00 -0.00000000000E+00 -0.79153858725E+03  0.79153858725E+03  0.00000000000E+00 0.  1.
         23    2    1    2    0    0 -0.57871989968E+03 -0.87767840649E+03 -0.25647565036E+03  0.10860635298E+04  0.92293684071E+02 0.  0.
         11    1    3    3    0    0 -0.30694716058E+03 -0.38322812770E+03 -0.11088505427E+03  0.50336453243E+03  0.00000000000E+00 0. -1.
        -11    1    3    3    0    0 -0.27177273910E+03 -0.49445027879E+03 -0.14559059610E+03  0.58269899741E+03  0.00000000000E+00 0.  1.
         22    1    1    2    0    0  0.57871989968E+03  0.87767840649E+03  0.21771562200E+04  0.24176942143E+04  0.00000000000E+00 0. -1.
<mgrwt>
<rscale>  0 0.29304103E+04</rscale>
<asrwt>0</asrwt>
<pdfrwt beam="1">  1        2 0.41726448E+00 0.29304103E+04</pdfrwt>
<pdfrwt beam="2">  1       -2 0.12177517E+00 0.29304103E+04</pdfrwt>
<totfact> 0.11504252E+00</totfact>
</mgrwt>
</event>
<event>
 6    1  0.5040916E-004  0.2126816E+04  0.7818608E-02  0.8549522E-01
          2   -1    0    0  501    0  0.00000000000E+00  0.00000000000E+00  0.62050017933E+03  0.62050017933E+03  0.00000000000E+00 0.  1.
         -2   -1    0    0    0  501 -0.00000000000E+00 -0.00000000000E+00 -0.18224595204E+04  0.18224595204E+04  0.00000000000E+00 0. -1.
         23    2    1    2    0    0  0.43862463176E+03  0.28320921320E+03 -0.16636324895E+04  0.17460083944E+04  0.90957282877E+02 0.  0.
         13    1    3    3    0    0  0.18294747812E+03  0.17217513244E+03 -0.79137228501E+03  0.83029160508E+03  0.00000000000E+00 0. -1.
        -13    1    3    3    0    0  0.25567715363E+03  0.11103408076E+03 -0.87226020449E+03  0.91571678936E+03  0.00000000000E+00 0.  1.
         22    1    1    2    0    0 -0.43862463176E+03 -0.28320921320E+03  0.46167314840E+03  0.69695130532E+03  0.00000000000E+00 0.  1.
<mgrwt>
<rscale>  0 0.21268159E+04</rscale>
<asrwt>0</asrwt>
<pdfrwt beam="1">  1        2 0.95461567E-01 0.21268159E+04</pdfrwt>
<pdfrwt beam="2">  1       -2 0.28037838E+00 0.21268159E+04</pdfrwt>
<totfact> 0.18343568E+00</totfact>
</mgrwt>
</event>
<event>
 6    1  0.5040916E-004  0.3396477E+04  0.7818608E-02  0.8138771E-01
         -2   -1    0    0    0  501 -0.00000000000E+00  0.00000000000E+00  0.15879756989E+04  0.15879756989E+04  0.00000000000E+00 0.  1.
          2   -1    0    0  501    0  0.00000000000E+00 -0.00000000000E+00 -0.18161577763E+04  0.18161577763E+04  0.00000000000E+00 0. -1.
         23    2    1    2    0    0  0.47855198194E+03  0.78497935482E+03  0.13155242093E+04  0.16074048683E+04  0.89117216785E+02 0.  0.
         11    1    3    3    0    0  0.20712965773E+03  0.26785772013E+03  0.44653596648E+03  0.56039702239E+03  0.00000000000E+00 0.  1.
        -11    1    3    3    0    0  0.27142232421E+03  0.51712163469E+03  0.86898824286E+03  0.10470078459E+04  0.00000000000E+00 0. -1.
         22    1    1    2    0    0 -0.47855198194E+03 -0.78497935482E+03 -0.15437062868E+04  0.17967286069E+04  0.00000000000E+00 0. -1.
<mgrwt>
<rscale>  0 0.33964772E+04</rscale>
<asrwt>0</asrwt>
<pdfrwt beam="1">  1        2 0.27940889E+00 0.33964772E+04</pdfrwt>
<pdfrwt beam="2">  1       -2 0.24430395E+00 0.33964772E+04</pdfrwt>
<totfact> 0.48803357E-01</totfact>
</mgrwt>
</event>
<event>
 6    1  0.5040916E-004  0.1455350E+04  0.7818608E-02  0.8914700E-01
          2   -1    0    0  501    0  0.00000000000E+00  0.00000000000E+00  0.66454809316E+03  0.66454809316E+03  0.00000000000E+00 0.  1.
         -2   -1    0    0    0  501 -0.00000000000E+00 -0.00000000000E+00 -0.79679883949E+03  0.79679883949E+03  0.00000000000E+00 0. -1.
         23    2    1    2    0    0  0.71485788187E+03 -0.87278731981E+02  0.17216703769E+02  0.72583358337E+03  0.88874110546E+02 0.  0.
         11    1    3    3    0    0  0.51860080893E+03 -0.10006934205E+03 -0.25107204877E+01  0.52817324427E+03  0.00000000000E+00 0. -1.
        -11    1    3    3    0    0  0.19625707294E+03  0.12790610073E+02  0.19727424257E+02  0.19766033909E+03  0.00000000000E+00 0.  1.
         22    1    1    2    0    0 -0.71485788187E+03  0.87278731981E+02 -0.14946745010E+03  0.73551334928E+03  0.00000000000E+00 0. -1.
<mgrwt>
<rscale>  0 0.14553503E+04</rscale>
<asrwt>0</asrwt>
<pdfrwt beam="1">  1        2 0.10223817E+00 0.14553503E+04</pdfrwt>
<pdfrwt beam="2">  1       -2 0.12258444E+00 0.14553503E+04</pdfrwt>
<totfact> 0.21346187E+01</totfact>
</mgrwt>
</event>
<event>
 6    1  0.5040916E-004  0.4720072E+04  0.7818608E-02  0.7873202E-01
         -2   -1    0    0    0  501 -0.00000000000E+00  0.00000000000E+00  0.17408155729E+04  0.17408155729E+04  0.00000000000E+00 0. -1.
          2   -1    0    0  501    0  0.00000000000E+00 -0.00000000000E+00 -0.31995173391E+04  0.31995173391E+04  0.00000000000E+00 0.  1.
         23    2    1    2    0    0 -0.12698253899E+04 -0.11719968935E+03  0.13477964709E+04  0.18577001666E+04  0.91116924803E+02 0.  0.
         13    1    3    3    0    0 -0.74956779448E+03 -0.86372277497E+02  0.85678291037E+03  0.11416606345E+04  0.00000000000E+00 0. -1.
        -13    1    3    3    0    0 -0.52025759546E+03 -0.30827411856E+02  0.49101356053E+03  0.71603953213E+03  0.00000000000E+00 0.  1.
         22    1    1    2    0    0  0.12698253899E+04  0.11719968935E+03 -0.28064982371E+04  0.30826327453E+04  0.00000000000E+00 0.  1.
<mgrwt>
<rscale>  0 0.47200719E+04</rscale>
<asrwt>0</asrwt>
<pdfrwt beam="1">  1        2 0.49223342E+00 0.47200719E+04</pdfrwt>
<pdfrwt beam="2">  1       -2 0.26781779E+00 0.47200719E+04</pdfrwt>
<totfact> 0.48230758E-02</totfact>
</mgrwt>
</event>
<event>
 6    1  0.5262770E-004  0.4752003E+04  0.7818608E-02  0.7867945E-01
         -2   -1    0    0    0  501 -0.00000000000E+00  0.00000000000E+00  0.15975617022E+04  0.15975617022E+04  0.00000000000E+00 0. -1.
          2   -1    0    0  501    0  0.00000000000E+00 -0.00000000000E+00 -0.35337495382E+04  0.35337495382E+04  0.00000000000E+00 0.  1.
         23    2    1    2    0    0 -0.42443935001E+03  0.11740057522E+04  0.12134216098E+04  0.17433209912E+04  0.91311593784E+02 0.  0.
         11    1    3    3    0    0 -0.16741633395E+03  0.35890754527E+03  0.41723168469E+03  0.57526092657E+03  0.00000000000E+00 0. -1.
        -11    1    3    3    0    0 -0.25702301607E+03  0.81509820690E+03  0.79618992512E+03  0.11680600646E+04  0.00000000000E+00 0.  1.
         22    1    1    2    0    0  0.42443935001E+03 -0.11740057522E+04 -0.31496094458E+04  0.33879902493E+04  0.00000000000E+00 0.  1.
<mgrwt>
<rscale>  0 0.47520029E+04</rscale>
<asrwt>0</asrwt>
<pdfrwt beam="1">  1        2 0.54365377E+00 0.47520029E+04</pdfrwt>
<pdfrwt beam="2">  1       -2 0.24577873E+00 0.47520029E+04</pdfrwt>
<totfact> 0.38911420E-02</totfact>
</mgrwt>
</event>
<event>
 6    1  0.5040916E-004  0.1802959E+04  0.7818608E-02  0.8704727E-01
          2   -1    0    0  501    0  0.00000000000E+00  0.00000000000E+00  0.94088384011E+03  0.94088384011E+03  0.00000000000E+00 0.  1.
         -2   -1    0    0    0  501 -0.00000000000E+00 -0.00000000000E+00 -0.86372578016E+03  0.86372578016E+03  0.00000000000E+00 0. -1.
         23    2    1    2    0    0  0.67909954790E+03  0.39571090222E+03 -0.39839269227E+03  0.88596288075E+03  0.91924831927E+02 0.  0.
         11    1    3    3    0    0  0.37654894254E+03  0.23535059744E+03 -0.27326869499E+03  0.52139695962E+03  0.00000000000E+00 0.  1.
        -11    1    3    3    0    0  0.30255060536E+03  0.16036030478E+03 -0.12512399727E+03  0.36456592113E+03  0.00000000000E+00 0. -1.
         22    1    1    2    0    0 -0.67909954790E+03 -0.39571090222E+03  0.47555075222E+03  0.91864673952E+03  0.00000000000E+00 0. -1.
<mgrwt>
<rscale>  0 0.18029594E+04</rscale>
<asrwt>0</asrwt>
<pdfrwt beam="1">  1        2 0.14475136E+00 0.18029594E+04</pdfrwt>
<pdfrwt beam="2">  1       -2 0.13288089E+00 0.18029594E+04</pdfrwt>
<totfact> 0.10672549E+01</totfact>
</mgrwt>
</event>
<event>
 6    1  0.5040916E-004  0.2994312E+04  0.7818608E-02  0.8245357E-01
          2   -1    0    0  501    0  0.00000000000E+00  0.00000000000E+00  0.14757041474E+04  0.14757041474E+04  0.00000000000E+00 0.  1.
         -2   -1    0    0    0  501 -0.00000000000E+00 -0.00000000000E+00 -0.15189201325E+04  0.15189201325E+04  0.00000000000E+00 0. -1.
         23    2    1    2    0    0 -0.74105931557E+03 -0.24996085065E+02 -0.13207873856E+04  0.15174708022E+04  0.91894525677E+02 0.  0.
         13    1    3    3    0    0 -0.17376921861E+03 -0.10251810233E+02 -0.23644309176E+03  0.29360888371E+03  0.00000000000E+00 0. -1.
        -13    1    3    3    0    0 -0.56729009696E+03 -0.14744274832E+02 -0.10843442939E+04  0.12238619184E+04  0.00000000000E+00 0.  1.
         22    1    1    2    0    0  0.74105931557E+03  0.24996085065E+02  0.12775714005E+04  0.14771534778E+04  0.00000000000E+00 0.  1.
<mgrwt>
<rscale>  0 0.29943124E+04</rscale>
<asrwt>0</asrwt>
<pdfrwt beam="1">  1        2 0.22703141E+00 0.29943124E+04</pdfrwt>
<pdfrwt beam="2">  1       -2 0.23368002E+00 0.29943124E+04</pdfrwt>
<totfact> 0.90993564E-01</totfact>
</mgrwt>
</event>
<event>
 6    1  0.5040916E-004  0.4460428E+04  0.7818608E-02  0.7917601E-01
         -2   -1    0    0    0  501 -0.00000000000E+00  0.00000000000E+00  0.16849392932E+04  0.16849392932E+04  0.00000000000E+00 0. -1.
          2   -1    0    0  501    0  0.00000000000E+00 -0.00000000000E+00 -0.29519493446E+04  0.29519493446E+04  0.00000000000E+00 0.  1.
         23    2    1    2    0    0 -0.60745204673E+03  0.91628042068E+03 -0.26498807143E+04  0.28702819841E+04  0.89905896538E+02 0.  0.
         11    1    3    3    0    0 -0.11579318248E+03  0.19024236833E+03 -0.45018870967E+03  0.50226496407E+03  0.00000000000E+00 0.  1.
        -11    1    3    3    0    0 -0.49165886425E+03  0.72603805235E+03 -0.21996920046E+04  0.23680170201E+04  0.00000000000E+00 0. -1.
         22    1    1    2    0    0  0.60745204673E+03 -0.91628042068E+03  0.13828706629E+04  0.17666066537E+04  0.00000000000E+00 0. -1.
<mgrwt>
<rscale>  0 0.44604284E+04</rscale>
<asrwt>0</asrwt>
<pdfrwt beam="1">  1        2 0.45414605E+00 0.44604284E+04</pdfrwt>
<pdfrwt beam="2">  1       -2 0.25922143E+00 0.44604284E+04</pdfrwt>
<totfact> 0.79961879E-02</totfact>
</mgrwt>
</event>
<event>
 6    1  0.5040916E-004  0.1634440E+04  0.7818608E-02  0.8799665E-01
          2   -1    0    0  501    0  0.00000000000E+00  0.00000000000E+00  0.77472892345E+03  0.77472892345E+03  0.00000000000E+00 0.  1.
         -2   -1    0    0    0  501 -0.00000000000E+00 -0.00000000000E+00 -0.86204175268E+03  0.86204175268E+03  0.00000000000E+00 0. -1.
         23    2    1    2    0    0  0.55750050652E+03 -0.19026168617E+03  0.51982165177E+03  0.79082824191E+03  0.90489969379E+02 0.  0.
         11    1    3    3    0    0  0.15916464616E+03 -0.86544205498E+02  0.12225463713E+03  0.21856230323E+03  0.00000000000E+00 0. -1.
        -11    1    3    3    0    0  0.39833586036E+03 -0.10371748067E+03  0.39756701463E+03  0.57226593868E+03  0.00000000000E+00 0.  1.
         22    1    1    2    0    0 -0.55750050652E+03  0.19026168617E+03 -0.60713448100E+03  0.84594243422E+03  0.00000000000E+00 0. -1.
<mgrwt>
<rscale>  0 0.16344402E+04</rscale>
<asrwt>0</asrwt>
<pdfrwt beam="1">  1        2 0.11918907E+00 0.16344402E+04</pdfrwt>
<pdfrwt beam="2">  1       -2 0.13262181E+00 0.16344402E+04</pdfrwt>
<totfact> 0.14187340E+01</totfact>
</mgrwt>
</event>
<event>
 6    1  0.5040916E-004  0.6608916E+04  0.7818608E-02  0.7619170E-01
          2   -1    0    0  501    0  0.00000000000E+00  0.00000000000E+00  0.36754240440E+04  0.36754240440E+04  0.00000000000E+00 0. -1.
         -2   -1    0    0    0  501 -0.00000000000E+00 -0.00000000000E+00 -0.29709340179E+04  0.29709340179E+04  0.00000000000E+00 0.  1.
         23    2    1    2    0    0  0.10687920242E+04  0.19316791212E+04  0.28241938384E+04  0.35858279002E+04  0.91598443969E+02 0.  0.
         13    1    3    3    0    0  0.47241023081E+03  0.78361481722E+03  0.11219779576E+04  0.14477769667E+04  0.00000000000E+00 0. -1.
        -13    1    3    3    0    0  0.59638179343E+03  0.11480643040E+04  0.17022158808E+04  0.21380509336E+04  0.00000000000E+00 0.  1.
         22    1    1    2    0    0 -0.10687920242E+04 -0.19316791212E+04 -0.21197038123E+04  0.30605301617E+04  0.00000000000E+00 0.  1.
<mgrwt>
<rscale>  0 0.66089159E+04</rscale>
<asrwt>0</asrwt>
<pdfrwt beam="1">  1        2 0.56544985E+00 0.66089159E+04</pdfrwt>
<pdfrwt beam="2">  1       -2 0.45706677E+00 0.66089159E+04</pdfrwt>
<totfact> 0.12227535E-03</totfact>
</mgrwt>
</event>
<event>
 6    1  0.5040916E-004  0.1329488E+04  0.7818608E-02  0.9006503E-01
          2   -1    0    0  501    0  0.00000000000E+00  0.00000000000E+00  0.14544071235E+04  0.14544071235E+04  0.00000000000E+00 0.  1.
         -2   -1    0    0    0  501 -0.00000000000E+00 -0.00000000000E+00 -0.30382442916E+03  0.30382442916E+03  0.00000000000E+00 0. -1.
         23    2    1    2    0    0  0.52424557648E+03  0.36282034452E+03  0.81213246246E+03  0.10364139951E+04  0.90126610318E+02 0.  0.
         13    1    3    3    0    0  0.37575055352E+03  0.23768807954E+03  0.50286502379E+03  0.67123567677E+03  0.00000000000E+00 0.  1.
        -13    1    3    3    0    0  0.14849502296E+03  0.12513226499E+03  0.30926743867E+03  0.36517831837E+03  0.00000000000E+00 0. -1.
         22    1    1    2    0    0 -0.52424557648E+03 -0.36282034452E+03  0.33845023184E+03  0.72181755748E+03  0.00000000000E+00 0. -1.
<mgrwt>
<rscale>  0 0.13294877E+04</rscale>
<asrwt>0</asrwt>
<pdfrwt beam="1">  1        2 0.22375494E+00 0.13294877E+04</pdfrwt>
<pdfrwt beam="2">  1       -2 0.46742221E-01 0.13294877E+04</pdfrwt>
<totfact> 0.57160883E+01</totfact>
</mgrwt>
</event>
<event>
 6    1  0.5040916E-004  0.2896128E+04  0.7818608E-02  0.8274030E-01
         -2   -1    0    0    0  501 -0.00000000000E+00  0.00000000000E+00  0.59574150547E+03  0.59574150547E+03  0.00000000000E+00 0. -1.
          2   -1    0    0  501    0  0.00000000000E+00 -0.00000000000E+00 -0.35197970604E+04  0.35197970604E+04  0.00000000000E+00 0.  1.
         23    2    1    2    0    0  0.20969452435E+02 -0.14424453937E+04 -0.13095662250E+04  0.19504371299E+04  0.90293235173E+02 0.  0.
         13    1    3    3    0    0  0.50643892146E+02 -0.60695005004E+03 -0.53112148556E+03  0.80811088316E+03  0.00000000000E+00 0.  1.
        -13    1    3    3    0    0 -0.29674439711E+02 -0.83549534362E+03 -0.77844473942E+03  0.11423262467E+04  0.00000000000E+00 0. -1.
         22    1    1    2    0    0 -0.20969452435E+02  0.14424453937E+04 -0.16144893300E+04  0.21651014360E+04  0.00000000000E+00 0. -1.
<mgrwt>
<rscale>  0 0.28961279E+04</rscale>
<asrwt>0</asrwt>
<pdfrwt beam="1">  1        2 0.54150724E+00 0.28961279E+04</pdfrwt>
<pdfrwt beam="2">  1       -2 0.91652539E-01 0.28961279E+04</pdfrwt>
<totfact> 0.68841864E-01</totfact>
</mgrwt>
</event>
<event>
 6    1  0.5040916E-004  0.8828504E+03  0.7818608E-02  0.9447277E-01
         -1   -1    0    0    0  501 -0.00000000000E+00  0.00000000000E+00  0.22632009615E+03  0.22632009615E+03  0.00000000000E+00 0. -1.
          1   -1    0    0  501    0  0.00000000000E+00 -0.00000000000E+00 -0.86097623198E+03  0.86097623198E+03  0.00000000000E+00 0.  1.
         23    2    1    2    0    0  0.11116014880E+03  0.41905903365E+03 -0.25600627614E+03  0.51167251989E+03  0.91118065299E+02 0.  0.
         11    1    3    3    0    0  0.38280771850E+02  0.10892415997E+03 -0.11606167097E+03  0.16370767114E+03  0.00000000000E+00 0.  1.
        -11    1    3    3    0    0  0.72879376954E+02  0.31013487367E+03 -0.13994460517E+03  0.34796484876E+03  0.00000000000E+00 0. -1.
         22    1    1    2    0    0 -0.11116014880E+03 -0.41905903365E+03 -0.37864985969E+03  0.57562380823E+03  0.00000000000E+00 0.  1.
<mgrwt>
<rscale>  0 0.88285044E+03</rscale>
<asrwt>0</asrwt>
<pdfrwt beam="1">  1        1 0.13245788E+00 0.88285044E+03</pdfrwt>
<pdfrwt beam="2">  1       -1 0.34818476E-01 0.88285044E+03</pdfrwt>
<totfact> 0.15465447E+02</totfact>
</mgrwt>
</event>
<event>
 6    1  0.5040916E-004  0.1537185E+04  0.7818608E-02  0.8860095E-01
          2   -1    0    0  501    0  0.00000000000E+00  0.00000000000E+00  0.12649781364E+04  0.12649781364E+04  0.00000000000E+00 0.  1.
         -2   -1    0    0    0  501 -0.00000000000E+00 -0.00000000000E+00 -0.46699200676E+03  0.46699200676E+03  0.00000000000E+00 0. -1.
         23    2    1    2    0    0  0.38160225512E+03  0.34536484113E+03  0.10394303411E+04  0.11634699569E+04  0.91376977787E+02 0.  0.
         11    1    3    3    0    0  0.24038909146E+03  0.16361108647E+03  0.62744601951E+03  0.69155188548E+03  0.00000000000E+00 0.  1.
        -11    1    3    3    0    0  0.14121316366E+03  0.18175375466E+03  0.41198432158E+03  0.47191807144E+03  0.00000000000E+00 0. -1.
         22    1    1    2    0    0 -0.38160225512E+03 -0.34536484113E+03 -0.24144421141E+03  0.56850018630E+03  0.00000000000E+00 0. -1.
<mgrwt>
<rscale>  0 0.15371853E+04</rscale>
<asrwt>0</asrwt>
<pdfrwt beam="1">  1        2 0.19461202E+00 0.15371853E+04</pdfrwt>
<pdfrwt beam="2">  1       -2 0.71844924E-01 0.15371853E+04</pdfrwt>
<totfact> 0.29322672E+01</totfact>
</mgrwt>
</event>
<event>
 6    1  0.5040916E-004  0.2129007E+04  0.7818608E-02  0.8548572E-01
          2   -1    0    0  501    0  0.00000000000E+00  0.00000000000E+00  0.19880071662E+04  0.19880071662E+04  0.00000000000E+00 0.  1.
         -2   -1    0    0    0  501 -0.00000000000E+00 -0.00000000000E+00 -0.57000206650E+03  0.57000206650E+03  0.00000000000E+00 0. -1.
         23    2    1    2    0    0  0.86135093521E+03 -0.55966369070E+03  0.10374062267E+04  0.14625621174E+04  0.87905562281E+02 0.  0.
         13    1    3    3    0    0  0.44414743484E+03 -0.31263071896E+03  0.49265285393E+03  0.73328830947E+03  0.00000000000E+00 0.  1.
        -13    1    3    3    0    0  0.41720350037E+03 -0.24703297174E+03  0.54475337272E+03  0.72927380793E+03  0.00000000000E+00 0. -1.
         22    1    1    2    0    0 -0.86135093521E+03  0.55966369070E+03  0.38059887305E+03  0.10954471153E+04  0.00000000000E+00 0. -1.
<mgrwt>
<rscale>  0 0.21290075E+04</rscale>
<asrwt>0</asrwt>
<pdfrwt beam="1">  1        2 0.30584725E+00 0.21290075E+04</pdfrwt>
<pdfrwt beam="2">  1       -2 0.87692626E-01 0.21290075E+04</pdfrwt>
<totfact> 0.69976476E+00</totfact>
</mgrwt>
</event>
<event>
 6    1  0.5040916E-004  0.3706933E+04  0.7818608E-02  0.8066427E-01
         -2   -1    0    0    0  501 -0.00000000000E+00  0.00000000000E+00  0.15081979144E+04  0.15081979144E+04  0.00000000000E+00 0. -1.
          2   -1    0    0  501    0  0.00000000000E+00 -0.00000000000E+00 -0.22777773128E+04  0.22777773128E+04  0.00000000000E+00 0.  1.
         23    2    1    2    0    0  0.56433055255E+03  0.17639884304E+04 -0.41185033131E+03  0.18996840936E+04  0.95156740226E+02 0.  0.
         11    1    3    3    0    0  0.23579857872E+03  0.64458474088E+03 -0.18982597963E+03  0.71212664635E+03  0.00000000000E+00 0.  1.
        -11    1    3    3    0    0  0.32853197383E+03  0.11194036895E+04 -0.22202435168E+03  0.11875574473E+04  0.00000000000E+00 0. -1.
         22    1    1    2    0    0 -0.56433055255E+03 -0.17639884304E+04 -0.35772906707E+03  0.18862911335E+04  0.00000000000E+00 0. -1.
<mgrwt>
<rscale>  0 0.37069335E+04</rscale>
<asrwt>0</asrwt>
<pdfrwt beam="1">  1        2 0.35042728E+00 0.37069335E+04</pdfrwt>
<pdfrwt beam="2">  1       -2 0.23203045E+00 0.37069335E+04</pdfrwt>
<totfact> 0.31311435E-01</totfact>
</mgrwt>
</event>
<event>
 6    1  0.5040916E-004  0.2120630E+04  0.7818608E-02  0.8552210E-01
         -2   -1    0    0    0  501 -0.00000000000E+00  0.00000000000E+00  0.63165803082E+03  0.63165803082E+03  0.00000000000E+00 0. -1.
          2   -1    0    0  501    0  0.00000000000E+00 -0.00000000000E+00 -0.17798671348E+04  0.17798671348E+04  0.00000000000E+00 0.  1.
         23    2    1    2    0    0 -0.62116121498E+03 -0.76945381866E+03 -0.14663748852E+03  0.10040287589E+04  0.93116924429E+02 0.  0.
         11    1    3    3    0    0 -0.34948926808E+03 -0.49099143686E+03 -0.61632153472E+02  0.60581669003E+03  0.00000000000E+00 0.  1.
        -11    1    3    3    0    0 -0.27167194690E+03 -0.27846238179E+03 -0.85005335053E+02  0.39821206887E+03  0.00000000000E+00 0. -1.
         22    1    1    2    0    0  0.62116121498E+03  0.76945381866E+03 -0.10015716155E+04  0.14074964067E+04  0.00000000000E+00 0.  1.
<mgrwt>
<rscale>  0 0.21206295E+04</rscale>
<asrwt>0</asrwt>
<pdfrwt beam="1">  1        2 0.27382571E+00 0.21206295E+04</pdfrwt>
<pdfrwt beam="2">  1       -2 0.97178159E-01 0.21206295E+04</pdfrwt>
<totfact> 0.71985774E+00</totfact>
</mgrwt>
</event>
<event>
 6    1  0.5040916E-004  0.3756200E+04  0.7818608E-02  0.8055620E-01
         -2   -1    0    0    0  501 -0.00000000000E+00  0.00000000000E+00  0.11198807308E+04  0.11198807308E+04  0.00000000000E+00 0. -1.
          2   -1    0    0  501    0  0.00000000000E+00 -0.00000000000E+00 -0.31496738155E+04  0.31496738155E+04  0.00000000000E+00 0.  1.
         23    2    1    2    0    0 -0.29112477078E+03  0.90578412399E+03 -0.28546004141E+04  0.30103859150E+04  0.92094091868E+02 0.  0.
         13    1    3    3    0    0 -0.24236603585E+03  0.83644779380E+03 -0.25812692933E+04  0.27242131656E+04  0.00000000000E+00 0. -1.
        -13    1    3    3    0    0 -0.48758734924E+02  0.69336330198E+02 -0.27333112078E+03  0.28617274941E+03  0.00000000000E+00 0.  1.
         22    1    1    2    0    0  0.29112477078E+03 -0.90578412399E+03  0.82480732941E+03  0.12591686313E+04  0.00000000000E+00 0. -1.
<mgrwt>
<rscale>  0 0.37561997E+04</rscale>
<asrwt>0</asrwt>
<pdfrwt beam="1">  1        2 0.48456520E+00 0.37561997E+04</pdfrwt>
<pdfrwt beam="2">  1       -2 0.17228934E+00 0.37561997E+04</pdfrwt>
<totfact> 0.23077771E-01</totfact>
</mgrwt>
</event>
<event>
 6    1  0.5040916E-004  0.9775768E+03  0.7818608E-02  0.9333486E-01
         -2   -1    0    0    0  501 -0.00000000000E+00  0.00000000000E+00  0.48178438412E+03  0.48178438412E+03  0.00000000000E+00 0. -1.
          2   -1    0    0  501    0  0.00000000000E+00 -0.00000000000E+00 -0.49589423398E+03  0.49589423398E+03  0.00000000000E+00 0.  1.
         23    2    1    2    0    0 -0.30158173753E+03 -0.77505203339E+02  0.36510607107E+03  0.48700223225E+03  0.83127192482E+02 0.  0.
         11    1    3    3    0    0 -0.78949879897E+02 -0.54776874563E+02  0.83492962535E+02  0.12729754246E+03  0.00000000000E+00 0. -1.
        -11    1    3    3    0    0 -0.22263185763E+03 -0.22728328776E+02  0.28161310853E+03  0.35970468979E+03  0.00000000000E+00 0.  1.
         22    1    1    2    0    0  0.30158173753E+03  0.77505203339E+02 -0.37921592092E+03  0.49067638585E+03  0.00000000000E+00 0.  1.
<mgrwt>
<rscale>  0 0.97757680E+03</rscale>
<asrwt>0</asrwt>
<pdfrwt beam="1">  1        2 0.76291421E-01 0.97757680E+03</pdfrwt>
<pdfrwt beam="2">  1       -2 0.74120674E-01 0.97757680E+03</pdfrwt>
<totfact> 0.10194427E+02</totfact>
</mgrwt>
</event>
<event>
 6    1  0.5040916E-004  0.2372262E+04  0.7818608E-02  0.8449962E-01
         -2   -1    0    0    0  501 -0.00000000000E+00  0.00000000000E+00  0.15736919849E+04  0.15736919849E+04  0.00000000000E+00 0. -1.
          2   -1    0    0  501    0  0.00000000000E+00 -0.00000000000E+00 -0.89401661218E+03  0.89401661218E+03  0.00000000000E+00 0.  1.
         23    2    1    2    0    0  0.76495012544E+03 -0.67930815848E+02 -0.59769638725E+03  0.97725836198E+03  0.89608284047E+02 0.  0.
         13    1    3    3    0    0  0.33122477101E+03 -0.48939489940E+02 -0.21017329027E+03  0.39531978771E+03  0.00000000000E+00 0. -1.
        -13    1    3    3    0    0  0.43372535443E+03 -0.18991325908E+02 -0.38752309698E+03  0.58193857427E+03  0.00000000000E+00 0.  1.
         22    1    1    2    0    0 -0.76495012544E+03  0.67930815848E+02  0.12773717600E+04  0.14904502351E+04  0.00000000000E+00 0. -1.
<mgrwt>
<rscale>  0 0.23722620E+04</rscale>
<asrwt>0</asrwt>
<pdfrwt beam="1">  1        2 0.13754102E+00 0.23722620E+04</pdfrwt>
<pdfrwt beam="2">  1       -2 0.24210646E+00 0.23722620E+04</pdfrwt>
<totfact> 0.19171580E+00</totfact>
</mgrwt>
</event>
<event>
 6    1  0.5040916E-004  0.4806684E+04  0.7818608E-02  0.7859040E-01
         -2   -1    0    0    0  501 -0.00000000000E+00  0.00000000000E+00  0.23972621340E+04  0.23972621340E+04  0.00000000000E+00 0. -1.
          2   -1    0    0  501    0  0.00000000000E+00 -0.00000000000E+00 -0.24094375609E+04  0.24094375609E+04  0.00000000000E+00 0.  1.
         23    2    1    2    0    0  0.10336755169E+04  0.10644990076E+04 -0.18956001626E+04  0.24090066482E+04  0.91486846746E+02 0.  0.
         11    1    3    3    0    0  0.81506666350E+03  0.81050435025E+03 -0.15190234905E+04  0.19049103214E+04  0.00000000000E+00 0. -1.
        -11    1    3    3    0    0  0.21860885340E+03  0.25399465738E+03 -0.37657667207E+03  0.50409632682E+03  0.00000000000E+00 0.  1.
         22    1    1    2    0    0 -0.10336755169E+04 -0.10644990076E+04  0.18834247357E+04  0.23976930467E+04  0.00000000000E+00 0. -1.
<mgrwt>
<rscale>  0 0.48066843E+04</rscale>
<asrwt>0</asrwt>
<pdfrwt beam="1">  1        2 0.37068270E+00 0.48066843E+04</pdfrwt>
<pdfrwt beam="2">  1       -2 0.36880956E+00 0.48066843E+04</pdfrwt>
<totfact> 0.34300464E-02</totfact>
</mgrwt>
</event>
<event>
 6    1  0.5040916E-004  0.1582993E+04  0.7818608E-02  0.8831064E-01
          2   -1    0    0  501    0  0.00000000000E+00  0.00000000000E+00  0.42929277200E+03  0.42929277200E+03  0.00000000000E+00 0.  1.
         -2   -1    0    0    0  501 -0.00000000000E+00 -0.00000000000E+00 -0.14593003293E+04  0.14593003293E+04  0.00000000000E+00 0. -1.
         23    2    1    2    0    0 -0.21992636294E+02  0.52155612510E+03  0.18863775732E+03  0.56284769944E+03  0.93321281599E+02 0.  0.
         13    1    3    3    0    0  0.28106093671E+02  0.26760251752E+03  0.69540810984E+02  0.27791542648E+03  0.00000000000E+00 0.  1.
        -13    1    3    3    0    0 -0.50098729965E+02  0.25395360758E+03  0.11909694634E+03  0.28493227296E+03  0.00000000000E+00 0. -1.
         22    1    1    2    0    0  0.21992636294E+02 -0.52155612510E+03 -0.12186453147E+04  0.13257454019E+04  0.00000000000E+00 0. -1.
<mgrwt>
<rscale>  0 0.15829935E+04</rscale>
<asrwt>0</asrwt>
<pdfrwt beam="1">  1        2 0.66045041E-01 0.15829935E+04</pdfrwt>
<pdfrwt beam="2">  1       -2 0.22450774E+00 0.15829935E+04</pdfrwt>
<totfact> 0.65192019E+00</totfact>
</mgrwt>
</event>
<event>
 6    1  0.5040916E-004  0.2400669E+04  0.7818608E-02  0.8439253E-01
          2   -1    0    0  501    0  0.00000000000E+00  0.00000000000E+00  0.33135525611E+03  0.33135525611E+03  0.00000000000E+00 0.  1.
         -2   -1    0    0    0  501 -0.00000000000E+00 -0.00000000000E+00 -0.43482133025E+04  0.43482133025E+04  0.00000000000E+00 0. -1.
         23    2    1    2    0    0 -0.37160288088E+03  0.64591090296E+03 -0.38414385238E+04  0.39140219535E+04  0.87340282906E+02 0.  0.
         13    1    3    3    0    0 -0.11705639668E+03  0.28927230215E+03 -0.16220896156E+04  0.16518339462E+04  0.00000000000E+00 0. -1.
        -13    1    3    3    0    0 -0.25454648420E+03  0.35663860081E+03 -0.22193489081E+04  0.22621880073E+04  0.00000000000E+00 0.  1.
         22    1    1    2    0    0  0.37160288088E+03 -0.64591090296E+03 -0.17541952260E+03  0.76554660508E+03  0.00000000000E+00 0.  1.
<mgrwt>
<rscale>  0 0.24006694E+04</rscale>
<asrwt>0</asrwt>
<pdfrwt beam="1">  1        2 0.50977735E-01 0.24006694E+04</pdfrwt>
<pdfrwt beam="2">  1       -2 0.66895585E+00 0.24006694E+04</pdfrwt>
<totfact> 0.25296101E-02</totfact>
</mgrwt>
</event>
<event>
 6    1  0.5040916E-004  0.1969278E+04  0.7818608E-02  0.8621121E-01
          2   -1    0    0  501    0  0.00000000000E+00  0.00000000000E+00  0.78029134488E+03  0.78029134488E+03  0.00000000000E+00 0.  1.
         -2   -1    0    0    0  501 -0.00000000000E+00 -0.00000000000E+00 -0.12425020124E+04  0.12425020124E+04  0.00000000000E+00 0. -1.
         23    2    1    2    0    0 -0.53058408838E+03 -0.52620855106E+03 -0.88704745515E+03  0.11631997265E+04  0.88122085414E+02 0.  0.
         11    1    3    3    0    0 -0.29411358213E+03 -0.29211934828E+03 -0.55911111918E+03  0.69601850293E+03  0.00000000000E+00 0. -1.
        -11    1    3    3    0    0 -0.23647050625E+03 -0.23408920278E+03 -0.32793633597E+03  0.46718122355E+03  0.00000000000E+00 0.  1.
         22    1    1    2    0    0  0.53058408838E+03  0.52620855106E+03  0.42483678761E+03  0.85959363082E+03  0.00000000000E+00 0.  1.
<mgrwt>
<rscale>  0 0.19692776E+04</rscale>
<asrwt>0</asrwt>
<pdfrwt beam="1">  1        2 0.12004482E+00 0.19692776E+04</pdfrwt>
<pdfrwt beam="2">  1       -2 0.19115416E+00 0.19692776E+04</pdfrwt>
<totfact> 0.50464184E+00</totfact>
</mgrwt>
</event>
<event>
 6    1  0.5040916E-004  0.1583936E+04  0.7818608E-02  0.8830478E-01
          2   -1    0    0  501    0  0.00000000000E+00  0.00000000000E+00  0.20481989216E+03  0.20481989216E+03  0.00000000000E+00 0.  1.
         -2   -1    0    0    0  501 -0.00000000000E+00 -0.00000000000E+00 -0.30622692469E+04  0.30622692469E+04  0.00000000000E+00 0. -1.
         23    2    1    2    0    0  0.64072406976E+03 -0.44870463239E+03 -0.16516408643E+04  0.18297870496E+04  0.91323171319E+02 0.  0.
         13    1    3    3    0    0  0.14569062298E+03 -0.11434618948E+03 -0.48362429596E+03  0.51787379574E+03  0.00000000000E+00 0. -1.
        -13    1    3    3    0    0  0.49503344678E+03 -0.33435844292E+03 -0.11680165683E+04  0.13119132539E+04  0.00000000000E+00 0.  1.
         22    1    1    2    0    0 -0.64072406976E+03  0.44870463239E+03 -0.12058084905E+04  0.14373020895E+04  0.00000000000E+00 0. -1.
<mgrwt>
<rscale>  0 0.15839364E+04</rscale>
<asrwt>0</asrwt>
<pdfrwt beam="1">  1        2 0.31510752E-01 0.15839364E+04</pdfrwt>
<pdfrwt beam="2">  1       -2 0.47111836E+00 0.15839364E+04</pdfrwt>
<totfact> 0.40986799E-01</totfact>
</mgrwt>
</event>
<event>
 6    1  0.5161728E-004  0.2571145E+04  0.7818608E-02  0.8378069E-01
         -2   -1    0    0    0  501 -0.00000000000E+00  0.00000000000E+00  0.12454394992E+04  0.12454394992E+04  0.00000000000E+00 0. -1.
          2   -1    0    0  501    0  0.00000000000E+00 -0.00000000000E+00 -0.13269991518E+04  0.13269991518E+04  0.00000000000E+00 0.  1.
         23    2    1    2    0    0 -0.20809129998E+03 -0.99705478441E+03 -0.82221144102E+03  0.13130795665E+04  0.10356670302E+03 0.  0.
         11    1    3    3    0    0 -0.31291390929E+02 -0.39254423878E+03 -0.32785590539E+03  0.51240572328E+03  0.00000000000E+00 0. -1.
        -11    1    3    3    0    0 -0.17679990905E+03 -0.60451054563E+03 -0.49435553562E+03  0.80067384322E+03  0.00000000000E+00 0.  1.
         22    1    1    2    0    0  0.20809129998E+03  0.99705478441E+03  0.74065178840E+03  0.12593590846E+04  0.00000000000E+00 0. -1.
<mgrwt>
<rscale>  0 0.25711454E+04</rscale>
<asrwt>0</asrwt>
<pdfrwt beam="1">  1        2 0.20415372E+00 0.25711454E+04</pdfrwt>
<pdfrwt beam="2">  1       -2 0.19160608E+00 0.25711454E+04</pdfrwt>
<totfact> 0.21377039E+00</totfact>
</mgrwt>
</event>
<event>
 6    1  0.5040916E-004  0.2017177E+04  0.7818608E-02  0.8598632E-01
          2   -1    0    0  501    0  0.00000000000E+00  0.00000000000E+00  0.23364656840E+04  0.23364656840E+04  0.00000000000E+00 0. -1.
         -2   -1    0    0    0  501 -0.00000000000E+00 -0.00000000000E+00 -0.43538022018E+03  0.43538022018E+03  0.00000000000E+00 0.  1.
         23    2    1    2    0    0 -0.66887325269E+03  0.55895013977E+02  0.19831755162E+04  0.20956399759E+04  0.90587527522E+02 0.  0.
         11    1    3    3    0    0 -0.44111442773E+03  0.52397670391E+02  0.14298160694E+04  0.14972312602E+04  0.00000000000E+00 0.  1.
        -11    1    3    3    0    0 -0.22775882497E+03  0.34973435859E+01  0.55335944672E+03  0.59840871571E+03  0.00000000000E+00 0. -1.
         22    1    1    2    0    0  0.66887325269E+03 -0.55895013977E+02 -0.82090052291E+02  0.67620592828E+03  0.00000000000E+00 0.  1.
<mgrwt>
<rscale>  0 0.20171772E+04</rscale>
<asrwt>0</asrwt>
<pdfrwt beam="1">  1        2 0.35945625E+00 0.20171772E+04</pdfrwt>
<pdfrwt beam="2">  1       -2 0.66981574E-01 0.20171772E+04</pdfrwt>
<totfact> 0.82062877E+00</totfact>
</mgrwt>
</event>
<event>
 6    1  0.5040916E-004  0.6432267E+03  0.7818608E-02  0.9819572E-01
          2   -1    0    0  501    0  0.00000000000E+00  0.00000000000E+00  0.26535254973E+03  0.26535254973E+03  0.00000000000E+00 0.  1.
         -2   -1    0    0    0  501 -0.00000000000E+00 -0.00000000000E+00 -0.38980275856E+03  0.38980275856E+03  0.00000000000E+00 0. -1.
         23    2    1    2    0    0  0.28132052294E+03  0.12997897230E+03 -0.12184008524E+03  0.34524793082E+03  0.91188582054E+02 0.  0.
         13    1    3    3    0    0  0.18265272635E+02  0.40728448883E+02 -0.24398887704E+02  0.50869759720E+02  0.00000000000E+00 0. -1.
        -13    1    3    3    0    0  0.26305525030E+03  0.89250523417E+02 -0.97441197537E+02  0.29437817110E+03  0.00000000000E+00 0.  1.
         22    1    1    2    0    0 -0.28132052294E+03 -0.12997897230E+03 -0.26101235916E+01  0.30990737747E+03  0.00000000000E+00 0.  1.
<mgrwt>
<rscale>  0 0.64322673E+03</rscale>
<asrwt>0</asrwt>
<pdfrwt beam="1">  1        2 0.40823469E-01 0.64322673E+03</pdfrwt>
<pdfrwt beam="2">  1       -2 0.59969655E-01 0.64322673E+03</pdfrwt>
<totfact> 0.32967938E+02</totfact>
</mgrwt>
</event>
<event>
 6    1  0.5040916E-004  0.9254986E+03  0.7818608E-02  0.9394256E-01
         -2   -1    0    0    0  501 -0.00000000000E+00  0.00000000000E+00  0.19834107536E+03  0.19834107536E+03  0.00000000000E+00 0. -1.
          2   -1    0    0  501    0  0.00000000000E+00 -0.00000000000E+00 -0.10796397904E+04  0.10796397904E+04  0.00000000000E+00 0.  1.
         23    2    1    2    0    0 -0.19663044720E+03 -0.36160106776E+03 -0.72378021794E+03  0.83726446954E+03  0.87949548694E+02 0.  0.
         11    1    3    3    0    0 -0.66388125705E+02 -0.53568717717E+02 -0.12328334003E+03  0.14991922052E+03  0.00000000000E+00 0.  1.
        -11    1    3    3    0    0 -0.13024232149E+03 -0.30803235004E+03 -0.60049687791E+03  0.68734524902E+03  0.00000000000E+00 0. -1.
         22    1    1    2    0    0  0.19663044720E+03  0.36160106776E+03 -0.15751849712E+03  0.44071639623E+03  0.00000000000E+00 0. -1.
<mgrwt>
<rscale>  0 0.92549861E+03</rscale>
<asrwt>0</asrwt>
<pdfrwt beam="1">  1        2 0.16609843E+00 0.92549861E+03</pdfrwt>
<pdfrwt beam="2">  1       -2 0.30514012E-01 0.92549861E+03</pdfrwt>
<totfact> 0.22283846E+02</totfact>
</mgrwt>
</event>
<event>
 6    1  0.5040916E-004  0.2105512E+04  0.7818608E-02  0.8558819E-01
          2   -1    0    0  501    0  0.00000000000E+00  0.00000000000E+00  0.10671353927E+04  0.10671353927E+04  0.00000000000E+00 0.  1.
         -2   -1    0    0    0  501 -0.00000000000E+00 -0.00000000000E+00 -0.10385708502E+04  0.10385708502E+04  0.00000000000E+00 0. -1.
         23    2    1    2    0    0 -0.22876197254E+03 -0.47400949396E+03 -0.89530363289E+03  0.10424332554E+04  0.89896921419E+02 0.  0.
         13    1    3    3    0    0 -0.13934200770E+03 -0.30196324421E+03 -0.47828381664E+03  0.58254047518E+03  0.00000000000E+00 0. -1.
        -13    1    3    3    0    0 -0.89419964838E+02 -0.17204624975E+03 -0.41701981624E+03  0.45989278023E+03  0.00000000000E+00 0.  1.
         22    1    1    2    0    0  0.22876197254E+03  0.47400949396E+03  0.92386817540E+03  0.10632729875E+04  0.00000000000E+00 0.  1.
<mgrwt>
<rscale>  0 0.21055125E+04</rscale>
<asrwt>0</asrwt>
<pdfrwt beam="1">  1        2 0.16417468E+00 0.21055125E+04</pdfrwt>
<pdfrwt beam="2">  1       -2 0.15978013E+00 0.21055125E+04</pdfrwt>
<totfact> 0.53180105E+00</totfact>
</mgrwt>
</event>
<event>
 6    1  0.5040916E-004  0.2914211E+04  0.7818608E-02  0.8268662E-01
         -2   -1    0    0    0  501 -0.00000000000E+00  0.00000000000E+00  0.64983389658E+03  0.64983389658E+03  0.00000000000E+00 0. -1.
          2   -1    0    0  501    0  0.00000000000E+00 -0.00000000000E+00 -0.32672287025E+04  0.32672287025E+04  0.00000000000E+00 0.  1.
         23    2    1    2    0    0  0.62872767771E+03  0.12156060211E+04 -0.19767502259E+04  0.24059630097E+04  0.90111359690E+02 0.  0.
         11    1    3    3    0    0  0.49456171871E+03  0.10260746805E+04 -0.16234372421E+04  0.19831714557E+04  0.00000000000E+00 0.  1.
        -11    1    3    3    0    0  0.13416595900E+03  0.18953134062E+03 -0.35331298376E+03  0.42279155399E+03  0.00000000000E+00 0. -1.
         22    1    1    2    0    0 -0.62872767771E+03 -0.12156060211E+04 -0.64064458001E+03  0.15110995894E+04  0.00000000000E+00 0. -1.
<mgrwt>
<rscale>  0 0.29142107E+04</rscale>
<asrwt>0</asrwt>
<pdfrwt beam="1">  1        2 0.50265056E+00 0.29142107E+04</pdfrwt>
<pdfrwt beam="2">  1       -2 0.99974448E-01 0.29142107E+04</pdfrwt>
<totfact> 0.83399642E-01</totfact>
</mgrwt>
</event>
<event>
 6    1  0.5040916E-004  0.2034255E+04  0.7818608E-02  0.8590771E-01
         -2   -1    0    0    0  501 -0.00000000000E+00  0.00000000000E+00  0.47053355860E+03  0.47053355860E+03  0.00000000000E+00 0. -1.
          2   -1    0    0  501    0  0.00000000000E+00 -0.00000000000E+00 -0.21986702839E+04  0.21986702839E+04  0.00000000000E+00 0.  1.
         23    2    1    2    0    0 -0.88704812502E+03  0.26689841023E+03 -0.32105824822E+03  0.98457955855E+03  0.90715879900E+02 0.  0.
         13    1    3    3    0    0 -0.29443802396E+03  0.62484244284E+02 -0.14082557829E+03  0.33230990692E+03  0.00000000000E+00 0. -1.
        -13    1    3    3    0    0 -0.59261010107E+03  0.20441416594E+03 -0.18023266994E+03  0.65226965163E+03  0.00000000000E+00 0.  1.
         22    1    1    2    0    0  0.88704812502E+03 -0.26689841023E+03 -0.14070784771E+04  0.16846242840E+04  0.00000000000E+00 0.  1.
<mgrwt>
<rscale>  0 0.20342548E+04</rscale>
<asrwt>0</asrwt>
<pdfrwt beam="1">  1        2 0.33825698E+00 0.20342548E+04</pdfrwt>
<pdfrwt beam="2">  1       -2 0.72389776E-01 0.20342548E+04</pdfrwt>
<totfact> 0.82760452E+00</totfact>
</mgrwt>
</event>
<event>
 6    1  0.5040916E-004  0.4036149E+04  0.7818608E-02  0.7997294E-01
          2   -1    0    0  501    0  0.00000000000E+00  0.00000000000E+00  0.15931958944E+04  0.15931958944E+04  0.00000000000E+00 0.  1.
         -2   -1    0    0    0  501 -0.00000000000E+00 -0.00000000000E+00 -0.25562614390E+04  0.25562614390E+04  0.00000000000E+00 0. -1.
         23    2    1    2    0    0  0.20775075949E+03 -0.93001261131E+03  0.13458165378E+04  0.16516542375E+04  0.93036184579E+02 0.  0.
         11    1    3    3    0    0  0.66876845372E+02 -0.38671738247E+03  0.48290342457E+03  0.62226888385E+03  0.00000000000E+00 0.  1.
        -11    1    3    3    0    0  0.14087391412E+03 -0.54329522884E+03  0.86291311325E+03  0.10293853537E+04  0.00000000000E+00 0. -1.
         22    1    1    2    0    0 -0.20775075949E+03  0.93001261131E+03 -0.23088820824E+04  0.24978030959E+04  0.00000000000E+00 0. -1.
<mgrwt>
<rscale>  0 0.40361493E+04</rscale>
<asrwt>0</asrwt>
<pdfrwt beam="1">  1        2 0.24510706E+00 0.40361493E+04</pdfrwt>
<pdfrwt beam="2">  1       -2 0.39327098E+00 0.40361493E+04</pdfrwt>
<totfact> 0.72643375E-02</totfact>
</mgrwt>
</event>
<event>
 6    1  0.5040916E-004  0.3072075E+04  0.7818608E-02  0.8223444E-01
         -1   -1    0    0    0  501 -0.00000000000E+00  0.00000000000E+00  0.15297348364E+04  0.15297348364E+04  0.00000000000E+00 0. -1.
          1   -1    0    0  501    0  0.00000000000E+00 -0.00000000000E+00 -0.15423663823E+04  0.15423663823E+04  0.00000000000E+00 0.  1.
         23    2    1    2    0    0 -0.78517092824E+02  0.34791147712E+03  0.14864907155E+04  0.15311356499E+04  0.86685647335E+02 0.  0.
         11    1    3    3    0    0 -0.76691708498E+01  0.61016669836E+02  0.41929605990E+03  0.42378182597E+03  0.00000000000E+00 0.  1.
        -11    1    3    3    0    0 -0.70847921974E+02  0.28689480728E+03  0.10671946556E+04  0.11073538239E+04  0.00000000000E+00 0. -1.
         22    1    1    2    0    0  0.78517092824E+02 -0.34791147712E+03 -0.14991222614E+04  0.15409655688E+04  0.00000000000E+00 0.  1.
<mgrwt>
<rscale>  0 0.30720753E+04</rscale>
<asrwt>0</asrwt>
<pdfrwt beam="1">  1        1 0.23728714E+00 0.30720753E+04</pdfrwt>
<pdfrwt beam="2">  1       -1 0.23534382E+00 0.30720753E+04</pdfrwt>
<totfact> 0.45000128E-01</totfact>
</mgrwt>
</event>
<event>
 6    1  0.5040916E-004  0.3510834E+04  0.7818608E-02  0.8111227E-01
          2   -1    0    0  501    0  0.00000000000E+00  0.00000000000E+00  0.17061079400E+04  0.17061079400E+04  0.00000000000E+00 0.  1.
         -2   -1    0    0    0  501 -0.00000000000E+00 -0.00000000000E+00 -0.18061516529E+04  0.18061516529E+04  0.00000000000E+00 0. -1.
         23    2    1    2    0    0  0.93561794436E+03 -0.12574031183E+04  0.73924261515E+03  0.17343830280E+04  0.71842217587E+02 0.  0.
         11    1    3    3    0    0  0.59098289641E+03 -0.78341127068E+03  0.50040757894E+03  0.11015451638E+04  0.00000000000E+00 0. -1.
        -11    1    3    3    0    0  0.34463504795E+03 -0.47399184760E+03  0.23883503621E+03  0.63283786422E+03  0.00000000000E+00 0.  1.
         22    1    1    2    0    0 -0.93561794436E+03  0.12574031183E+04 -0.83928632800E+03  0.17778765649E+04  0.00000000000E+00 0. -1.
<mgrwt>
<rscale>  0 0.35108345E+04</rscale>
<asrwt>0</asrwt>
<pdfrwt beam="1">  1        2 0.26247814E+00 0.35108345E+04</pdfrwt>
<pdfrwt beam="2">  1       -2 0.27786948E+00 0.35108345E+04</pdfrwt>
<totfact> 0.34663600E-01</totfact>
</mgrwt>
</event>
<event>
 6    1  0.5040916E-004  0.1771435E+04  0.7818608E-02  0.8721639E-01
          2   -1    0    0  501    0  0.00000000000E+00  0.00000000000E+00  0.79685648336E+03  0.79685648336E+03  0.00000000000E+00 0.  1.
         -2   -1    0    0    0  501 -0.00000000000E+00 -0.00000000000E+00 -0.98448833848E+03  0.98448833848E+03  0.00000000000E+00 0. -1.
         23    2    1    2    0    0  0.46189666698E+03  0.22116096063E+03  0.62972146714E+03  0.81681013875E+03  0.91482102715E+02 0.  0.
         11    1    3    3    0    0  0.12526279859E+03  0.82280017767E+02  0.12944898946E+03  0.19803487295E+03  0.00000000000E+00 0. -1.
        -11    1    3    3    0    0  0.33663386839E+03  0.13888094287E+03  0.50027247768E+03  0.61877526580E+03  0.00000000000E+00 0.  1.
         22    1    1    2    0    0 -0.46189666698E+03 -0.22116096063E+03 -0.81735332226E+03  0.96453468309E+03  0.00000000000E+00 0. -1.
<mgrwt>
<rscale>  0 0.17714355E+04</rscale>
<asrwt>0</asrwt>
<pdfrwt beam="1">  1        2 0.12259330E+00 0.17714355E+04</pdfrwt>
<pdfrwt beam="2">  1       -2 0.15145975E+00 0.17714355E+04</pdfrwt>
<totfact> 0.95635886E+00</totfact>
</mgrwt>
</event>
<event>
 6    1  0.5040916E-004  0.1648687E+04  0.7818608E-02  0.8791184E-01
         -2   -1    0    0    0  501 -0.00000000000E+00  0.00000000000E+00  0.24238762687E+03  0.24238762687E+03  0.00000000000E+00 0. -1.
          2   -1    0    0  501    0  0.00000000000E+00 -0.00000000000E+00 -0.28035353134E+04  0.28035353134E+04  0.00000000000E+00 0.  1.
         23    2    1    2    0    0 -0.29595955802E+02 -0.81853197563E+03 -0.14052502049E+04  0.16292474291E+04  0.94066632515E+02 0.  0.
         11    1    3    3    0    0  0.12844029209E+02 -0.48840034172E+03 -0.90340415574E+03  0.10270535193E+04  0.00000000000E+00 0.  1.
        -11    1    3    3    0    0 -0.42439985011E+02 -0.33013163391E+03 -0.50184604913E+03  0.60219390985E+03  0.00000000000E+00 0. -1.
         22    1    1    2    0    0  0.29595955802E+02  0.81853197563E+03 -0.11558974817E+04  0.14166755112E+04  0.00000000000E+00 0. -1.
<mgrwt>
<rscale>  0 0.16486871E+04</rscale>
<asrwt>0</asrwt>
<pdfrwt beam="1">  1        2 0.43131310E+00 0.16486871E+04</pdfrwt>
<pdfrwt beam="2">  1       -2 0.37290407E-01 0.16486871E+04</pdfrwt>
<totfact> 0.14962076E+01</totfact>
</mgrwt>
</event>
<event>
 6    1  0.5040916E-004  0.1777404E+04  0.7818608E-02  0.8718409E-01
          2   -1    0    0  501    0  0.00000000000E+00  0.00000000000E+00  0.23882620405E+04  0.23882620405E+04  0.00000000000E+00 0.  1.
         -2   -1    0    0    0  501 -0.00000000000E+00 -0.00000000000E+00 -0.33069712963E+03  0.33069712963E+03  0.00000000000E+00 0. -1.
         23    2    1    2    0    0 -0.55601031947E+03 -0.47920584140E+03  0.27136148779E+03  0.78781743986E+03  0.90738898454E+02 0.  0.
         13    1    3    3    0    0 -0.42962560224E+03 -0.32592498004E+03  0.22156160686E+03  0.58300497112E+03  0.00000000000E+00 0.  1.
        -13    1    3    3    0    0 -0.12638471723E+03 -0.15328086136E+03  0.49799880931E+02  0.20481246874E+03  0.00000000000E+00 0. -1.
         22    1    1    2    0    0  0.55601031947E+03  0.47920584140E+03  0.17862034231E+04  0.19311417303E+04  0.00000000000E+00 0.  1.
<mgrwt>
<rscale>  0 0.17774042E+04</rscale>
<asrwt>0</asrwt>
<pdfrwt beam="1">  1        2 0.36742492E+00 0.17774042E+04</pdfrwt>
<pdfrwt beam="2">  1       -2 0.50876483E-01 0.17774042E+04</pdfrwt>
<totfact> 0.13957639E+01</totfact>
</mgrwt>
</event>
<event>
 6    1  0.5040916E-004  0.3363600E+04  0.7818608E-02  0.8146898E-01
         -2   -1    0    0    0  501 -0.00000000000E+00  0.00000000000E+00  0.25177983648E+04  0.25177983648E+04  0.00000000000E+00 0. -1.
          2   -1    0    0  501    0  0.00000000000E+00 -0.00000000000E+00 -0.11233824231E+04  0.11233824231E+04  0.00000000000E+00 0.  1.
         23    2    1    2    0    0 -0.13264213256E+04  0.10126971989E+04  0.48287140290E+03  0.17396386255E+04  0.90711663645E+02 0.  0.
         13    1    3    3    0    0 -0.16509145234E+03  0.16486188162E+03  0.61403226642E+02  0.24125709086E+03  0.00000000000E+00 0.  1.
        -13    1    3    3    0    0 -0.11613298732E+04  0.84783531728E+03  0.42146817625E+03  0.14983815346E+04  0.00000000000E+00 0. -1.
         22    1    1    2    0    0  0.13264213256E+04 -0.10126971989E+04  0.91154453881E+03  0.19015421625E+04  0.00000000000E+00 0.  1.
<mgrwt>
<rscale>  0 0.33635995E+04</rscale>
<asrwt>0</asrwt>
<pdfrwt beam="1">  1        2 0.17282807E+00 0.33635995E+04</pdfrwt>
<pdfrwt beam="2">  1       -2 0.38735359E+00 0.33635995E+04</pdfrwt>
<totfact> 0.15701470E-01</totfact>
</mgrwt>
</event>
<event>
 6    1  0.5040916E-004  0.1514272E+04  0.7818608E-02  0.8875017E-01
         -1   -1    0    0    0  501 -0.00000000000E+00  0.00000000000E+00  0.69041460675E+03  0.69041460675E+03  0.00000000000E+00 0. -1.
          1   -1    0    0  501    0  0.00000000000E+00 -0.00000000000E+00 -0.83030573793E+03  0.83030573793E+03  0.00000000000E+00 0.  1.
         23    2    1    2    0    0 -0.22301843385E+03  0.50202343825E+02  0.65185907110E+03  0.69662940312E+03  0.90082071200E+02 0.  0.
         11    1    3    3    0    0 -0.19273913466E+03  0.73998980955E+02  0.56775545733E+03  0.60412786936E+03  0.00000000000E+00 0.  1.
        -11    1    3    3    0    0 -0.30279299193E+02 -0.23796637130E+02  0.84103613767E+02  0.92501533755E+02  0.00000000000E+00 0. -1.
         22    1    1    2    0    0  0.22301843385E+03 -0.50202343825E+02 -0.79175020227E+03  0.82409094156E+03  0.00000000000E+00 0.  1.
<mgrwt>
<rscale>  0 0.15142724E+04</rscale>
<asrwt>0</asrwt>
<pdfrwt beam="1">  1        1 0.12773934E+00 0.15142724E+04</pdfrwt>
<pdfrwt beam="2">  1       -1 0.10621763E+00 0.15142724E+04</pdfrwt>
<totfact> 0.16673334E+01</totfact>
</mgrwt>
</event>
<event>
 6    1  0.5040916E-004  0.1822867E+04  0.7818608E-02  0.8694233E-01
         -1   -1    0    0    0  501 -0.00000000000E+00  0.00000000000E+00  0.38173250487E+03  0.38173250487E+03  0.00000000000E+00 0. -1.
          1   -1    0    0  501    0  0.00000000000E+00 -0.00000000000E+00 -0.21761589450E+04  0.21761589450E+04  0.00000000000E+00 0.  1.
         23    2    1    2    0    0 -0.79863264819E+03  0.41371599406E+03 -0.71349808640E+03  0.11516976025E+04  0.91393751565E+02 0.  0.
         13    1    3    3    0    0 -0.41925542601E+03  0.16770036524E+03 -0.34052507558E+03  0.56555800042E+03  0.00000000000E+00 0. -1.
        -13    1    3    3    0    0 -0.37937722218E+03  0.24601562883E+03 -0.37297301081E+03  0.58613960209E+03  0.00000000000E+00 0.  1.
         22    1    1    2    0    0  0.79863264819E+03 -0.41371599406E+03 -0.10809283538E+04  0.14061938474E+04  0.00000000000E+00 0.  1.
<mgrwt>
<rscale>  0 0.18228665E+04</rscale>
<asrwt>0</asrwt>
<pdfrwt beam="1">  1        1 0.33479368E+00 0.18228665E+04</pdfrwt>
<pdfrwt beam="2">  1       -1 0.58728078E-01 0.18228665E+04</pdfrwt>
<totfact> 0.62606674E+00</totfact>
</mgrwt>
</event>
<event>
 6    1  0.5040916E-004  0.1058795E+04  0.7818608E-02  0.9246310E-01
         -2   -1    0    0    0  501 -0.00000000000E+00  0.00000000000E+00  0.13038775864E+03  0.13038775864E+03  0.00000000000E+00 0.  1.
          2   -1    0    0  501    0  0.00000000000E+00 -0.00000000000E+00 -0.21494488195E+04  0.21494488195E+04  0.00000000000E+00 0. -1.
         23    2    1    2    0    0 -0.48108304140E+03  0.14785310453E+03 -0.68864593403E+03  0.85740702173E+03  0.87247608630E+02 0.  0.
         11    1    3    3    0    0 -0.37193143765E+03  0.94014871077E+02 -0.46532425544E+03  0.60307416873E+03  0.00000000000E+00 0.  1.
        -11    1    3    3    0    0 -0.10915160375E+03  0.53838233449E+02 -0.22332167860E+03  0.25433285299E+03  0.00000000000E+00 0. -1.
         22    1    1    2    0    0  0.48108304140E+03 -0.14785310453E+03 -0.13304151268E+04  0.14224295564E+04  0.00000000000E+00 0. -1.
<mgrwt>
<rscale>  0 0.10587952E+04</rscale>
<asrwt>0</asrwt>
<pdfrwt beam="1">  1        2 0.33068441E+00 0.10587952E+04</pdfrwt>
<pdfrwt beam="2">  1       -2 0.20059657E-01 0.10587952E+04</pdfrwt>
<totfact> 0.11718696E+02</totfact>
</mgrwt>
</event>
<event>
 6    1  0.5040916E-004  0.1606977E+04  0.7818608E-02  0.8816273E-01
         -2   -1    0    0    0  501 -0.00000000000E+00  0.00000000000E+00  0.28690751060E+03  0.28690751060E+03  0.00000000000E+00 0. -1.
          2   -1    0    0  501    0  0.00000000000E+00 -0.00000000000E+00 -0.22501806003E+04  0.22501806003E+04  0.00000000000E+00 0.  1.
         23    2    1    2    0    0  0.29714391575E+03  0.21767441836E+02 -0.21585268048E+04  0.21808685979E+04  0.90451898845E+02 0.  0.
         13    1    3    3    0    0  0.67275441177E+02 -0.23743666511E+02 -0.70153045242E+03  0.70514872357E+03  0.00000000000E+00 0. -1.
        -13    1    3    3    0    0  0.22986847458E+03  0.45511108347E+02 -0.14569963524E+04  0.14757198743E+04  0.00000000000E+00 0.  1.
         22    1    1    2    0    0 -0.29714391575E+03 -0.21767441836E+02  0.19525371510E+03  0.35621951301E+03  0.00000000000E+00 0. -1.
<mgrwt>
<rscale>  0 0.16069769E+04</rscale>
<asrwt>0</asrwt>
<pdfrwt beam="1">  1        2 0.34618163E+00 0.16069769E+04</pdfrwt>
<pdfrwt beam="2">  1       -2 0.44139617E-01 0.16069769E+04</pdfrwt>
<totfact> 0.22590693E+01</totfact>
</mgrwt>
</event>
<event>
 6    1  0.5040916E-004  0.3848256E+04  0.7818608E-02  0.8035878E-01
         -2   -1    0    0    0  501 -0.00000000000E+00  0.00000000000E+00  0.14497209829E+04  0.14497209829E+04  0.00000000000E+00 0. -1.
          2   -1    0    0  501    0  0.00000000000E+00 -0.00000000000E+00 -0.25537804213E+04  0.25537804213E+04  0.00000000000E+00 0.  1.
         23    2    1    2    0    0  0.94602168848E+02 -0.59024357163E+03 -0.24538808291E+04  0.25272375962E+04  0.89786970740E+02 0.  0.
         13    1    3    3    0    0  0.39040390963E+02 -0.47340964389E+03 -0.19102249961E+04  0.19684004620E+04  0.00000000000E+00 0. -1.
        -13    1    3    3    0    0  0.55561777885E+02 -0.11683392774E+03 -0.54365583297E+03  0.55883713419E+03  0.00000000000E+00 0.  1.
         22    1    1    2    0    0 -0.94602168848E+02  0.59024357163E+03  0.13498213906E+04  0.14762638080E+04  0.00000000000E+00 0. -1.
<mgrwt>
<rscale>  0 0.38482563E+04</rscale>
<asrwt>0</asrwt>
<pdfrwt beam="1">  1        2 0.39288929E+00 0.38482563E+04</pdfrwt>
<pdfrwt beam="2">  1       -2 0.22303400E+00 0.38482563E+04</pdfrwt>
<totfact> 0.24460587E-01</totfact>
</mgrwt>
</event>
<event>
 6    1  0.5040916E-004  0.1998489E+04  0.7818608E-02  0.8607327E-01
         -2   -1    0    0    0  501 -0.00000000000E+00  0.00000000000E+00  0.24570689812E+03  0.24570689812E+03  0.00000000000E+00 0. -1.
          2   -1    0    0  501    0  0.00000000000E+00 -0.00000000000E+00 -0.40637431444E+04  0.40637431444E+04  0.00000000000E+00 0.  1.
         23    2    1    2    0    0 -0.21548650251E+03  0.97141732670E+03 -0.20547499256E+04  0.22847859459E+04  0.90352125469E+02 0.  0.
         13    1    3    3    0    0 -0.92973108495E+02  0.30806639429E+03 -0.58616709717E+03  0.66868585150E+03  0.00000000000E+00 0. -1.
        -13    1    3    3    0    0 -0.12251339401E+03  0.66335093240E+03 -0.14685828284E+04  0.16161000944E+04  0.00000000000E+00 0.  1.
         22    1    1    2    0    0  0.21548650251E+03 -0.97141732670E+03 -0.17632863207E+04  0.20246640966E+04  0.00000000000E+00 0. -1.
<mgrwt>
<rscale>  0 0.19984892E+04</rscale>
<asrwt>0</asrwt>
<pdfrwt beam="1">  1        2 0.62519120E+00 0.19984892E+04</pdfrwt>
<pdfrwt beam="2">  1       -2 0.37801064E-01 0.19984892E+04</pdfrwt>
<totfact> 0.18827306E+00</totfact>
</mgrwt>
</event>
<event>
 6    1  0.5040916E-004  0.1356555E+04  0.7818608E-02  0.8985881E-01
         -2   -1    0    0    0  501 -0.00000000000E+00  0.00000000000E+00  0.35811444110E+03  0.35811444110E+03  0.00000000000E+00 0. -1.
          2   -1    0    0  501    0  0.00000000000E+00 -0.00000000000E+00 -0.12846739726E+04  0.12846739726E+04  0.00000000000E+00 0.  1.
         23    2    1    2    0    0 -0.20424931138E+03  0.57032238402E+03 -0.10740162712E+03  0.62396307282E+03  0.10396828280E+03 0.  0.
         13    1    3    3    0    0 -0.46775441973E+02  0.28259195465E+03 -0.58184056372E+02  0.29228674144E+03  0.00000000000E+00 0. -1.
        -13    1    3    3    0    0 -0.15747386941E+03  0.28773042937E+03 -0.49217570749E+02  0.33167633139E+03  0.00000000000E+00 0.  1.
         22    1    1    2    0    0  0.20424931138E+03 -0.57032238402E+03 -0.81915790440E+03  0.10188253409E+04  0.00000000000E+00 0.  1.
<mgrwt>
<rscale>  0 0.13565549E+04</rscale>
<asrwt>0</asrwt>
<pdfrwt beam="1">  1        2 0.19764215E+00 0.13565549E+04</pdfrwt>
<pdfrwt beam="2">  1       -2 0.55094528E-01 0.13565549E+04</pdfrwt>
<totfact> 0.51035594E+01</totfact>
</mgrwt>
</event>
<event>
 6    1  0.5040916E-004  0.2135463E+04  0.7818608E-02  0.8545781E-01
          2   -1    0    0  501    0  0.00000000000E+00  0.00000000000E+00  0.90744683947E+03  0.90744683947E+03  0.00000000000E+00 0.  1.
         -2   -1    0    0    0  501 -0.00000000000E+00 -0.00000000000E+00 -0.12563272752E+04  0.12563272752E+04  0.00000000000E+00 0. -1.
         23    2    1    2    0    0  0.98981810162E+03 -0.39062744733E+03 -0.23476339131E+03  0.10935627446E+04  0.91847425358E+02 0.  0.
         11    1    3    3    0    0  0.16394716525E+03 -0.74152261541E+02 -0.74393694653E+02  0.19470914896E+03  0.00000000000E+00 0. -1.
        -11    1    3    3    0    0  0.82587093637E+03 -0.31647518579E+03 -0.16036969666E+03  0.89885359562E+03  0.00000000000E+00 0.  1.
         22    1    1    2    0    0 -0.98981810162E+03  0.39062744733E+03 -0.11411704444E+03  0.10702113701E+04  0.00000000000E+00 0.  1.
<mgrwt>
<rscale>  0 0.21354627E+04</rscale>
<asrwt>0</asrwt>
<pdfrwt beam="1">  1        2 0.13960721E+00 0.21354627E+04</pdfrwt>
<pdfrwt beam="2">  1       -2 0.19328112E+00 0.21354627E+04</pdfrwt>
<totfact> 0.39230401E+00</totfact>
</mgrwt>
</event>
<event>
 6    1  0.5040916E-004  0.1647168E+04  0.7818608E-02  0.8792083E-01
          2   -1    0    0  501    0  0.00000000000E+00  0.00000000000E+00  0.10816489606E+04  0.10816489606E+04  0.00000000000E+00 0.  1.
         -2   -1    0    0    0  501 -0.00000000000E+00 -0.00000000000E+00 -0.62708960018E+03  0.62708960018E+03  0.00000000000E+00 0. -1.
         23    2    1    2    0    0  0.75850651027E+03  0.28597749510E+03  0.36554800415E+03  0.89323977142E+03  0.84478944650E+02 0.  0.
         11    1    3    3    0    0  0.58499114426E+03  0.25756637765E+03  0.28511660767E+03  0.69989038979E+03  0.00000000000E+00 0. -1.
        -11    1    3    3    0    0  0.17351536602E+03  0.28411117451E+02  0.80431396477E+02  0.19334938163E+03  0.00000000000E+00 0.  1.
         22    1    1    2    0    0 -0.75850651027E+03 -0.28597749510E+03  0.89011356223E+02  0.81549878931E+03  0.00000000000E+00 0.  1.
<mgrwt>
<rscale>  0 0.16471683E+04</rscale>
<asrwt>0</asrwt>
<pdfrwt beam="1">  1        2 0.16640753E+00 0.16471683E+04</pdfrwt>
<pdfrwt beam="2">  1       -2 0.96475323E-01 0.16471683E+04</pdfrwt>
<totfact> 0.19212907E+01</totfact>
</mgrwt>
</event>
<event>
 6    1  0.5040916E-004  0.1719832E+04  0.7818608E-02  0.8750134E-01
          2   -1    0    0  501    0  0.00000000000E+00  0.00000000000E+00  0.10440353237E+04  0.10440353237E+04  0.00000000000E+00 0.  1.
         -2   -1    0    0    0  501 -0.00000000000E+00 -0.00000000000E+00 -0.70826642931E+03  0.70826642931E+03  0.00000000000E+00 0. -1.
         23    2    1    2    0    0 -0.21258518225E+03 -0.72677447041E+03  0.57832508344E+03  0.95717465918E+03  0.91267932428E+02 0.  0.
         13    1    3    3    0    0 -0.11804711085E+03 -0.33355607835E+03  0.32163665161E+03  0.47816828987E+03  0.00000000000E+00 0. -1.
        -13    1    3    3    0    0 -0.94538071400E+02 -0.39321839207E+03  0.25668843183E+03  0.47900636931E+03  0.00000000000E+00 0.  1.
         22    1    1    2    0    0  0.21258518225E+03  0.72677447041E+03 -0.24255618901E+03  0.79512709386E+03  0.00000000000E+00 0. -1.
<mgrwt>
<rscale>  0 0.17198316E+04</rscale>
<asrwt>0</asrwt>
<pdfrwt beam="1">  1        2 0.16062082E+00 0.17198316E+04</pdfrwt>
<pdfrwt beam="2">  1       -2 0.10896407E+00 0.17198316E+04</pdfrwt>
<totfact> 0.15082904E+01</totfact>
</mgrwt>
</event>
<event>
 6    1  0.5040916E-004  0.3658531E+04  0.7818608E-02  0.8077214E-01
          2   -1    0    0  501    0  0.00000000000E+00  0.00000000000E+00  0.15140211326E+04  0.15140211326E+04  0.00000000000E+00 0.  1.
         -2   -1    0    0    0  501 -0.00000000000E+00 -0.00000000000E+00 -0.22101493511E+04  0.22101493511E+04  0.00000000000E+00 0. -1.
         23    2    1    2    0    0  0.52482600087E+03 -0.14410881937E+04 -0.13610286361E+04  0.20525634491E+04  0.91870838421E+02 0.  0.
         13    1    3    3    0    0  0.47773593056E+02 -0.17394643694E+03 -0.19583204565E+03  0.26625151496E+03  0.00000000000E+00 0.  1.
        -13    1    3    3    0    0  0.47705240781E+03 -0.12671417567E+04 -0.11651965905E+04  0.17863119341E+04  0.00000000000E+00 0. -1.
         22    1    1    2    0    0 -0.52482600087E+03  0.14410881937E+04  0.66490041765E+03  0.16716070347E+04  0.00000000000E+00 0.  1.
<mgrwt>
<rscale>  0 0.36585313E+04</rscale>
<asrwt>0</asrwt>
<pdfrwt beam="1">  1        2 0.23292633E+00 0.36585313E+04</pdfrwt>
<pdfrwt beam="2">  1       -2 0.34002298E+00 0.36585313E+04</pdfrwt>
<totfact> 0.18167688E-01</totfact>
</mgrwt>
</event>
<event>
 6    1  0.5966713E-004  0.2420876E+04  0.7818608E-02  0.8431729E-01
         -2   -1    0    0    0  501 -0.00000000000E+00  0.00000000000E+00  0.12974641827E+04  0.12974641827E+04  0.00000000000E+00 0. -1.
          2   -1    0    0  501    0  0.00000000000E+00 -0.00000000000E+00 -0.11292491858E+04  0.11292491858E+04  0.00000000000E+00 0.  1.
         23    2    1    2    0    0  0.15726508639E+03  0.10798344022E+04 -0.43696022118E+03  0.11789106244E+04  0.90118709826E+02 0.  0.
         11    1    3    3    0    0  0.80919526310E+02  0.41949429445E+03 -0.12883017986E+03  0.44622936709E+03  0.00000000000E+00 0. -1.
        -11    1    3    3    0    0  0.76345560084E+02  0.66034010779E+03 -0.30813004132E+03  0.73268125734E+03  0.00000000000E+00 0.  1.
         22    1    1    2    0    0 -0.15726508639E+03 -0.10798344022E+04  0.60517521809E+03  0.12478027441E+04  0.00000000000E+00 0. -1.
<mgrwt>
<rscale>  0 0.24208762E+04</rscale>
<asrwt>0</asrwt>
<pdfrwt beam="1">  1        2 0.17373064E+00 0.24208762E+04</pdfrwt>
<pdfrwt beam="2">  1       -2 0.19960987E+00 0.24208762E+04</pdfrwt>
<totfact> 0.25101699E+00</totfact>
</mgrwt>
</event>
<event>
 6    1  0.5328072E-004  0.3273720E+04  0.7818608E-02  0.8169615E-01
         -2   -1    0    0    0  501 -0.00000000000E+00  0.00000000000E+00  0.10548214678E+04  0.10548214678E+04  0.00000000000E+00 0.  1.
          2   -1    0    0  501    0  0.00000000000E+00 -0.00000000000E+00 -0.25400613419E+04  0.25400613419E+04  0.00000000000E+00 0. -1.
         23    2    1    2    0    0 -0.62499114311E+03 -0.57617329884E+03  0.79122484620E+03  0.11648866736E+04  0.91294061920E+02 0.  0.
         13    1    3    3    0    0 -0.49409742056E+03 -0.49792510397E+03  0.62807912089E+03  0.94156521402E+03  0.00000000000E+00 0.  1.
        -13    1    3    3    0    0 -0.13089372256E+03 -0.78248194877E+02  0.16314572531E+03  0.22332145955E+03  0.00000000000E+00 0. -1.
         22    1    1    2    0    0  0.62499114311E+03  0.57617329884E+03 -0.22764647202E+04  0.24299961361E+04  0.00000000000E+00 0. -1.
<mgrwt>
<rscale>  0 0.32737204E+04</rscale>
<asrwt>0</asrwt>
<pdfrwt beam="1">  1        2 0.39077866E+00 0.32737204E+04</pdfrwt>
<pdfrwt beam="2">  1       -2 0.16228023E+00 0.32737204E+04</pdfrwt>
<totfact> 0.66906941E-01</totfact>
</mgrwt>
</event>
<event>
 6    1  0.5040916E-004  0.2293430E+04  0.7818608E-02  0.8480516E-01
         -2   -1    0    0    0  501 -0.00000000000E+00  0.00000000000E+00  0.85700052329E+03  0.85700052329E+03  0.00000000000E+00 0. -1.
          2   -1    0    0  501    0  0.00000000000E+00 -0.00000000000E+00 -0.15343697968E+04  0.15343697968E+04  0.00000000000E+00 0.  1.
         23    2    1    2    0    0  0.80007124784E+03  0.43730359743E+02 -0.11918820919E+04  0.14391362175E+04  0.92215972313E+02 0.  0.
         11    1    3    3    0    0  0.18287130172E+03 -0.27681806362E+02 -0.28964932866E+03  0.34366397686E+03  0.00000000000E+00 0. -1.
        -11    1    3    3    0    0  0.61719994612E+03  0.71412166106E+02 -0.90223276322E+03  0.10954722406E+04  0.00000000000E+00 0.  1.
         22    1    1    2    0    0 -0.80007124784E+03 -0.43730359743E+02  0.51451281834E+03  0.95223410263E+03  0.00000000000E+00 0. -1.
<mgrwt>
<rscale>  0 0.22934304E+04</rscale>
<asrwt>0</asrwt>
<pdfrwt beam="1">  1        2 0.23605689E+00 0.22934304E+04</pdfrwt>
<pdfrwt beam="2">  1       -2 0.13184623E+00 0.22934304E+04</pdfrwt>
<totfact> 0.46150224E+00</totfact>
</mgrwt>
</event>
<event>
 6    1  0.5040916E-004  0.3601570E+04  0.7818608E-02  0.8090132E-01
          2   -1    0    0  501    0  0.00000000000E+00  0.00000000000E+00  0.22121426344E+04  0.22121426344E+04  0.00000000000E+00 0.  1.
         -2   -1    0    0    0  501 -0.00000000000E+00 -0.00000000000E+00 -0.14659213979E+04  0.14659213979E+04  0.00000000000E+00 0. -1.
         23    2    1    2    0    0 -0.87350413760E+02 -0.55447130017E+03  0.21195126948E+04  0.21944879653E+04  0.91514201071E+02 0.  0.
         11    1    3    3    0    0 -0.39783219526E+02 -0.22372157944E+03  0.69054301999E+03  0.72696885224E+03  0.00000000000E+00 0.  1.
        -11    1    3    3    0    0 -0.47567194235E+02 -0.33074972073E+03  0.14289696748E+04  0.14675191130E+04  0.00000000000E+00 0. -1.
         22    1    1    2    0    0  0.87350413760E+02  0.55447130017E+03 -0.13732914582E+04  0.14835760671E+04  0.00000000000E+00 0. -1.
<mgrwt>
<rscale>  0 0.36015703E+04</rscale>
<asrwt>0</asrwt>
<pdfrwt beam="1">  1        2 0.34032963E+00 0.36015703E+04</pdfrwt>
<pdfrwt beam="2">  1       -2 0.22552637E+00 0.36015703E+04</pdfrwt>
<totfact> 0.37782629E-01</totfact>
</mgrwt>
</event>
<event>
 6    1  0.5040916E-004  0.3832338E+04  0.7818608E-02  0.8039251E-01
          1   -1    0    0  501    0  0.00000000000E+00  0.00000000000E+00  0.15940366563E+04  0.15940366563E+04  0.00000000000E+00 0. -1.
         -1   -1    0    0    0  501 -0.00000000000E+00 -0.00000000000E+00 -0.23033991934E+04  0.23033991934E+04  0.00000000000E+00 0.  1.
         23    2    1    2    0    0  0.18469442095E+04 -0.22644620147E+03 -0.81553530052E+03  0.20336350420E+04  0.89960338960E+02 0.  0.
         13    1    3    3    0    0  0.17349740554E+03 -0.19579425391E+02 -0.48650773605E+02  0.18125010731E+03  0.00000000000E+00 0. -1.
        -13    1    3    3    0    0  0.16734468040E+04 -0.20686677608E+03 -0.76688452691E+03  0.18523849347E+04  0.00000000000E+00 0.  1.
         22    1    1    2    0    0 -0.18469442095E+04  0.22644620147E+03  0.10617276341E+03  0.18638008077E+04  0.00000000000E+00 0. -1.
<mgrwt>
<rscale>  0 0.38323375E+04</rscale>
<asrwt>0</asrwt>
<pdfrwt beam="1">  1        1 0.24523641E+00 0.38323375E+04</pdfrwt>
<pdfrwt beam="2">  1       -1 0.35436910E+00 0.38323375E+04</pdfrwt>
<totfact> 0.64935648E-02</totfact>
</mgrwt>
</event>
<event>
 6    1  0.5040916E-004  0.1427009E+04  0.7818608E-02  0.8934497E-01
          2   -1    0    0  501    0  0.00000000000E+00  0.00000000000E+00  0.23994320630E+04  0.23994320630E+04  0.00000000000E+00 0.  1.
         -2   -1    0    0    0  501 -0.00000000000E+00 -0.00000000000E+00 -0.21217058783E+03  0.21217058783E+03  0.00000000000E+00 0. -1.
         23    2    1    2    0    0  0.50421481621E+03 -0.40278318083E+03  0.55345809651E+03  0.85496371474E+03  0.90444553690E+02 0.  0.
         13    1    3    3    0    0  0.10084260659E+03 -0.13039300115E+03  0.14595097302E+03  0.22016642019E+03  0.00000000000E+00 0.  1.
        -13    1    3    3    0    0  0.40337220962E+03 -0.27239017967E+03  0.40750712349E+03  0.63479729455E+03  0.00000000000E+00 0. -1.
         22    1    1    2    0    0 -0.50421481621E+03  0.40278318083E+03  0.16338033786E+04  0.17566389361E+04  0.00000000000E+00 0.  1.
<mgrwt>
<rscale>  0 0.14270093E+04</rscale>
<asrwt>0</asrwt>
<pdfrwt beam="1">  1        2 0.36914337E+00 0.14270093E+04</pdfrwt>
<pdfrwt beam="2">  1       -2 0.32641631E-01 0.14270093E+04</pdfrwt>
<totfact> 0.33903843E+01</totfact>
</mgrwt>
</event>
<event>
 6    1  0.5040916E-004  0.1542812E+04  0.7818608E-02  0.8856472E-01
          2   -1    0    0  501    0  0.00000000000E+00  0.00000000000E+00  0.32636036208E+04  0.32636036208E+04  0.00000000000E+00 0.  1.
         -2   -1    0    0    0  501 -0.00000000000E+00 -0.00000000000E+00 -0.18233428941E+03  0.18233428941E+03  0.00000000000E+00 0. -1.
         23    2    1    2    0    0  0.68453210871E+03 -0.28072013588E+03  0.20149876784E+04  0.21481148999E+04  0.82669683432E+02 0.  0.
         11    1    3    3    0    0  0.16847239474E+03 -0.46094232585E+02  0.39819492718E+03  0.43481815291E+03  0.00000000000E+00 0. -1.
        -11    1    3    3    0    0  0.51605971397E+03 -0.23462590329E+03  0.16167927512E+04  0.17132967470E+04  0.00000000000E+00 0.  1.
         22    1    1    2    0    0 -0.68453210871E+03  0.28072013588E+03  0.10662816529E+04  0.12978230102E+04  0.00000000000E+00 0. -1.
<mgrwt>
<rscale>  0 0.15428115E+04</rscale>
<asrwt>0</asrwt>
<pdfrwt beam="1">  1        2 0.50209282E+00 0.15428115E+04</pdfrwt>
<pdfrwt beam="2">  1       -2 0.28051432E-01 0.15428115E+04</pdfrwt>
<totfact> 0.13306667E+01</totfact>
</mgrwt>
</event>
<event>
 6    1  0.5040916E-004  0.4271170E+04  0.7818608E-02  0.7951971E-01
          2   -1    0    0  501    0  0.00000000000E+00  0.00000000000E+00  0.19255966506E+04  0.19255966506E+04  0.00000000000E+00 0.  1.
         -2   -1    0    0    0  501 -0.00000000000E+00 -0.00000000000E+00 -0.23684731494E+04  0.23684731494E+04  0.00000000000E+00 0. -1.
         23    2    1    2    0    0  0.10320163877E+04 -0.13255949000E+04 -0.15455384260E+04  0.22845616540E+04  0.90957469983E+02 0.  0.
         13    1    3    3    0    0  0.91923829335E+03 -0.11514894096E+04 -0.13862206974E+04  0.20230014143E+04  0.00000000000E+00 0. -1.
        -13    1    3    3    0    0  0.11277809436E+03 -0.17410549034E+03 -0.15931772863E+03  0.26156023970E+03  0.00000000000E+00 0.  1.
         22    1    1    2    0    0 -0.10320163877E+04  0.13255949000E+04  0.11026619272E+04  0.20095081461E+04  0.00000000000E+00 0.  1.
<mgrwt>
<rscale>  0 0.42711703E+04</rscale>
<asrwt>0</asrwt>
<pdfrwt beam="1">  1        2 0.29624564E+00 0.42711703E+04</pdfrwt>
<pdfrwt beam="2">  1       -2 0.36438048E+00 0.42711703E+04</pdfrwt>
<totfact> 0.71517976E-02</totfact>
</mgrwt>
</event>
<event>
 6    1  0.5040916E-004  0.1274169E+04  0.7818608E-02  0.9050304E-01
         -2   -1    0    0    0  501 -0.00000000000E+00  0.00000000000E+00  0.50176013484E+03  0.50176013484E+03  0.00000000000E+00 0. -1.
          2   -1    0    0  501    0  0.00000000000E+00 -0.00000000000E+00 -0.80890537332E+03  0.80890537332E+03  0.00000000000E+00 0.  1.
         23    2    1    2    0    0 -0.24630707866E+03  0.35028316449E+03  0.32628916133E+03  0.54607109856E+03  0.91452477065E+02 0.  0.
         13    1    3    3    0    0 -0.23016542937E+03  0.26589609462E+03  0.25441876442E+03  0.43405732997E+03  0.00000000000E+00 0. -1.
        -13    1    3    3    0    0 -0.16141649297E+02  0.84387069871E+02  0.71870396906E+02  0.11201376860E+03  0.00000000000E+00 0.  1.
         22    1    1    2    0    0  0.24630707866E+03 -0.35028316449E+03 -0.63343439980E+03  0.76459440959E+03  0.00000000000E+00 0.  1.
<mgrwt>
<rscale>  0 0.12741687E+04</rscale>
<asrwt>0</asrwt>
<pdfrwt beam="1">  1        2 0.12444698E+00 0.12741687E+04</pdfrwt>
<pdfrwt beam="2">  1       -2 0.77193868E-01 0.12741687E+04</pdfrwt>
<totfact> 0.49927964E+01</totfact>
</mgrwt>
</event>
<event>
 6    1  0.5040916E-004  0.1907932E+04  0.7818608E-02  0.8650918E-01
          2   -1    0    0  501    0  0.00000000000E+00  0.00000000000E+00  0.17193223472E+04  0.17193223472E+04  0.00000000000E+00 0.  1.
         -2   -1    0    0    0  501 -0.00000000000E+00 -0.00000000000E+00 -0.52930795950E+03  0.52930795950E+03  0.00000000000E+00 0. -1.
         23    2    1    2    0    0  0.19037264697E+03  0.16149700410E+03  0.16791568735E+04  0.16994642130E+04  0.79295512829E+02 0.  0.
         11    1    3    3    0    0  0.10383684478E+03  0.53286413725E+02  0.96119342134E+03  0.96825323416E+03  0.00000000000E+00 0.  1.
        -11    1    3    3    0    0  0.86535802195E+02  0.10821059037E+03  0.71796345219E+03  0.73121097886E+03  0.00000000000E+00 0. -1.
         22    1    1    2    0    0 -0.19037264697E+03 -0.16149700410E+03 -0.48914248581E+03  0.54916609370E+03  0.00000000000E+00 0. -1.
<mgrwt>
<rscale>  0 0.19079319E+04</rscale>
<asrwt>0</asrwt>
<pdfrwt beam="1">  1        2 0.26451113E+00 0.19079319E+04</pdfrwt>
<pdfrwt beam="2">  1       -2 0.81431995E-01 0.19079319E+04</pdfrwt>
<totfact> 0.11891499E+01</totfact>
</mgrwt>
</event>
<event>
 6    1  0.5040916E-004  0.3217485E+04  0.7818608E-02  0.8184215E-01
          2   -1    0    0  501    0  0.00000000000E+00  0.00000000000E+00  0.18462203423E+04  0.18462203423E+04  0.00000000000E+00 0.  1.
         -2   -1    0    0    0  501 -0.00000000000E+00 -0.00000000000E+00 -0.14018115251E+04  0.14018115251E+04  0.00000000000E+00 0. -1.
         23    2    1    2    0    0 -0.15741052035E+04  0.13021271814E+03 -0.79012581160E+02  0.15840809956E+04  0.91143123197E+02 0.  0.
         13    1    3    3    0    0 -0.53573637361E+03  0.86083589337E+01 -0.23774271282E+01  0.53581080431E+03  0.00000000000E+00 0. -1.
        -13    1    3    3    0    0 -0.10383688299E+04  0.12160435921E+03 -0.76635154032E+02  0.10482701912E+04  0.00000000000E+00 0.  1.
         22    1    1    2    0    0  0.15741052035E+04 -0.13021271814E+03  0.52342139844E+03  0.16639508719E+04  0.00000000000E+00 0.  1.
<mgrwt>
<rscale>  0 0.32174853E+04</rscale>
<asrwt>0</asrwt>
<pdfrwt beam="1">  1        2 0.28403390E+00 0.32174853E+04</pdfrwt>
<pdfrwt beam="2">  1       -2 0.21566331E+00 0.32174853E+04</pdfrwt>
<totfact> 0.72036345E-01</totfact>
</mgrwt>
</event>
<event>
 6    1  0.5040916E-004  0.2518145E+04  0.7818608E-02  0.8396550E-01
         -2   -1    0    0    0  501 -0.00000000000E+00  0.00000000000E+00  0.64279478371E+03  0.64279478371E+03  0.00000000000E+00 0. -1.
          2   -1    0    0  501    0  0.00000000000E+00 -0.00000000000E+00 -0.24662053319E+04  0.24662053319E+04  0.00000000000E+00 0.  1.
         23    2    1    2    0    0  0.25375873663E+03  0.65498795707E+03  0.37475259654E+03  0.80133377683E+03  0.91069165714E+02 0.  0.
         11    1    3    3    0    0  0.13490197313E+03  0.39674989774E+03  0.17626475285E+03  0.45461883684E+03  0.00000000000E+00 0.  1.
        -11    1    3    3    0    0  0.11885676350E+03  0.25823805933E+03  0.19848784369E+03  0.34671493999E+03  0.00000000000E+00 0. -1.
         22    1    1    2    0    0 -0.25375873663E+03 -0.65498795707E+03 -0.21981631448E+04  0.23076663388E+04  0.00000000000E+00 0.  1.
<mgrwt>
<rscale>  0 0.25181453E+04</rscale>
<asrwt>0</asrwt>
<pdfrwt beam="1">  1        2 0.37941621E+00 0.25181453E+04</pdfrwt>
<pdfrwt beam="2">  1       -2 0.98891503E-01 0.25181453E+04</pdfrwt>
<totfact> 0.27498048E+00</totfact>
</mgrwt>
</event>
<event>
 6    1  0.5040916E-004  0.3392418E+04  0.7818608E-02  0.8139770E-01
          1   -1    0    0  501    0  0.00000000000E+00  0.00000000000E+00  0.18724810822E+04  0.18724810822E+04  0.00000000000E+00 0.  1.
         -1   -1    0    0    0  501 -0.00000000000E+00 -0.00000000000E+00 -0.15365305749E+04  0.15365305749E+04  0.00000000000E+00 0. -1.
         23    2    1    2    0    0  0.58606400071E+03  0.12099409578E+04 -0.86920496473E+03  0.16035123228E+04  0.91139258263E+02 0.  0.
         11    1    3    3    0    0  0.12850646428E+03  0.22718835453E+03 -0.13153075910E+03  0.29228205621E+03  0.00000000000E+00 0.  1.
        -11    1    3    3    0    0  0.45755753643E+03  0.98275260330E+03 -0.73767420563E+03  0.13112302666E+04  0.00000000000E+00 0. -1.
         22    1    1    2    0    0 -0.58606400071E+03 -0.12099409578E+04  0.12051554721E+04  0.18054993343E+04  0.00000000000E+00 0.  1.
<mgrwt>
<rscale>  0 0.33924177E+04</rscale>
<asrwt>0</asrwt>
<pdfrwt beam="1">  1        1 0.28807401E+00 0.33924177E+04</pdfrwt>
<pdfrwt beam="2">  1       -1 0.23638932E+00 0.33924177E+04</pdfrwt>
<totfact> 0.25643632E-01</totfact>
</mgrwt>
</event>
<event>
 6    1  0.5040916E-004  0.2339539E+04  0.7818608E-02  0.8462492E-01
         -2   -1    0    0    0  501 -0.00000000000E+00  0.00000000000E+00  0.12207591542E+04  0.12207591542E+04  0.00000000000E+00 0. -1.
          2   -1    0    0  501    0  0.00000000000E+00 -0.00000000000E+00 -0.11209100002E+04  0.11209100002E+04  0.00000000000E+00 0.  1.
         23    2    1    2    0    0 -0.22521345429E+03 -0.27470864039E+03 -0.10636368607E+04  0.11251636494E+04  0.92108248054E+02 0.  0.
         13    1    3    3    0    0 -0.17824302648E+03 -0.26425181167E+03 -0.93305766497E+03  0.98600010274E+03  0.00000000000E+00 0. -1.
        -13    1    3    3    0    0 -0.46970427809E+02 -0.10456828726E+02 -0.13057919575E+03  0.13916354666E+03  0.00000000000E+00 0.  1.
         22    1    1    2    0    0  0.22521345429E+03  0.27470864039E+03  0.11634860147E+04  0.12165055049E+04  0.00000000000E+00 0. -1.
<mgrwt>
<rscale>  0 0.23395394E+04</rscale>
<asrwt>0</asrwt>
<pdfrwt beam="1">  1        2 0.17244769E+00 0.23395394E+04</pdfrwt>
<pdfrwt beam="2">  1       -2 0.18780910E+00 0.23395394E+04</pdfrwt>
<totfact> 0.30646605E+00</totfact>
</mgrwt>
</event>
<event>
 6    1  0.5040916E-004  0.2061048E+04  0.7818608E-02  0.8578599E-01
          1   -1    0    0  501    0  0.00000000000E+00  0.00000000000E+00  0.10750320959E+04  0.10750320959E+04  0.00000000000E+00 0.  1.
         -1   -1    0    0    0  501 -0.00000000000E+00 -0.00000000000E+00 -0.98785893263E+03  0.98785893263E+03  0.00000000000E+00 0. -1.
         23    2    1    2    0    0  0.72244288745E+03  0.46199897834E+03 -0.52441451361E+03  0.10096074636E+04  0.94497972913E+02 0.  0.
         11    1    3    3    0    0  0.49519970211E+03  0.26497688797E+03 -0.35474898546E+03  0.66429085408E+03  0.00000000000E+00 0.  1.
        -11    1    3    3    0    0  0.22724318534E+03  0.19702209037E+03 -0.16966552815E+03  0.34531660953E+03  0.00000000000E+00 0. -1.
         22    1    1    2    0    0 -0.72244288745E+03 -0.46199897834E+03  0.61158767686E+03  0.10532835649E+04  0.00000000000E+00 0.  1.
<mgrwt>
<rscale>  0 0.20610483E+04</rscale>
<asrwt>0</asrwt>
<pdfrwt beam="1">  1        1 0.16538955E+00 0.20610483E+04</pdfrwt>
<pdfrwt beam="2">  1       -1 0.15197830E+00 0.20610483E+04</pdfrwt>
<totfact> 0.41153944E+00</totfact>
</mgrwt>
</event>
<event>
 6    1  0.5040916E-004  0.3279042E+04  0.7818608E-02  0.8168249E-01
          2   -1    0    0  501    0  0.00000000000E+00  0.00000000000E+00  0.15311018563E+04  0.15311018563E+04  0.00000000000E+00 0.  1.
         -2   -1    0    0    0  501 -0.00000000000E+00 -0.00000000000E+00 -0.17556169789E+04  0.17556169789E+04  0.00000000000E+00 0. -1.
         23    2    1    2    0    0  0.47783412769E+03  0.15477619721E+04 -0.35793970333E+03  0.16613897317E+04  0.90567288350E+02 0.  0.
         11    1    3    3    0    0  0.21701815374E+03  0.67022150824E+03 -0.11082513920E+03  0.71314511892E+03  0.00000000000E+00 0.  1.
        -11    1    3    3    0    0  0.26081597395E+03  0.87754046384E+03 -0.24711456413E+03  0.94824461283E+03  0.00000000000E+00 0. -1.
         22    1    1    2    0    0 -0.47783412769E+03 -0.15477619721E+04  0.13342458070E+03  0.16253291035E+04  0.00000000000E+00 0. -1.
<mgrwt>
<rscale>  0 0.32790416E+04</rscale>
<asrwt>0</asrwt>
<pdfrwt beam="1">  1        2 0.23555413E+00 0.32790416E+04</pdfrwt>
<pdfrwt beam="2">  1       -2 0.27009492E+00 0.32790416E+04</pdfrwt>
<totfact> 0.49367043E-01</totfact>
</mgrwt>
</event>
<event>
 6    1  0.5040916E-004  0.6820324E+04  0.7818608E-02  0.7596255E-01
         -2   -1    0    0    0  501 -0.00000000000E+00  0.00000000000E+00  0.49247844312E+04  0.49247844312E+04  0.00000000000E+00 0. -1.
          2   -1    0    0  501    0  0.00000000000E+00 -0.00000000000E+00 -0.23613631752E+04  0.23613631752E+04  0.00000000000E+00 0.  1.
         23    2    1    2    0    0  0.11877076043E+04  0.10347052695E+04 -0.19483469852E+04  0.25073070556E+04  0.96272262236E+02 0.  0.
         11    1    3    3    0    0  0.58239100610E+03  0.44416086106E+03 -0.91352851417E+03  0.11708938896E+04  0.00000000000E+00 0. -1.
        -11    1    3    3    0    0  0.60531659821E+03  0.59054440845E+03 -0.10348184710E+04  0.13364131660E+04  0.00000000000E+00 0.  1.
         22    1    1    2    0    0 -0.11877076043E+04 -0.10347052695E+04  0.45117682412E+04  0.47788405508E+04  0.00000000000E+00 0. -1.
<mgrwt>
<rscale>  0 0.68203239E+04</rscale>
<asrwt>0</asrwt>
<pdfrwt beam="1">  1        2 0.36328664E+00 0.68203239E+04</pdfrwt>
<pdfrwt beam="2">  1       -2 0.75765914E+00 0.68203239E+04</pdfrwt>
<totfact> 0.35516726E-04</totfact>
</mgrwt>
</event>
<event>
 6    1  0.5040916E-004  0.1530072E+04  0.7818608E-02  0.8864698E-01
         -2   -1    0    0    0  501 -0.00000000000E+00  0.00000000000E+00  0.69630207440E+03  0.69630207440E+03  0.00000000000E+00 0. -1.
          2   -1    0    0  501    0  0.00000000000E+00 -0.00000000000E+00 -0.84055533940E+03  0.84055533940E+03  0.00000000000E+00 0.  1.
         23    2    1    2    0    0 -0.41982411848E+03  0.24869229142E+03  0.51583248765E+03  0.71599606916E+03  0.92016680365E+02 0.  0.
         13    1    3    3    0    0 -0.16176516809E+03  0.13601529100E+03  0.17897748789E+03  0.27694958054E+03  0.00000000000E+00 0.  1.
        -13    1    3    3    0    0 -0.25805895040E+03  0.11267700042E+03  0.33685499976E+03  0.43904648861E+03  0.00000000000E+00 0. -1.
         22    1    1    2    0    0  0.41982411848E+03 -0.24869229142E+03 -0.66008575265E+03  0.82086134464E+03  0.00000000000E+00 0.  1.
<mgrwt>
<rscale>  0 0.15300725E+04</rscale>
<asrwt>0</asrwt>
<pdfrwt beam="1">  1        2 0.12931621E+00 0.15300725E+04</pdfrwt>
<pdfrwt beam="2">  1       -2 0.10712340E+00 0.15300725E+04</pdfrwt>
<totfact> 0.21765085E+01</totfact>
</mgrwt>
</event>
<event>
 6    1  0.5040916E-004  0.4697336E+04  0.7818608E-02  0.7876971E-01
          2   -1    0    0  501    0  0.00000000000E+00  0.00000000000E+00  0.17210527346E+04  0.17210527346E+04  0.00000000000E+00 0.  1.
         -2   -1    0    0    0  501 -0.00000000000E+00 -0.00000000000E+00 -0.32051550885E+04  0.32051550885E+04  0.00000000000E+00 0. -1.
         23    2    1    2    0    0 -0.19885494391E+04  0.10761350943E+04 -0.79185682418E+02  0.22642186295E+04  0.89554548165E+02 0.  0.
         11    1    3    3    0    0 -0.90743734583E+03  0.44767553507E+03 -0.12471994101E+02  0.10119345196E+04  0.00000000000E+00 0.  1.
        -11    1    3    3    0    0 -0.10811120932E+04  0.62845955918E+03 -0.66713688316E+02  0.12522841099E+04  0.00000000000E+00 0. -1.
         22    1    1    2    0    0  0.19885494391E+04 -0.10761350943E+04 -0.14049166715E+04  0.26619891935E+04  0.00000000000E+00 0. -1.
<mgrwt>
<rscale>  0 0.46973358E+04</rscale>
<asrwt>0</asrwt>
<pdfrwt beam="1">  1        2 0.26477734E+00 0.46973358E+04</pdfrwt>
<pdfrwt beam="2">  1       -2 0.49310079E+00 0.46973358E+04</pdfrwt>
<totfact> 0.13028458E-02</totfact>
</mgrwt>
</event>
<event>
 6    1  0.5040916E-004  0.1622861E+04  0.7818608E-02  0.8806626E-01
         -2   -1    0    0    0  501 -0.00000000000E+00  0.00000000000E+00  0.37388713105E+03  0.37388713105E+03  0.00000000000E+00 0. -1.
          2   -1    0    0  501    0  0.00000000000E+00 -0.00000000000E+00 -0.17610108550E+04  0.17610108550E+04  0.00000000000E+00 0.  1.
         23    2    1    2    0    0  0.15770389220E+03 -0.72984165828E+03 -0.11049831538E+04  0.13366858181E+04  0.90564023052E+02 0.  0.
         11    1    3    3    0    0  0.27757732242E+02 -0.10072509651E+03 -0.21540251273E+03  0.23940400844E+03  0.00000000000E+00 0. -1.
        -11    1    3    3    0    0  0.12994615996E+03 -0.62911656177E+03 -0.88958064106E+03  0.10972818096E+04  0.00000000000E+00 0.  1.
         22    1    1    2    0    0 -0.15770389220E+03  0.72984165828E+03 -0.28214057014E+03  0.79821216797E+03  0.00000000000E+00 0. -1.
<mgrwt>
<rscale>  0 0.16228608E+04</rscale>
<asrwt>0</asrwt>
<pdfrwt beam="1">  1        2 0.27092474E+00 0.16228608E+04</pdfrwt>
<pdfrwt beam="2">  1       -2 0.57521099E-01 0.16228608E+04</pdfrwt>
<totfact> 0.24576064E+01</totfact>
</mgrwt>
</event>
<event>
 6    1  0.5040916E-004  0.4426637E+04  0.7818608E-02  0.7923608E-01
         -2   -1    0    0    0  501 -0.00000000000E+00  0.00000000000E+00  0.16926539804E+04  0.16926539804E+04  0.00000000000E+00 0. -1.
          2   -1    0    0  501    0  0.00000000000E+00 -0.00000000000E+00 -0.28941409796E+04  0.28941409796E+04  0.00000000000E+00 0.  1.
         23    2    1    2    0    0  0.87814704107E+03 -0.48488813896E+03  0.14422827606E+04  0.17591144130E+04  0.89695169266E+02 0.  0.
         13    1    3    3    0    0  0.32988157178E+03 -0.13324356880E+03  0.51282511859E+03  0.62415166609E+03  0.00000000000E+00 0.  1.
        -13    1    3    3    0    0  0.54826546929E+03 -0.35164457016E+03  0.92945764205E+03  0.11349627469E+04  0.00000000000E+00 0. -1.
         22    1    1    2    0    0 -0.87814704107E+03  0.48488813896E+03 -0.26437697598E+04  0.28276805470E+04  0.00000000000E+00 0.  1.
<mgrwt>
<rscale>  0 0.44266372E+04</rscale>
<asrwt>0</asrwt>
<pdfrwt beam="1">  1        2 0.44525245E+00 0.44266372E+04</pdfrwt>
<pdfrwt beam="2">  1       -2 0.26040831E+00 0.44266372E+04</pdfrwt>
<totfact> 0.85624338E-02</totfact>
</mgrwt>
</event>
<event>
 6    1  0.5040916E-004  0.3202006E+04  0.7818608E-02  0.8188288E-01
         -2   -1    0    0    0  501 -0.00000000000E+00  0.00000000000E+00  0.63958444829E+03  0.63958444829E+03  0.00000000000E+00 0. -1.
          2   -1    0    0  501    0  0.00000000000E+00 -0.00000000000E+00 -0.40076182249E+04  0.40076182249E+04  0.00000000000E+00 0.  1.
         23    2    1    2    0    0 -0.88976758522E+03 -0.33710475525E+02  0.24349700939E+03  0.92752830975E+03  0.90527453976E+02 0.  0.
         11    1    3    3    0    0 -0.37532653767E+03 -0.48893581338E+02  0.13258569106E+03  0.40104807399E+03  0.00000000000E+00 0. -1.
        -11    1    3    3    0    0 -0.51444104755E+03  0.15183105813E+02  0.11091131833E+03  0.52648023576E+03  0.00000000000E+00 0.  1.
         22    1    1    2    0    0  0.88976758522E+03  0.33710475525E+02 -0.36115307860E+04  0.37196743635E+04  0.00000000000E+00 0.  1.
<mgrwt>
<rscale>  0 0.32020058E+04</rscale>
<asrwt>0</asrwt>
<pdfrwt beam="1">  1        2 0.61655665E+00 0.32020058E+04</pdfrwt>
<pdfrwt beam="2">  1       -2 0.98397608E-01 0.32020058E+04</pdfrwt>
<totfact> 0.24328097E-01</totfact>
</mgrwt>
</event>
<event>
 6    1  0.5040916E-004  0.2255847E+03  0.7818608E-02  0.1129787E+00
         -2   -1    0    0    0  501 -0.00000000000E+00  0.00000000000E+00  0.74755270674E+01  0.74755270674E+01  0.00000000000E+00 0. -1.
          2   -1    0    0  501    0  0.00000000000E+00 -0.00000000000E+00 -0.17018358210E+04  0.17018358210E+04  0.00000000000E+00 0.  1.
         23    2    1    2    0    0 -0.10008234054E+02  0.15762035294E+02 -0.16863854965E+04  0.16890085429E+04  0.92223687136E+02 0.  0.
         11    1    3    3    0    0 -0.23939497766E+02 -0.28291795036E+02 -0.37921175926E+03  0.38101848194E+03  0.00000000000E+00 0.  1.
        -11    1    3    3    0    0  0.13931263712E+02  0.44053830329E+02 -0.13071737373E+04  0.13079900609E+04  0.00000000000E+00 0. -1.
         22    1    1    2    0    0  0.10008234054E+02 -0.15762035294E+02 -0.79747974079E+01  0.20302805205E+02  0.00000000000E+00 0. -1.
<mgrwt>
<rscale>  0 0.22558475E+03</rscale>
<asrwt>0</asrwt>
<pdfrwt beam="1">  1        2 0.26182059E+00 0.22558475E+03</pdfrwt>
<pdfrwt beam="2">  1       -2 0.11500824E-02 0.22558475E+03</pdfrwt>
<totfact> 0.18403253E+04</totfact>
</mgrwt>
</event>
<event>
 6    1  0.5040916E-004  0.1418573E+04  0.7818608E-02  0.8940483E-01
          2   -1    0    0  501    0  0.00000000000E+00  0.00000000000E+00  0.15413721186E+04  0.15413721186E+04  0.00000000000E+00 0.  1.
         -2   -1    0    0    0  501 -0.00000000000E+00 -0.00000000000E+00 -0.32638929160E+03  0.32638929160E+03  0.00000000000E+00 0. -1.
         23    2    1    2    0    0 -0.20450825540E+03  0.61158156009E+03  0.98986386450E+03  0.11847283375E+04  0.88854556371E+02 0.  0.
         13    1    3    3    0    0 -0.19929956797E+03  0.49155208327E+03  0.79054675793E+03  0.95200207187E+03  0.00000000000E+00 0. -1.
        -13    1    3    3    0    0 -0.52086874298E+01  0.12002947682E+03  0.19931710657E+03  0.23272626560E+03  0.00000000000E+00 0.  1.
         22    1    1    2    0    0  0.20450825540E+03 -0.61158156009E+03  0.22511896250E+03  0.68303307274E+03  0.00000000000E+00 0. -1.
<mgrwt>
<rscale>  0 0.14185730E+04</rscale>
<asrwt>0</asrwt>
<pdfrwt beam="1">  1        2 0.23713417E+00 0.14185730E+04</pdfrwt>
<pdfrwt beam="2">  1       -2 0.50213738E-01 0.14185730E+04</pdfrwt>
<totfact> 0.43855861E+01</totfact>
</mgrwt>
</event>
<event>
 6    1  0.5040916E-004  0.3255255E+04  0.7818608E-02  0.8174375E-01
          2   -1    0    0  501    0  0.00000000000E+00  0.00000000000E+00  0.18608634533E+04  0.18608634533E+04  0.00000000000E+00 0. -1.
         -2   -1    0    0    0  501 -0.00000000000E+00 -0.00000000000E+00 -0.14236250244E+04  0.14236250244E+04  0.00000000000E+00 0.  1.
         23    2    1    2    0    0 -0.16537846657E+03  0.37909850040E+03  0.18059773118E+04  0.18546242044E+04  0.83732779741E+02 0.  0.
         11    1    3    3    0    0 -0.12588519730E+03  0.32556177394E+03  0.16179760283E+04  0.16551990756E+04  0.00000000000E+00 0.  1.
        -11    1    3    3    0    0 -0.39493269277E+02  0.53536726464E+02  0.18800128352E+03  0.19942512882E+03  0.00000000000E+00 0. -1.
         22    1    1    2    0    0  0.16537846657E+03 -0.37909850040E+03 -0.13687388830E+04  0.14298642733E+04  0.00000000000E+00 0.  1.
<mgrwt>
<rscale>  0 0.32552553E+04</rscale>
<asrwt>0</asrwt>
<pdfrwt beam="1">  1        2 0.28628668E+00 0.32552553E+04</pdfrwt>
<pdfrwt beam="2">  1       -2 0.21901924E+00 0.32552553E+04</pdfrwt>
<totfact> 0.67098190E-01</totfact>
</mgrwt>
</event>
<event>
 6    1  0.5040916E-004  0.3619872E+04  0.7818608E-02  0.8085955E-01
         -2   -1    0    0    0  501 -0.00000000000E+00  0.00000000000E+00  0.24962669337E+04  0.24962669337E+04  0.00000000000E+00 0. -1.
          2   -1    0    0  501    0  0.00000000000E+00 -0.00000000000E+00 -0.13123067173E+04  0.13123067173E+04  0.00000000000E+00 0.  1.
         23    2    1    2    0    0  0.40744911395E+03  0.15783127175E+04 -0.23246937517E+03  0.16490925553E+04  0.91533769199E+02 0.  0.
         13    1    3    3    0    0  0.39604849520E+03  0.14503700670E+04 -0.22713585515E+03  0.15205322879E+04  0.00000000000E+00 0. -1.
        -13    1    3    3    0    0  0.11400618748E+02  0.12794265048E+03 -0.53335200130E+01  0.12856026741E+03  0.00000000000E+00 0.  1.
         22    1    1    2    0    0 -0.40744911395E+03 -0.15783127175E+04  0.14164295916E+04  0.21594810957E+04  0.00000000000E+00 0.  1.
<mgrwt>
<rscale>  0 0.36198717E+04</rscale>
<asrwt>0</asrwt>
<pdfrwt beam="1">  1        2 0.20189334E+00 0.36198717E+04</pdfrwt>
<pdfrwt beam="2">  1       -2 0.38404107E+00 0.36198717E+04</pdfrwt>
<totfact> 0.12465592E-01</totfact>
</mgrwt>
</event>
<event>
 6    1  0.5328638E-004  0.3194486E+04  0.7818608E-02  0.8190275E-01
         -2   -1    0    0    0  501 -0.00000000000E+00  0.00000000000E+00  0.15387684045E+04  0.15387684045E+04  0.00000000000E+00 0. -1.
          2   -1    0    0  501    0  0.00000000000E+00 -0.00000000000E+00 -0.16579394494E+04  0.16579394494E+04  0.00000000000E+00 0.  1.
         23    2    1    2    0    0  0.14522795435E+03  0.11777594925E+04 -0.11274681172E+04  0.16395079416E+04  0.92700346774E+02 0.  0.
         11    1    3    3    0    0  0.11711438246E+03  0.58058336657E+03 -0.54685680316E+03  0.80612975834E+03  0.00000000000E+00 0.  1.
        -11    1    3    3    0    0  0.28113571887E+02  0.59717612595E+03 -0.58061131406E+03  0.83337818326E+03  0.00000000000E+00 0. -1.
         22    1    1    2    0    0 -0.14522795435E+03 -0.11777594925E+04  0.10082970722E+04  0.15571999123E+04  0.00000000000E+00 0. -1.
<mgrwt>
<rscale>  0 0.31944858E+04</rscale>
<asrwt>0</asrwt>
<pdfrwt beam="1">  1        2 0.25506761E+00 0.31944858E+04</pdfrwt>
<pdfrwt beam="2">  1       -2 0.23673360E+00 0.31944858E+04</pdfrwt>
<totfact> 0.67683512E-01</totfact>
</mgrwt>
</event>
<event>
 6    1  0.5040916E-004  0.3465100E+04  0.7818608E-02  0.8122111E-01
          2   -1    0    0  501    0  0.00000000000E+00  0.00000000000E+00  0.29309680706E+04  0.29309680706E+04  0.00000000000E+00 0.  1.
         -2   -1    0    0    0  501 -0.00000000000E+00 -0.00000000000E+00 -0.10241428600E+04  0.10241428600E+04  0.00000000000E+00 0. -1.
         23    2    1    2    0    0  0.39329981289E+03 -0.11764575972E+04  0.23327219854E+04  0.26435754627E+04  0.90344591169E+02 0.  0.
         11    1    3    3    0    0  0.18369012989E+02 -0.86391425917E+02  0.12547175565E+03  0.15344073962E+03  0.00000000000E+00 0.  1.
        -11    1    3    3    0    0  0.37493079991E+03 -0.10900661712E+04  0.22072502298E+04  0.24901347231E+04  0.00000000000E+00 0. -1.
         22    1    1    2    0    0 -0.39329981289E+03  0.11764575972E+04 -0.42589677480E+03  0.13115354679E+04  0.00000000000E+00 0. -1.
<mgrwt>
<rscale>  0 0.34651003E+04</rscale>
<asrwt>0</asrwt>
<pdfrwt beam="1">  1        2 0.45091816E+00 0.34651003E+04</pdfrwt>
<pdfrwt beam="2">  1       -2 0.15756044E+00 0.34651003E+04</pdfrwt>
<totfact> 0.41582185E-01</totfact>
</mgrwt>
</event>
<event>
 6    1  0.5040916E-004  0.7973392E+03  0.7818608E-02  0.9563877E-01
         -2   -1    0    0    0  501 -0.00000000000E+00  0.00000000000E+00  0.34648268094E+03  0.34648268094E+03  0.00000000000E+00 0. -1.
          2   -1    0    0  501    0  0.00000000000E+00 -0.00000000000E+00 -0.45871687185E+03  0.45871687185E+03  0.00000000000E+00 0.  1.
         23    2    1    2    0    0  0.34596396923E+03 -0.13256614852E+03 -0.19039640873E+03  0.42655171636E+03  0.91818966063E+02 0.  0.
         13    1    3    3    0    0  0.25337519927E+03 -0.83466396863E+02 -0.90324686890E+02  0.28164548651E+03  0.00000000000E+00 0. -1.
        -13    1    3    3    0    0  0.92588769963E+02 -0.49099751653E+02 -0.10007172184E+03  0.14490622985E+03  0.00000000000E+00 0.  1.
         22    1    1    2    0    0 -0.34596396923E+03  0.13256614852E+03  0.78162217818E+02  0.37864783643E+03  0.00000000000E+00 0. -1.
<mgrwt>
<rscale>  0 0.79733920E+03</rscale>
<asrwt>0</asrwt>
<pdfrwt beam="1">  1        2 0.70571826E-01 0.79733920E+03</pdfrwt>
<pdfrwt beam="2">  1       -2 0.53305028E-01 0.79733920E+03</pdfrwt>
<totfact> 0.22738332E+02</totfact>
</mgrwt>
</event>
<event>
 6    1  0.5040916E-004  0.8839940E+03  0.7818608E-02  0.9445814E-01
          2   -1    0    0  501    0  0.00000000000E+00  0.00000000000E+00  0.13478473953E+04  0.13478473953E+04  0.00000000000E+00 0.  1.
         -2   -1    0    0    0  501 -0.00000000000E+00 -0.00000000000E+00 -0.14494321509E+03  0.14494321509E+03  0.00000000000E+00 0. -1.
         23    2    1    2    0    0  0.30826460150E+03  0.30743105413E+03  0.53827478765E+03  0.69826361460E+03  0.91057184629E+02 0.  0.
         11    1    3    3    0    0  0.19692504784E+03  0.25167897031E+03  0.36937406811E+03  0.48842500013E+03  0.00000000000E+00 0.  1.
        -11    1    3    3    0    0  0.11133955366E+03  0.55752083817E+02  0.16890071955E+03  0.20983861447E+03  0.00000000000E+00 0. -1.
         22    1    1    2    0    0 -0.30826460150E+03 -0.30743105413E+03  0.66462939253E+03  0.79452699577E+03  0.00000000000E+00 0. -1.
<mgrwt>
<rscale>  0 0.88399397E+03</rscale>
<asrwt>0</asrwt>
<pdfrwt beam="1">  1        2 0.20736113E+00 0.88399397E+03</pdfrwt>
<pdfrwt beam="2">  1       -2 0.22298957E-01 0.88399397E+03</pdfrwt>
<totfact> 0.27392711E+02</totfact>
</mgrwt>
</event>
<event>
 6    1  0.5040916E-004  0.1547846E+04  0.7818608E-02  0.8853245E-01
         -2   -1    0    0    0  501 -0.00000000000E+00  0.00000000000E+00  0.14570619306E+03  0.14570619306E+03  0.00000000000E+00 0. -1.
          2   -1    0    0  501    0  0.00000000000E+00 -0.00000000000E+00 -0.41107159709E+04  0.41107159709E+04  0.00000000000E+00 0.  1.
         23    2    1    2    0    0 -0.45742563597E+03  0.48733637636E+03 -0.30474927807E+04  0.31212691363E+04  0.91508560269E+02 0.  0.
         11    1    3    3    0    0 -0.42450520812E+03  0.42192145420E+03 -0.26149356478E+04  0.26825567706E+04  0.00000000000E+00 0. -1.
        -11    1    3    3    0    0 -0.32920427850E+02  0.65414922168E+02 -0.43255713288E+03  0.43871236570E+03  0.00000000000E+00 0.  1.
         22    1    1    2    0    0  0.45742563597E+03 -0.48733637636E+03 -0.91751699718E+03  0.11351530277E+04  0.00000000000E+00 0.  1.
<mgrwt>
<rscale>  0 0.15478460E+04</rscale>
<asrwt>0</asrwt>
<pdfrwt beam="1">  1        2 0.63241780E+00 0.15478460E+04</pdfrwt>
<pdfrwt beam="2">  1       -2 0.22416339E-01 0.15478460E+04</pdfrwt>
<totfact> 0.47741062E+00</totfact>
</mgrwt>
</event>
<event>
 6    1  0.5040916E-004  0.1205199E+04  0.7818608E-02  0.9108318E-01
         -2   -1    0    0    0  501 -0.00000000000E+00  0.00000000000E+00  0.34115945236E+03  0.34115945236E+03  0.00000000000E+00 0. -1.
          2   -1    0    0  501    0  0.00000000000E+00 -0.00000000000E+00 -0.10643876221E+04  0.10643876221E+04  0.00000000000E+00 0.  1.
         23    2    1    2    0    0  0.21536652322E+03  0.42498102550E+03  0.60344374280E+02  0.48849879706E+03  0.89431649123E+02 0.  0.
         13    1    3    3    0    0  0.12593937514E+03  0.25849885344E+03  0.80087166756E+02  0.29849009652E+03  0.00000000000E+00 0. -1.
        -13    1    3    3    0    0  0.89427148080E+02  0.16648217206E+03 -0.19742792476E+02  0.19000870055E+03  0.00000000000E+00 0.  1.
         22    1    1    2    0    0 -0.21536652322E+03 -0.42498102550E+03 -0.78357254405E+03  0.91704827743E+03  0.00000000000E+00 0.  1.
<mgrwt>
<rscale>  0 0.12051986E+04</rscale>
<asrwt>0</asrwt>
<pdfrwt beam="1">  1        2 0.16375194E+00 0.12051986E+04</pdfrwt>
<pdfrwt beam="2">  1       -2 0.52486069E-01 0.12051986E+04</pdfrwt>
<totfact> 0.77456031E+01</totfact>
</mgrwt>
</event>
<event>
 6    1  0.5040916E-004  0.1734290E+04  0.7818608E-02  0.8742046E-01
          2   -1    0    0  501    0  0.00000000000E+00  0.00000000000E+00  0.59148947652E+03  0.59148947652E+03  0.00000000000E+00 0.  1.
         -2   -1    0    0    0  501 -0.00000000000E+00 -0.00000000000E+00 -0.12712656441E+04  0.12712656441E+04  0.00000000000E+00 0. -1.
         23    2    1    2    0    0  0.65701740915E+03 -0.13267024342E+03  0.24583478799E+03  0.71993890157E+03  0.92757800700E+02 0.  0.
         11    1    3    3    0    0  0.23054819635E+03 -0.72114575705E+01  0.10661256182E+03  0.25410768248E+03  0.00000000000E+00 0.  1.
        -11    1    3    3    0    0  0.42646921281E+03 -0.12545878585E+03  0.13922222617E+03  0.46583121909E+03  0.00000000000E+00 0. -1.
         22    1    1    2    0    0 -0.65701740915E+03  0.13267024342E+03 -0.92561095553E+03  0.11428162190E+04  0.00000000000E+00 0. -1.
<mgrwt>
<rscale>  0 0.17342898E+04</rscale>
<asrwt>0</asrwt>
<pdfrwt beam="1">  1        2 0.90998382E-01 0.17342898E+04</pdfrwt>
<pdfrwt beam="2">  1       -2 0.19557933E+00 0.17342898E+04</pdfrwt>
<totfact> 0.68059482E+00</totfact>
</mgrwt>
</event>
<event>
 6    1  0.5040916E-004  0.2368114E+04  0.7818608E-02  0.8451539E-01
          2   -1    0    0  501    0  0.00000000000E+00  0.00000000000E+00  0.32623991349E+04  0.32623991349E+04  0.00000000000E+00 0.  1.
         -2   -1    0    0    0  501 -0.00000000000E+00 -0.00000000000E+00 -0.42974226342E+03  0.42974226342E+03  0.00000000000E+00 0. -1.
         23    2    1    2    0    0 -0.23382364212E+03  0.11355202927E+04  0.17799284789E+04  0.21261538826E+04  0.91132386832E+02 0.  0.
         11    1    3    3    0    0 -0.16810927391E+03  0.60402464155E+03  0.98757534121E+03  0.11697912421E+04  0.00000000000E+00 0. -1.
        -11    1    3    3    0    0 -0.65714368212E+02  0.53149565115E+03  0.79235313766E+03  0.95636264050E+03  0.00000000000E+00 0.  1.
         22    1    1    2    0    0  0.23382364212E+03 -0.11355202927E+04  0.10527283926E+04  0.15659875157E+04  0.00000000000E+00 0.  1.
<mgrwt>
<rscale>  0 0.23681138E+04</rscale>
<asrwt>0</asrwt>
<pdfrwt beam="1">  1        2 0.50190754E+00 0.23681138E+04</pdfrwt>
<pdfrwt beam="2">  1       -2 0.66114196E-01 0.23681138E+04</pdfrwt>
<totfact> 0.22416026E+00</totfact>
</mgrwt>
</event>
<event>
 6    1  0.5040916E-004  0.1502302E+04  0.7818608E-02  0.8882924E-01
         -2   -1    0    0    0  501 -0.00000000000E+00  0.00000000000E+00  0.66869850103E+03  0.66869850103E+03  0.00000000000E+00 0. -1.
          2   -1    0    0  501    0  0.00000000000E+00 -0.00000000000E+00 -0.84376963955E+03  0.84376963955E+03  0.00000000000E+00 0.  1.
         23    2    1    2    0    0 -0.54726445910E+03  0.42801775869E+03  0.19286184827E+03  0.72629241422E+03  0.87220344485E+02 0.  0.
         11    1    3    3    0    0 -0.26650499309E+03  0.18745299733E+03  0.48662119921E+02  0.32944125344E+03  0.00000000000E+00 0. -1.
        -11    1    3    3    0    0 -0.28075946601E+03  0.24056476135E+03  0.14419972835E+03  0.39685116078E+03  0.00000000000E+00 0.  1.
         22    1    1    2    0    0  0.54726445910E+03 -0.42801775869E+03 -0.36793298680E+03  0.78617572636E+03  0.00000000000E+00 0. -1.
<mgrwt>
<rscale>  0 0.15023016E+04</rscale>
<asrwt>0</asrwt>
<pdfrwt beam="1">  1        2 0.12981071E+00 0.15023016E+04</pdfrwt>
<pdfrwt beam="2">  1       -2 0.10287669E+00 0.15023016E+04</pdfrwt>
<totfact> 0.23912950E+01</totfact>
</mgrwt>
</event>
<event>
 6    1  0.5040916E-004  0.2326375E+04  0.7818608E-02  0.8467594E-01
         -2   -1    0    0    0  501 -0.00000000000E+00  0.00000000000E+00  0.73513831741E+03  0.73513831741E+03  0.00000000000E+00 0. -1.
          2   -1    0    0  501    0  0.00000000000E+00 -0.00000000000E+00 -0.18404764645E+04  0.18404764645E+04  0.00000000000E+00 0.  1.
         23    2    1    2    0    0  0.84610277627E+03 -0.66363248348E+03 -0.10392058584E+04  0.14982701477E+04  0.92556135787E+02 0.  0.
         11    1    3    3    0    0  0.81713185185E+03 -0.61676144239E+03 -0.97655087626E+03  0.14148324120E+04  0.00000000000E+00 0. -1.
        -11    1    3    3    0    0  0.28970924418E+02 -0.46871041089E+02 -0.62654982139E+02  0.83437735715E+02  0.00000000000E+00 0.  1.
         22    1    1    2    0    0 -0.84610277627E+03  0.66363248348E+03 -0.66132288663E+02  0.10773446342E+04  0.00000000000E+00 0. -1.
<mgrwt>
<rscale>  0 0.23263747E+04</rscale>
<asrwt>0</asrwt>
<pdfrwt beam="1">  1        2 0.28315022E+00 0.23263747E+04</pdfrwt>
<pdfrwt beam="2">  1       -2 0.11309820E+00 0.23263747E+04</pdfrwt>
<totfact> 0.45524919E+00</totfact>
</mgrwt>
</event>
<event>
 6    1  0.5040916E-004  0.2971608E+04  0.7818608E-02  0.8251885E-01
          1   -1    0    0  501    0  0.00000000000E+00  0.00000000000E+00  0.18605386728E+04  0.18605386728E+04  0.00000000000E+00 0. -1.
         -1   -1    0    0    0  501 -0.00000000000E+00 -0.00000000000E+00 -0.11865453146E+04  0.11865453146E+04  0.00000000000E+00 0.  1.
         23    2    1    2    0    0 -0.40984312668E+03 -0.85970184803E+03 -0.83030950741E+03  0.12666386029E+04  0.88886535625E+02 0.  0.
         11    1    3    3    0    0 -0.29486959019E+03 -0.61275330468E+03 -0.53816391527E+03  0.86719956602E+03  0.00000000000E+00 0. -1.
        -11    1    3    3    0    0 -0.11497353649E+03 -0.24694854335E+03 -0.29214559215E+03  0.39943903686E+03  0.00000000000E+00 0.  1.
         22    1    1    2    0    0  0.40984312668E+03  0.85970184803E+03  0.15043028656E+04  0.17804453845E+04  0.00000000000E+00 0. -1.
<mgrwt>
<rscale>  0 0.29716079E+04</rscale>
<asrwt>0</asrwt>
<pdfrwt beam="1">  1        1 0.28623672E+00 0.29716079E+04</pdfrwt>
<pdfrwt beam="2">  1       -1 0.18254543E+00 0.29716079E+04</pdfrwt>
<totfact> 0.63089399E-01</totfact>
</mgrwt>
</event>
<event>
 6    1  0.5040916E-004  0.4875954E+04  0.7818608E-02  0.7847933E-01
         -2   -1    0    0    0  501 -0.00000000000E+00  0.00000000000E+00  0.12802389473E+04  0.12802389473E+04  0.00000000000E+00 0. -1.
          2   -1    0    0  501    0  0.00000000000E+00 -0.00000000000E+00 -0.46426741198E+04  0.46426741198E+04  0.00000000000E+00 0.  1.
         23    2    1    2    0    0 -0.23380222588E+04  0.28202915462E+03 -0.91938308451E+03  0.25296267497E+04  0.88643726194E+02 0.  0.
         11    1    3    3    0    0 -0.17514200047E+04  0.23570641559E+03 -0.72144493185E+03  0.19087986633E+04  0.00000000000E+00 0. -1.
        -11    1    3    3    0    0 -0.58660225404E+03  0.46322739034E+02 -0.19793815266E+03  0.62082808641E+03  0.00000000000E+00 0.  1.
         22    1    1    2    0    0  0.23380222588E+04 -0.28202915462E+03 -0.24430520880E+04  0.33932863173E+04  0.00000000000E+00 0.  1.
<mgrwt>
<rscale>  0 0.48759542E+04</rscale>
<asrwt>0</asrwt>
<pdfrwt beam="1">  1        2 0.71425757E+00 0.48759542E+04</pdfrwt>
<pdfrwt beam="2">  1       -2 0.19695983E+00 0.48759542E+04</pdfrwt>
<totfact> 0.89373310E-03</totfact>
</mgrwt>
</event>
<event>
 6    1  0.5040916E-004  0.4066836E+04  0.7818608E-02  0.7991198E-01
         -2   -1    0    0    0  501 -0.00000000000E+00  0.00000000000E+00  0.11234469192E+04  0.11234469192E+04  0.00000000000E+00 0. -1.
          2   -1    0    0  501    0  0.00000000000E+00 -0.00000000000E+00 -0.36804488109E+04  0.36804488109E+04  0.00000000000E+00 0.  1.
         23    2    1    2    0    0 -0.49419826505E+03 -0.12331894191E+04  0.53767845405E+03  0.14361020144E+04  0.91119741834E+02 0.  0.
         11    1    3    3    0    0 -0.12492579460E+03 -0.22519461735E+03  0.12147536379E+03  0.28473730673E+03  0.00000000000E+00 0. -1.
        -11    1    3    3    0    0 -0.36927247045E+03 -0.10079948017E+04  0.41620309026E+03  0.11513647077E+04  0.00000000000E+00 0.  1.
         22    1    1    2    0    0  0.49419826505E+03  0.12331894191E+04 -0.30946803458E+04  0.33677937157E+04  0.00000000000E+00 0. -1.
<mgrwt>
<rscale>  0 0.40668361E+04</rscale>
<asrwt>0</asrwt>
<pdfrwt beam="1">  1        2 0.56622290E+00 0.40668361E+04</pdfrwt>
<pdfrwt beam="2">  1       -2 0.17283799E+00 0.40668361E+04</pdfrwt>
<totfact> 0.96108264E-02</totfact>
</mgrwt>
</event>
<event>
 6    1  0.5040916E-004  0.1459296E+04  0.7818608E-02  0.8911981E-01
          1   -1    0    0  501    0  0.00000000000E+00  0.00000000000E+00  0.65296821440E+03  0.65296821440E+03  0.00000000000E+00 0.  1.
         -1   -1    0    0    0  501 -0.00000000000E+00 -0.00000000000E+00 -0.81533273345E+03  0.81533273345E+03  0.00000000000E+00 0. -1.
         23    2    1    2    0    0 -0.22386751355E+03  0.69015369028E+03 -0.12417327048E+03  0.74174238084E+03  0.91290627068E+02 0.  0.
         11    1    3    3    0    0 -0.15937847129E+03  0.34376681342E+03 -0.67092796886E+02  0.38480977445E+03  0.00000000000E+00 0. -1.
        -11    1    3    3    0    0 -0.64489042267E+02  0.34638687686E+03 -0.57080473593E+02  0.35693260638E+03  0.00000000000E+00 0.  1.
         22    1    1    2    0    0  0.22386751355E+03 -0.69015369028E+03 -0.38191248574E+02  0.72655856702E+03  0.00000000000E+00 0.  1.
<mgrwt>
<rscale>  0 0.14592962E+04</rscale>
<asrwt>0</asrwt>
<pdfrwt beam="1">  1        1 0.10045665E+00 0.14592962E+04</pdfrwt>
<pdfrwt beam="2">  1       -1 0.12543581E+00 0.14592962E+04</pdfrwt>
<totfact> 0.16293000E+01</totfact>
</mgrwt>
</event>
<event>
 6    1  0.5040916E-004  0.2925135E+04  0.7818608E-02  0.8265438E-01
          2   -1    0    0  501    0  0.00000000000E+00  0.00000000000E+00  0.12460586111E+04  0.12460586111E+04  0.00000000000E+00 0.  1.
         -2   -1    0    0    0  501 -0.00000000000E+00 -0.00000000000E+00 -0.17166955816E+04  0.17166955816E+04  0.00000000000E+00 0. -1.
         23    2    1    2    0    0 -0.94393024391E+03 -0.49806450874E+03  0.77525380630E+03  0.13222309871E+04  0.90574603842E+02 0.  0.
         13    1    3    3    0    0 -0.58375098064E+03 -0.27207183939E+03  0.42854693428E+03  0.77358953461E+03  0.00000000000E+00 0.  1.
        -13    1    3    3    0    0 -0.36017926327E+03 -0.22599266935E+03  0.34670687202E+03  0.54864145249E+03  0.00000000000E+00 0. -1.
         22    1    1    2    0    0  0.94393024391E+03  0.49806450874E+03 -0.12458907769E+04  0.16405232056E+04  0.00000000000E+00 0. -1.
<mgrwt>
<rscale>  0 0.29251347E+04</rscale>
<asrwt>0</asrwt>
<pdfrwt beam="1">  1        2 0.19170133E+00 0.29251347E+04</pdfrwt>
<pdfrwt beam="2">  1       -2 0.26410701E+00 0.29251347E+04</pdfrwt>
<totfact> 0.80649839E-01</totfact>
</mgrwt>
</event>
<event>
 6    1  0.5040916E-004  0.1932503E+04  0.7818608E-02  0.8638844E-01
         -2   -1    0    0    0  501 -0.00000000000E+00  0.00000000000E+00  0.11109738120E+04  0.11109738120E+04  0.00000000000E+00 0. -1.
          2   -1    0    0  501    0  0.00000000000E+00 -0.00000000000E+00 -0.84038194787E+03  0.84038194787E+03  0.00000000000E+00 0.  1.
         23    2    1    2    0    0  0.25663699164E+03 -0.79107449933E+03  0.62806504540E+03  0.10461218209E+04  0.90795120748E+02 0.  0.
         13    1    3    3    0    0  0.54682745775E+02 -0.11417715805E+03  0.62278399300E+02  0.14108587855E+03  0.00000000000E+00 0.  1.
        -13    1    3    3    0    0  0.20195424587E+03 -0.67689734128E+03  0.56578664610E+03  0.90503594236E+03  0.00000000000E+00 0. -1.
         22    1    1    2    0    0 -0.25663699164E+03  0.79107449933E+03 -0.35747318126E+03  0.90523393898E+03  0.00000000000E+00 0.  1.
<mgrwt>
<rscale>  0 0.19325034E+04</rscale>
<asrwt>0</asrwt>
<pdfrwt beam="1">  1        2 0.12928953E+00 0.19325034E+04</pdfrwt>
<pdfrwt beam="2">  1       -2 0.17091905E+00 0.19325034E+04</pdfrwt>
<totfact> 0.63193167E+00</totfact>
</mgrwt>
</event>
<event>
 6    1  0.5040916E-004  0.3460860E+04  0.7818608E-02  0.8123129E-01
          2   -1    0    0  501    0  0.00000000000E+00  0.00000000000E+00  0.35837623055E+04  0.35837623055E+04  0.00000000000E+00 0.  1.
         -2   -1    0    0    0  501 -0.00000000000E+00 -0.00000000000E+00 -0.83554299731E+03  0.83554299731E+03  0.00000000000E+00 0. -1.
         23    2    1    2    0    0  0.37917662955E+03 -0.76246283760E+03 -0.54685610265E+03  0.10159765708E+04  0.89623101241E+02 0.  0.
         13    1    3    3    0    0  0.13518955802E+03 -0.22211157337E+03 -0.20887804063E+03  0.33352631602E+03  0.00000000000E+00 0.  1.
        -13    1    3    3    0    0  0.24398707153E+03 -0.54035126423E+03 -0.33797806202E+03  0.68245025477E+03  0.00000000000E+00 0. -1.
         22    1    1    2    0    0 -0.37917662955E+03  0.76246283760E+03  0.32950754108E+04  0.34033287320E+04  0.00000000000E+00 0.  1.
<mgrwt>
<rscale>  0 0.34608597E+04</rscale>
<asrwt>0</asrwt>
<pdfrwt beam="1">  1        2 0.55134804E+00 0.34608597E+04</pdfrwt>
<pdfrwt beam="2">  1       -2 0.12854508E+00 0.34608597E+04</pdfrwt>
<totfact> 0.26077505E-01</totfact>
</mgrwt>
</event>
<event>
 6    1  0.5040916E-004  0.8061800E+03  0.7818608E-02  0.9551115E-01
          2   -1    0    0  501    0  0.00000000000E+00  0.00000000000E+00  0.60997565844E+03  0.60997565844E+03  0.00000000000E+00 0.  1.
         -2   -1    0    0    0  501 -0.00000000000E+00 -0.00000000000E+00 -0.26637381637E+03  0.26637381637E+03  0.00000000000E+00 0. -1.
         23    2    1    2    0    0 -0.12509512090E+03 -0.37545290203E+03  0.21977315683E+03  0.46168429155E+03  0.90766038194E+02 0.  0.
         11    1    3    3    0    0 -0.72879124764E+02 -0.12616593495E+03  0.11766825604E+03  0.18728328395E+03  0.00000000000E+00 0. -1.
        -11    1    3    3    0    0 -0.52215996133E+02 -0.24928696708E+03  0.10210490080E+03  0.27440100761E+03  0.00000000000E+00 0.  1.
         22    1    1    2    0    0  0.12509512090E+03  0.37545290203E+03  0.12382868524E+03  0.41466518325E+03  0.00000000000E+00 0. -1.
<mgrwt>
<rscale>  0 0.80617999E+03</rscale>
<asrwt>0</asrwt>
<pdfrwt beam="1">  1        2 0.93842408E-01 0.80617999E+03</pdfrwt>
<pdfrwt beam="2">  1       -2 0.40980587E-01 0.80617999E+03</pdfrwt>
<totfact> 0.27575933E+02</totfact>
</mgrwt>
</event>
<event>
 6    1  0.5040916E-004  0.2755327E+04  0.7818608E-02  0.8317273E-01
          2   -1    0    0  501    0  0.00000000000E+00  0.00000000000E+00  0.16775002948E+04  0.16775002948E+04  0.00000000000E+00 0.  1.
         -2   -1    0    0    0  501 -0.00000000000E+00 -0.00000000000E+00 -0.11314199942E+04  0.11314199942E+04  0.00000000000E+00 0. -1.
         23    2    1    2    0    0  0.88222737675E+03  0.42601630064E+03 -0.71188012316E+03  0.12144675740E+04  0.91340822133E+02 0.  0.
         13    1    3    3    0    0  0.16500732096E+03  0.11161887168E+03 -0.17322144631E+03  0.26399215509E+03  0.00000000000E+00 0. -1.
        -13    1    3    3    0    0  0.71722005579E+03  0.31439742896E+03 -0.53865867685E+03  0.95047541889E+03  0.00000000000E+00 0.  1.
         22    1    1    2    0    0 -0.88222737675E+03 -0.42601630064E+03  0.12579604238E+04  0.15944527151E+04  0.00000000000E+00 0.  1.
<mgrwt>
<rscale>  0 0.27553275E+04</rscale>
<asrwt>0</asrwt>
<pdfrwt beam="1">  1        2 0.25807697E+00 0.27553275E+04</pdfrwt>
<pdfrwt beam="2">  1       -2 0.17406461E+00 0.27553275E+04</pdfrwt>
<totfact> 0.17587907E+00</totfact>
</mgrwt>
</event>
<event>
 6    1  0.5040916E-004  0.2845479E+04  0.7818608E-02  0.8289286E-01
          2   -1    0    0  501    0  0.00000000000E+00  0.00000000000E+00  0.19956038494E+04  0.19956038494E+04  0.00000000000E+00 0.  1.
         -2   -1    0    0    0  501 -0.00000000000E+00 -0.00000000000E+00 -0.10143232926E+04  0.10143232926E+04  0.00000000000E+00 0. -1.
         23    2    1    2    0    0  0.34245351615E+03 -0.81498575794E+03  0.16683801939E+04  0.18902923320E+04  0.90754794271E+02 0.  0.
         13    1    3    3    0    0  0.14114056936E+03 -0.44103836719E+03  0.91251767315E+03  0.10232907727E+04  0.00000000000E+00 0. -1.
        -13    1    3    3    0    0  0.20131294678E+03 -0.37394739075E+03  0.75586252076E+03  0.86700155933E+03  0.00000000000E+00 0.  1.
         22    1    1    2    0    0 -0.34245351615E+03  0.81498575794E+03 -0.68709963710E+03  0.11196348100E+04  0.00000000000E+00 0. -1.
<mgrwt>
<rscale>  0 0.28454788E+04</rscale>
<asrwt>0</asrwt>
<pdfrwt beam="1">  1        2 0.30701598E+00 0.28454788E+04</pdfrwt>
<pdfrwt beam="2">  1       -2 0.15604974E+00 0.28454788E+04</pdfrwt>
<totfact> 0.15703401E+00</totfact>
</mgrwt>
</event>
<event>
 6    1  0.5040916E-004  0.1037597E+04  0.7818608E-02  0.9268244E-01
          1   -1    0    0  501    0  0.00000000000E+00  0.00000000000E+00  0.96619664114E+03  0.96619664114E+03  0.00000000000E+00 0.  1.
         -1   -1    0    0    0  501 -0.00000000000E+00 -0.00000000000E+00 -0.27856859604E+03  0.27856859604E+03  0.00000000000E+00 0. -1.
         23    2    1    2    0    0 -0.17131599748E+03 -0.14166939738E+03  0.90348700291E+03  0.93490320528E+03  0.91300874334E+02 0.  0.
         13    1    3    3    0    0 -0.75702902812E+02 -0.35906181863E+02  0.49989201978E+03  0.50686508543E+03  0.00000000000E+00 0. -1.
        -13    1    3    3    0    0 -0.95613094667E+02 -0.10576321552E+03  0.40359498313E+03  0.42803811984E+03  0.00000000000E+00 0.  1.
         22    1    1    2    0    0  0.17131599748E+03  0.14166939738E+03 -0.21585895782E+03  0.30986203191E+03  0.00000000000E+00 0. -1.
<mgrwt>
<rscale>  0 0.10375973E+04</rscale>
<asrwt>0</asrwt>
<pdfrwt beam="1">  1        1 0.14864563E+00 0.10375973E+04</pdfrwt>
<pdfrwt beam="2">  1       -1 0.42856708E-01 0.10375973E+04</pdfrwt>
<totfact> 0.86260949E+01</totfact>
</mgrwt>
</event>
<event>
 6    1  0.5040916E-004  0.3757688E+04  0.7818608E-02  0.8055296E-01
          2   -1    0    0  501    0  0.00000000000E+00  0.00000000000E+00  0.18910785106E+04  0.18910785106E+04  0.00000000000E+00 0. -1.
         -2   -1    0    0    0  501 -0.00000000000E+00 -0.00000000000E+00 -0.18666888359E+04  0.18666888359E+04  0.00000000000E+00 0.  1.
         23    2    1    2    0    0  0.15069155690E+04 -0.42114076247E+03  0.10503438518E+04  0.18867419465E+04  0.91754517601E+02 0.  0.
         13    1    3    3    0    0  0.19405964287E+03 -0.85712093621E+02  0.13271611899E+03  0.25023843874E+03  0.00000000000E+00 0.  1.
        -13    1    3    3    0    0  0.13128559261E+04 -0.33542866885E+03  0.91762773284E+03  0.16365035077E+04  0.00000000000E+00 0. -1.
         22    1    1    2    0    0 -0.15069155690E+04  0.42114076247E+03 -0.10259541771E+04  0.18710254000E+04  0.00000000000E+00 0.  1.
<mgrwt>
<rscale>  0 0.37576882E+04</rscale>
<asrwt>0</asrwt>
<pdfrwt beam="1">  1        2 0.29093516E+00 0.37576882E+04</pdfrwt>
<pdfrwt beam="2">  1       -2 0.28718290E+00 0.37576882E+04</pdfrwt>
<totfact> 0.23525992E-01</totfact>
</mgrwt>
</event>
<event>
 6    1  0.5040916E-004  0.3575248E+03  0.7818608E-02  0.1059568E+00
         -2   -1    0    0    0  501 -0.00000000000E+00  0.00000000000E+00  0.46945402106E+02  0.46945402106E+02  0.00000000000E+00 0. -1.
          2   -1    0    0  501    0  0.00000000000E+00 -0.00000000000E+00 -0.68070549676E+03  0.68070549676E+03  0.00000000000E+00 0.  1.
         23    2    1    2    0    0 -0.10148061052E+03 -0.80703959650E+02 -0.55235131767E+03  0.57455343845E+03  0.90599294103E+02 0.  0.
         13    1    3    3    0    0 -0.76365447964E+02 -0.87073819263E+02 -0.31187636138E+03  0.33268663398E+03  0.00000000000E+00 0. -1.
        -13    1    3    3    0    0 -0.25115162560E+02  0.63698596127E+01 -0.24047495629E+03  0.24186680447E+03  0.00000000000E+00 0.  1.
         22    1    1    2    0    0  0.10148061052E+03  0.80703959650E+02 -0.81408776989E+02  0.15309746042E+03  0.00000000000E+00 0. -1.
<mgrwt>
<rscale>  0 0.35752479E+03</rscale>
<asrwt>0</asrwt>
<pdfrwt beam="1">  1        2 0.10472392E+00 0.35752479E+03</pdfrwt>
<pdfrwt beam="2">  1       -2 0.72223696E-02 0.35752479E+03</pdfrwt>
<totfact> 0.48381332E+03</totfact>
</mgrwt>
</event>
<event>
 6    1  0.5040916E-004  0.1980366E+04  0.7818608E-02  0.8615855E-01
          4   -1    0    0  501    0  0.00000000000E+00  0.00000000000E+00  0.85195258826E+03  0.85195258826E+03  0.00000000000E+00 0.  1.
         -4   -1    0    0    0  501 -0.00000000000E+00 -0.00000000000E+00 -0.11508419697E+04  0.11508419697E+04  0.00000000000E+00 0. -1.
         23    2    1    2    0    0  0.11174082638E+03  0.97678949626E+03 -0.52233500128E+02  0.98916599873E+03  0.95484565386E+02 0.  0.
         11    1    3    3    0    0  0.83058561541E+02  0.50750888193E+03 -0.68051433604E+02  0.51874366261E+03  0.00000000000E+00 0.  1.
        -11    1    3    3    0    0  0.28682264841E+02  0.46928061432E+03  0.15817933476E+02  0.47042233611E+03  0.00000000000E+00 0. -1.
         22    1    1    2    0    0 -0.11174082638E+03 -0.97678949626E+03 -0.24665588130E+03  0.10136285592E+04  0.00000000000E+00 0. -1.
<mgrwt>
<rscale>  0 0.19803664E+04</rscale>
<asrwt>0</asrwt>
<pdfrwt beam="1">  1        4 0.13106963E+00 0.19803664E+04</pdfrwt>
<pdfrwt beam="2">  1       -4 0.17705261E+00 0.19803664E+04</pdfrwt>
<totfact> 0.14863305E-01</totfact>
</mgrwt>
</event>
<event>
 6    1  0.5040916E-004  0.8618529E+03  0.7818608E-02  0.9474565E-01
          2   -1    0    0  501    0  0.00000000000E+00  0.00000000000E+00  0.63981187140E+03  0.63981187140E+03  0.00000000000E+00 0.  1.
         -2   -1    0    0    0  501 -0.00000000000E+00 -0.00000000000E+00 -0.29023782324E+03  0.29023782324E+03  0.00000000000E+00 0. -1.
         23    2    1    2    0    0 -0.42373664150E+03 -0.35319691143E+02  0.19898684501E+03  0.47896574714E+03  0.94932610378E+02 0.  0.
         13    1    3    3    0    0 -0.12168681921E+03  0.22041576894E+01  0.13316836532E+02  0.12243315898E+03  0.00000000000E+00 0. -1.
        -13    1    3    3    0    0 -0.30204982229E+03 -0.37523848833E+02  0.18567000848E+03  0.35653258817E+03  0.00000000000E+00 0.  1.
         22    1    1    2    0    0  0.42373664150E+03  0.35319691143E+02  0.15058720315E+03  0.45108394749E+03  0.00000000000E+00 0.  1.
<mgrwt>
<rscale>  0 0.86185290E+03</rscale>
<asrwt>0</asrwt>
<pdfrwt beam="1">  1        2 0.98432595E-01 0.86185290E+03</pdfrwt>
<pdfrwt beam="2">  1       -2 0.44651973E-01 0.86185290E+03</pdfrwt>
<totfact> 0.21904413E+02</totfact>
</mgrwt>
</event>
<event>
 6    1  0.5040916E-004  0.1494075E+04  0.7818608E-02  0.8888402E-01
         -1   -1    0    0    0  501 -0.00000000000E+00  0.00000000000E+00  0.24316861211E+03  0.24316861211E+03  0.00000000000E+00 0. -1.
          1   -1    0    0  501    0  0.00000000000E+00 -0.00000000000E+00 -0.22949722411E+04  0.22949722411E+04  0.00000000000E+00 0.  1.
         23    2    1    2    0    0 -0.26026947392E+03 -0.15305816694E+02 -0.22139415194E+04  0.22311177880E+04  0.91515385975E+02 0.  0.
         13    1    3    3    0    0 -0.38863243898E+02  0.29414349646E+02 -0.49642481409E+03  0.49881173977E+03  0.00000000000E+00 0. -1.
        -13    1    3    3    0    0 -0.22140623002E+03 -0.44720166339E+02 -0.17175167053E+04  0.17323060483E+04  0.00000000000E+00 0.  1.
         22    1    1    2    0    0  0.26026947392E+03  0.15305816694E+02  0.16213789034E+03  0.30702306520E+03  0.00000000000E+00 0. -1.
<mgrwt>
<rscale>  0 0.14940753E+04</rscale>
<asrwt>0</asrwt>
<pdfrwt beam="1">  1        1 0.35307267E+00 0.14940753E+04</pdfrwt>
<pdfrwt beam="2">  1       -1 0.37410554E-01 0.14940753E+04</pdfrwt>
<totfact> 0.12514495E+01</totfact>
</mgrwt>
</event>
<event>
 6    1  0.5040916E-004  0.1848826E+04  0.7818608E-02  0.8680757E-01
          1   -1    0    0  501    0  0.00000000000E+00  0.00000000000E+00  0.15686007263E+04  0.15686007263E+04  0.00000000000E+00 0.  1.
         -1   -1    0    0    0  501 -0.00000000000E+00 -0.00000000000E+00 -0.54477801454E+03  0.54477801454E+03  0.00000000000E+00 0. -1.
         23    2    1    2    0    0 -0.17654725238E+03  0.10232676090E+03  0.15414128081E+04  0.15570162636E+04  0.81893234939E+02 0.  0.
         11    1    3    3    0    0 -0.10690396040E+03  0.69984602639E+02  0.12146714216E+04  0.12213733925E+04  0.00000000000E+00 0.  1.
        -11    1    3    3    0    0 -0.69643291977E+02  0.32342158260E+02  0.32674138647E+03  0.33564287115E+03  0.00000000000E+00 0. -1.
         22    1    1    2    0    0  0.17654725238E+03 -0.10232676090E+03 -0.51759009629E+03  0.55636247726E+03  0.00000000000E+00 0. -1.
<mgrwt>
<rscale>  0 0.18488258E+04</rscale>
<asrwt>0</asrwt>
<pdfrwt beam="1">  1        1 0.24132319E+00 0.18488258E+04</pdfrwt>
<pdfrwt beam="2">  1       -1 0.83812003E-01 0.18488258E+04</pdfrwt>
<totfact> 0.77783361E+00</totfact>
</mgrwt>
</event>
<event>
 6    1  0.5040916E-004  0.4047418E+04  0.7818608E-02  0.7995048E-01
          2   -1    0    0  501    0  0.00000000000E+00  0.00000000000E+00  0.18696653558E+04  0.18696653558E+04  0.00000000000E+00 0.  1.
         -2   -1    0    0    0  501 -0.00000000000E+00 -0.00000000000E+00 -0.21904449988E+04  0.21904449988E+04  0.00000000000E+00 0. -1.
         23    2    1    2    0    0  0.16424684178E+03  0.20146237007E+04 -0.83359509169E+02  0.20249066792E+04  0.87250051622E+02 0.  0.
         11    1    3    3    0    0  0.14460933636E+02  0.68066010546E+03 -0.33236437918E+02  0.68162449969E+03  0.00000000000E+00 0.  1.
        -11    1    3    3    0    0  0.14978590815E+03  0.13339635952E+04 -0.50123071252E+02  0.13432821796E+04  0.00000000000E+00 0. -1.
         22    1    1    2    0    0 -0.16424684178E+03 -0.20146237007E+04 -0.23742013381E+03  0.20352036754E+04  0.00000000000E+00 0. -1.
<mgrwt>
<rscale>  0 0.40474185E+04</rscale>
<asrwt>0</asrwt>
<pdfrwt beam="1">  1        2 0.28764082E+00 0.40474185E+04</pdfrwt>
<pdfrwt beam="2">  1       -2 0.33699154E+00 0.40474185E+04</pdfrwt>
<totfact> 0.11646452E-01</totfact>
</mgrwt>
</event>
<event>
 6    1  0.5040916E-004  0.1102965E+04  0.7818608E-02  0.9202307E-01
          2   -1    0    0  501    0  0.00000000000E+00  0.00000000000E+00  0.31122060151E+04  0.31122060151E+04  0.00000000000E+00 0.  1.
         -2   -1    0    0    0  501 -0.00000000000E+00 -0.00000000000E+00 -0.97722672684E+02  0.97722672684E+02  0.00000000000E+00 0. -1.
         23    2    1    2    0    0  0.51948834441E+03  0.82972691834E+02  0.19563413444E+04  0.20282277546E+04  0.98406102785E+02 0.  0.
         11    1    3    3    0    0  0.15649530727E+03  0.58163997955E+01  0.43670985311E+03  0.46393976712E+03  0.00000000000E+00 0. -1.
        -11    1    3    3    0    0  0.36299303715E+03  0.77156292039E+02  0.15196314913E+04  0.15642879875E+04  0.00000000000E+00 0.  1.
         22    1    1    2    0    0 -0.51948834441E+03 -0.82972691834E+02  0.10581419980E+04  0.11817009332E+04  0.00000000000E+00 0.  1.
<mgrwt>
<rscale>  0 0.11029653E+04</rscale>
<asrwt>0</asrwt>
<pdfrwt beam="1">  1        2 0.47880085E+00 0.11029653E+04</pdfrwt>
<pdfrwt beam="2">  1       -2 0.15034260E-01 0.11029653E+04</pdfrwt>
<totfact> 0.52425905E+01</totfact>
</mgrwt>
</event>
<event>
 6    1  0.5040916E-004  0.4366428E+04  0.7818608E-02  0.7934448E-01
          2   -1    0    0  501    0  0.00000000000E+00  0.00000000000E+00  0.38672398885E+04  0.38672398885E+04  0.00000000000E+00 0.  1.
         -2   -1    0    0    0  501 -0.00000000000E+00 -0.00000000000E+00 -0.12325129698E+04  0.12325129698E+04  0.00000000000E+00 0. -1.
         23    2    1    2    0    0  0.47641959718E+03 -0.51409074408E+03  0.37316489274E+04  0.37980221569E+04  0.92215296524E+02 0.  0.
         13    1    3    3    0    0  0.31850574741E+03 -0.29547959008E+03  0.24633145643E+04  0.25013341924E+04  0.00000000000E+00 0. -1.
        -13    1    3    3    0    0  0.15791384977E+03 -0.21861115401E+03  0.12683343631E+04  0.12966879645E+04  0.00000000000E+00 0.  1.
         22    1    1    2    0    0 -0.47641959718E+03  0.51409074408E+03 -0.10969220088E+04  0.13017307014E+04  0.00000000000E+00 0. -1.
<mgrwt>
<rscale>  0 0.43664280E+04</rscale>
<asrwt>0</asrwt>
<pdfrwt beam="1">  1        2 0.59495998E+00 0.43664280E+04</pdfrwt>
<pdfrwt beam="2">  1       -2 0.18961738E+00 0.43664280E+04</pdfrwt>
<totfact> 0.51892925E-02</totfact>
</mgrwt>
</event>
<event>
 6    1  0.5040916E-004  0.1883457E+04  0.7818608E-02  0.8663135E-01
          2   -1    0    0  501    0  0.00000000000E+00  0.00000000000E+00  0.22249895699E+04  0.22249895699E+04  0.00000000000E+00 0. -1.
         -2   -1    0    0    0  501 -0.00000000000E+00 -0.00000000000E+00 -0.39858739385E+03  0.39858739385E+03  0.00000000000E+00 0.  1.
         23    2    1    2    0    0  0.25248865194E+03 -0.44420544434E+03  0.20136134896E+04  0.20794105627E+04  0.90774481673E+02 0.  0.
         11    1    3    3    0    0  0.76917728192E+02 -0.21320927817E+03  0.79042442508E+03  0.82228055125E+03  0.00000000000E+00 0.  1.
        -11    1    3    3    0    0  0.17557092375E+03 -0.23099616617E+03  0.12231890646E+04  0.12571300115E+04  0.00000000000E+00 0. -1.
         22    1    1    2    0    0 -0.25248865194E+03  0.44420544434E+03 -0.18721131354E+03  0.54416640108E+03  0.00000000000E+00 0.  1.
<mgrwt>
<rscale>  0 0.18834572E+04</rscale>
<asrwt>0</asrwt>
<pdfrwt beam="1">  1        2 0.34230608E+00 0.18834572E+04</pdfrwt>
<pdfrwt beam="2">  1       -2 0.61321139E-01 0.18834572E+04</pdfrwt>
<totfact> 0.11595933E+01</totfact>
</mgrwt>
</event>
<event>
 6    1  0.5040916E-004  0.4427762E+04  0.7818608E-02  0.7923407E-01
         -2   -1    0    0    0  501 -0.00000000000E+00  0.00000000000E+00  0.27149765849E+04  0.27149765849E+04  0.00000000000E+00 0. -1.
          2   -1    0    0  501    0  0.00000000000E+00 -0.00000000000E+00 -0.18052708132E+04  0.18052708132E+04  0.00000000000E+00 0.  1.
         23    2    1    2    0    0  0.85413046091E+03 -0.11376828965E+04  0.21854454581E+04  0.26093907931E+04  0.94272178749E+02 0.  0.
         11    1    3    3    0    0  0.20499180546E+03 -0.34030590318E+03  0.63198880977E+03  0.74648483154E+03  0.00000000000E+00 0.  1.
        -11    1    3    3    0    0  0.64913865545E+03 -0.79737699328E+03  0.15534566483E+04  0.18629059616E+04  0.00000000000E+00 0. -1.
         22    1    1    2    0    0 -0.85413046091E+03  0.11376828965E+04 -0.12757396865E+04  0.19108566050E+04  0.00000000000E+00 0.  1.
<mgrwt>
<rscale>  0 0.44277615E+04</rscale>
<asrwt>0</asrwt>
<pdfrwt beam="1">  1        2 0.27773397E+00 0.44277615E+04</pdfrwt>
<pdfrwt beam="2">  1       -2 0.41768871E+00 0.44277615E+04</pdfrwt>
<totfact> 0.37106250E-02</totfact>
</mgrwt>
</event>
<event>
 6    1  0.5040916E-004  0.8992017E+03  0.7818608E-02  0.9426580E-01
         -2   -1    0    0    0  501 -0.00000000000E+00  0.00000000000E+00  0.52724233145E+03  0.52724233145E+03  0.00000000000E+00 0.  1.
          2   -1    0    0  501    0  0.00000000000E+00 -0.00000000000E+00 -0.38339285809E+03  0.38339285809E+03  0.00000000000E+00 0. -1.
         23    2    1    2    0    0  0.21035073435E+03  0.38805908018E+03  0.14817420974E+02  0.45075851945E+03  0.90146579154E+02 0.  0.
         11    1    3    3    0    0  0.20204764596E+03  0.30141121040E+03  0.21161566713E+02  0.36348284815E+03  0.00000000000E+00 0.  1.
        -11    1    3    3    0    0  0.83030883888E+01  0.86647869785E+02 -0.63441457381E+01  0.87275671296E+02  0.00000000000E+00 0. -1.
         22    1    1    2    0    0 -0.21035073435E+03 -0.38805908018E+03  0.12903205239E+03  0.45987667010E+03  0.00000000000E+00 0.  1.
<mgrwt>
<rscale>  0 0.89920174E+03</rscale>
<asrwt>0</asrwt>
<pdfrwt beam="1">  1        2 0.58983517E-01 0.89920174E+03</pdfrwt>
<pdfrwt beam="2">  1       -2 0.81114204E-01 0.89920174E+03</pdfrwt>
<totfact> 0.11220645E+02</totfact>
</mgrwt>
</event>
<event>
 6    1  0.5040916E-004  0.3748744E+03  0.7818608E-02  0.1052845E+00
         -2   -1    0    0    0  501 -0.00000000000E+00  0.00000000000E+00  0.22933533107E+02  0.22933533107E+02  0.00000000000E+00 0. -1.
          2   -1    0    0  501    0  0.00000000000E+00 -0.00000000000E+00 -0.15319360786E+04  0.15319360786E+04  0.00000000000E+00 0.  1.
         23    2    1    2    0    0  0.15368863485E+03 -0.58121607155E+02 -0.53848493043E+03  0.57054102894E+03  0.92480958602E+02 0.  0.
         11    1    3    3    0    0  0.97843129453E+02 -0.34849013363E+02 -0.45925264870E+03  0.47085106674E+03  0.00000000000E+00 0.  1.
        -11    1    3    3    0    0  0.55845505398E+02 -0.23272593793E+02 -0.79232281724E+02  0.99689962194E+02  0.00000000000E+00 0. -1.
         22    1    1    2    0    0 -0.15368863485E+03  0.58121607155E+02 -0.97051761508E+03  0.98432858278E+03  0.00000000000E+00 0. -1.
<mgrwt>
<rscale>  0 0.37487442E+03</rscale>
<asrwt>0</asrwt>
<pdfrwt beam="1">  1        2 0.23568252E+00 0.37487442E+03</pdfrwt>
<pdfrwt beam="2">  1       -2 0.35282351E-02 0.37487442E+03</pdfrwt>
<totfact> 0.43643325E+03</totfact>
</mgrwt>
</event>
<event>
 6    1  0.5040916E-004  0.5990259E+03  0.7818608E-02  0.9907429E-01
         -2   -1    0    0    0  501 -0.00000000000E+00  0.00000000000E+00  0.16702931770E+03  0.16702931770E+03  0.00000000000E+00 0. -1.
          2   -1    0    0  501    0  0.00000000000E+00 -0.00000000000E+00 -0.53707933963E+03  0.53707933963E+03  0.00000000000E+00 0.  1.
         23    2    1    2    0    0 -0.64087544725E+02  0.26617520460E+03 -0.77318088437E+02  0.30329892964E+03  0.10514609356E+03 0.  0.
         11    1    3    3    0    0  0.29461149688E+02  0.66762876147E+02 -0.17104426327E+02  0.74952000456E+02  0.00000000000E+00 0. -1.
        -11    1    3    3    0    0 -0.93548694412E+02  0.19941232845E+03 -0.60213662109E+02  0.22834692918E+03  0.00000000000E+00 0.  1.
         22    1    1    2    0    0  0.64087544725E+02 -0.26617520460E+03 -0.29273193349E+03  0.40080972769E+03  0.00000000000E+00 0.  1.
<mgrwt>
<rscale>  0 0.59902586E+03</rscale>
<asrwt>0</asrwt>
<pdfrwt beam="1">  1        2 0.82627589E-01 0.59902586E+03</pdfrwt>
<pdfrwt beam="2">  1       -2 0.25696819E-01 0.59902586E+03</pdfrwt>
<totfact> 0.77587004E+02</totfact>
</mgrwt>
</event>
<event>
 6    1  0.5040916E-004  0.1828045E+04  0.7818608E-02  0.8691526E-01
         -2   -1    0    0    0  501 -0.00000000000E+00  0.00000000000E+00  0.52179965674E+03  0.52179965674E+03  0.00000000000E+00 0. -1.
          2   -1    0    0  501    0  0.00000000000E+00 -0.00000000000E+00 -0.16010690419E+04  0.16010690419E+04  0.00000000000E+00 0.  1.
         23    2    1    2    0    0 -0.71147302293E+03  0.34292054510E+03 -0.10698495494E+04  0.13330097898E+04  0.92459064653E+02 0.  0.
         13    1    3    3    0    0 -0.57531266687E+03  0.23579087624E+03 -0.84848342778E+03  0.10519059507E+04  0.00000000000E+00 0. -1.
        -13    1    3    3    0    0 -0.13616035606E+03  0.10712966886E+03 -0.22136612165E+03  0.28110383905E+03  0.00000000000E+00 0.  1.
         22    1    1    2    0    0  0.71147302293E+03 -0.34292054510E+03 -0.94198357454E+01  0.78985890886E+03  0.00000000000E+00 0. -1.
<mgrwt>
<rscale>  0 0.18280452E+04</rscale>
<asrwt>0</asrwt>
<pdfrwt beam="1">  1        2 0.24631831E+00 0.18280452E+04</pdfrwt>
<pdfrwt beam="2">  1       -2 0.80276873E-01 0.18280452E+04</pdfrwt>
<totfact> 0.14387490E+01</totfact>
</mgrwt>
</event>
<event>
 6    1  0.5040916E-004  0.7371940E+03  0.7818608E-02  0.9655658E-01
         -2   -1    0    0    0  501 -0.00000000000E+00  0.00000000000E+00  0.15838795781E+03  0.15838795781E+03  0.00000000000E+00 0. -1.
          2   -1    0    0  501    0  0.00000000000E+00 -0.00000000000E+00 -0.85779095263E+03  0.85779095263E+03  0.00000000000E+00 0.  1.
         23    2    1    2    0    0  0.26809466675E+03  0.22262318110E+03 -0.22745049205E+03  0.42951461462E+03  0.10636374730E+03 0.  0.
         13    1    3    3    0    0  0.61925796724E+02  0.89240408335E+02 -0.11887510274E+03  0.16102777658E+03  0.00000000000E+00 0.  1.
        -13    1    3    3    0    0  0.20616887003E+03  0.13338277276E+03 -0.10857538931E+03  0.26848683804E+03  0.00000000000E+00 0. -1.
         22    1    1    2    0    0 -0.26809466675E+03 -0.22262318110E+03 -0.47195250277E+03  0.58666429581E+03  0.00000000000E+00 0.  1.
<mgrwt>
<rscale>  0 0.73719402E+03</rscale>
<asrwt>0</asrwt>
<pdfrwt beam="1">  1        2 0.13196784E+00 0.73719402E+03</pdfrwt>
<pdfrwt beam="2">  1       -2 0.24367378E-01 0.73719402E+03</pdfrwt>
<totfact> 0.47325784E+02</totfact>
</mgrwt>
</event>
<event>
 6    1  0.5040916E-004  0.2889578E+04  0.7818608E-02  0.8275985E-01
         -2   -1    0    0    0  501 -0.00000000000E+00  0.00000000000E+00  0.75880011895E+03  0.75880011895E+03  0.00000000000E+00 0. -1.
          2   -1    0    0  501    0  0.00000000000E+00 -0.00000000000E+00 -0.27509412959E+04  0.27509412959E+04  0.00000000000E+00 0.  1.
         23    2    1    2    0    0 -0.63391426279E+02 -0.91139250382E+03 -0.23543159725E+04  0.25269772766E+04  0.90308854938E+02 0.  0.
         11    1    3    3    0    0  0.15464491154E+02 -0.42682096108E+03 -0.10944436233E+04  0.11748285526E+04  0.00000000000E+00 0.  1.
        -11    1    3    3    0    0 -0.78855917433E+02 -0.48457154274E+03 -0.12598723492E+04  0.13521487241E+04  0.00000000000E+00 0. -1.
         22    1    1    2    0    0  0.63391426279E+02  0.91139250382E+03  0.36217479552E+03  0.98276413826E+03  0.00000000000E+00 0. -1.
<mgrwt>
<rscale>  0 0.28895775E+04</rscale>
<asrwt>0</asrwt>
<pdfrwt beam="1">  1        2 0.42322174E+00 0.28895775E+04</pdfrwt>
<pdfrwt beam="2">  1       -2 0.11673848E+00 0.28895775E+04</pdfrwt>
<totfact> 0.12149308E+00</totfact>
</mgrwt>
</event>
<event>
 6    1  0.5040916E-004  0.2008148E+04  0.7818608E-02  0.8602821E-01
         -2   -1    0    0    0  501 -0.00000000000E+00  0.00000000000E+00  0.73377716780E+03  0.73377716780E+03  0.00000000000E+00 0. -1.
          2   -1    0    0  501    0  0.00000000000E+00 -0.00000000000E+00 -0.13739384708E+04  0.13739384708E+04  0.00000000000E+00 0.  1.
         23    2    1    2    0    0  0.40736483657E+03 -0.65690941436E+03 -0.98939394796E+03  0.12595178262E+04  0.10004339753E+03 0.  0.
         13    1    3    3    0    0  0.21911170627E+03 -0.43837952899E+03 -0.65160573655E+03  0.81533832681E+03  0.00000000000E+00 0.  1.
        -13    1    3    3    0    0  0.18825313031E+03 -0.21852988537E+03 -0.33778821141E+03  0.44417949934E+03  0.00000000000E+00 0. -1.
         22    1    1    2    0    0 -0.40736483657E+03  0.65690941436E+03  0.34923264495E+03  0.84819781245E+03  0.00000000000E+00 0. -1.
<mgrwt>
<rscale>  0 0.20081481E+04</rscale>
<asrwt>0</asrwt>
<pdfrwt beam="1">  1        2 0.21137515E+00 0.20081481E+04</pdfrwt>
<pdfrwt beam="2">  1       -2 0.11288880E+00 0.20081481E+04</pdfrwt>
<totfact> 0.85805044E+00</totfact>
</mgrwt>
</event>
<event>
 6    1  0.5040916E-004  0.1172724E+04  0.7818608E-02  0.9137072E-01
         -2   -1    0    0    0  501 -0.00000000000E+00  0.00000000000E+00  0.21085064658E+03  0.21085064658E+03  0.00000000000E+00 0. -1.
          2   -1    0    0  501    0  0.00000000000E+00 -0.00000000000E+00 -0.16306356205E+04  0.16306356205E+04  0.00000000000E+00 0.  1.
         23    2    1    2    0    0 -0.55399181250E+03  0.17618140165E+03 -0.77067045234E+03  0.97011007008E+03  0.96092597819E+02 0.  0.
         11    1    3    3    0    0 -0.39501148865E+03  0.10756994706E+03 -0.60475510762E+03  0.73029727500E+03  0.00000000000E+00 0. -1.
        -11    1    3    3    0    0 -0.15898032384E+03  0.68611454586E+02 -0.16591534472E+03  0.23981279508E+03  0.00000000000E+00 0.  1.
         22    1    1    2    0    0  0.55399181250E+03 -0.17618140165E+03 -0.64911452161E+03  0.87137619704E+03  0.00000000000E+00 0. -1.
<mgrwt>
<rscale>  0 0.11727243E+04</rscale>
<asrwt>0</asrwt>
<pdfrwt beam="1">  1        2 0.25086703E+00 0.11727243E+04</pdfrwt>
<pdfrwt beam="2">  1       -2 0.32438560E-01 0.11727243E+04</pdfrwt>
<totfact> 0.93783642E+01</totfact>
</mgrwt>
</event>
<event>
 6    1  0.5040916E-004  0.2360307E+04  0.7818608E-02  0.8454515E-01
          2   -1    0    0  501    0  0.00000000000E+00  0.00000000000E+00  0.27713611183E+04  0.27713611183E+04  0.00000000000E+00 0.  1.
         -2   -1    0    0    0  501 -0.00000000000E+00 -0.00000000000E+00 -0.50255522089E+03  0.50255522089E+03  0.00000000000E+00 0. -1.
         23    2    1    2    0    0 -0.50346597573E+03  0.24311449849E+03  0.25749370863E+04  0.26365004994E+04  0.90836318794E+02 0.  0.
         11    1    3    3    0    0 -0.43140891750E+03  0.19680427746E+03  0.20144310511E+04  0.20694873852E+04  0.00000000000E+00 0. -1.
        -11    1    3    3    0    0 -0.72057058236E+02  0.46310221028E+02  0.56050603518E+03  0.56701311421E+03  0.00000000000E+00 0.  1.
         22    1    1    2    0    0  0.50346597573E+03 -0.24311449849E+03 -0.30613118885E+03  0.63741583984E+03  0.00000000000E+00 0. -1.
<mgrwt>
<rscale>  0 0.23603068E+04</rscale>
<asrwt>0</asrwt>
<pdfrwt beam="1">  1        2 0.42636324E+00 0.23603068E+04</pdfrwt>
<pdfrwt beam="2">  1       -2 0.77316190E-01 0.23603068E+04</pdfrwt>
<totfact> 0.32401748E+00</totfact>
</mgrwt>
</event>
<event>
 6    1  0.5040916E-004  0.2540040E+04  0.7818608E-02  0.8388858E-01
         -2   -1    0    0    0  501 -0.00000000000E+00  0.00000000000E+00  0.49216869940E+03  0.49216869940E+03  0.00000000000E+00 0. -1.
          2   -1    0    0  501    0  0.00000000000E+00 -0.00000000000E+00 -0.32772314049E+04  0.32772314049E+04  0.00000000000E+00 0.  1.
         23    2    1    2    0    0 -0.73100354844E+03 -0.58328940656E+03 -0.26659617671E+04  0.28266500032E+04  0.89472773704E+02 0.  0.
         13    1    3    3    0    0 -0.45693890181E+03 -0.38052377252E+03 -0.18155442828E+04  0.19104430231E+04  0.00000000000E+00 0.  1.
        -13    1    3    3    0    0 -0.27406464663E+03 -0.20276563404E+03 -0.85041748428E+03  0.91620698014E+03  0.00000000000E+00 0. -1.
         22    1    1    2    0    0  0.73100354844E+03  0.58328940656E+03 -0.11910093841E+03  0.94275010112E+03  0.00000000000E+00 0. -1.
<mgrwt>
<rscale>  0 0.25400399E+04</rscale>
<asrwt>0</asrwt>
<pdfrwt beam="1">  1        2 0.50418945E+00 0.25400399E+04</pdfrwt>
<pdfrwt beam="2">  1       -2 0.75718262E-01 0.25400399E+04</pdfrwt>
<totfact> 0.16037749E+00</totfact>
</mgrwt>
</event>
<event>
 6    1  0.5040916E-004  0.5042190E+04  0.7818608E-02  0.7822032E-01
          2   -1    0    0  501    0  0.00000000000E+00  0.00000000000E+00  0.48098637929E+04  0.48098637929E+04  0.00000000000E+00 0.  1.
         -2   -1    0    0    0  501 -0.00000000000E+00 -0.00000000000E+00 -0.13214343422E+04  0.13214343422E+04  0.00000000000E+00 0. -1.
         23    2    1    2    0    0  0.21127032684E+03  0.21295746196E+04  0.33635296891E+04  0.39876276470E+04  0.90105882059E+02 0.  0.
         13    1    3    3    0    0  0.29492371923E+02  0.61628118156E+03  0.10180429269E+04  0.11904132458E+04  0.00000000000E+00 0. -1.
        -13    1    3    3    0    0  0.18177795492E+03  0.15132934380E+04  0.23454867622E+04  0.27972144012E+04  0.00000000000E+00 0.  1.
         22    1    1    2    0    0 -0.21127032684E+03 -0.21295746196E+04  0.12489976162E+03  0.21436704881E+04  0.00000000000E+00 0. -1.
<mgrwt>
<rscale>  0 0.50421897E+04</rscale>
<asrwt>0</asrwt>
<pdfrwt beam="1">  1        2 0.73997904E+00 0.50421897E+04</pdfrwt>
<pdfrwt beam="2">  1       -2 0.20329759E+00 0.50421897E+04</pdfrwt>
<totfact> 0.52513540E-03</totfact>
</mgrwt>
</event>
<event>
 6    1  0.5040916E-004  0.9395512E+03  0.7818608E-02  0.9377448E-01
         -2   -1    0    0    0  501 -0.00000000000E+00  0.00000000000E+00  0.37776722901E+03  0.37776722901E+03  0.00000000000E+00 0. -1.
          2   -1    0    0  501    0  0.00000000000E+00 -0.00000000000E+00 -0.58419341518E+03  0.58419341518E+03  0.00000000000E+00 0.  1.
         23    2    1    2    0    0  0.16223237433E+03  0.12009518627E+03 -0.53362468455E+03  0.57751161715E+03  0.89566550292E+02 0.  0.
         13    1    3    3    0    0  0.43580623054E+02  0.18395619880E+02 -0.24274978873E+03  0.24731584960E+03  0.00000000000E+00 0.  1.
        -13    1    3    3    0    0  0.11865175128E+03  0.10169956639E+03 -0.29087489583E+03  0.33019576755E+03  0.00000000000E+00 0. -1.
         22    1    1    2    0    0 -0.16223237433E+03 -0.12009518627E+03  0.32719849838E+03  0.38444902704E+03  0.00000000000E+00 0. -1.
<mgrwt>
<rscale>  0 0.93955123E+03</rscale>
<asrwt>0</asrwt>
<pdfrwt beam="1">  1        2 0.89875910E-01 0.93955123E+03</pdfrwt>
<pdfrwt beam="2">  1       -2 0.58118035E-01 0.93955123E+03</pdfrwt>
<totfact> 0.14217118E+02</totfact>
</mgrwt>
</event>
<event>
 6    1  0.5040916E-004  0.6259683E+03  0.7818608E-02  0.9852948E-01
          3   -1    0    0  501    0  0.00000000000E+00  0.00000000000E+00  0.27210984023E+03  0.27210984023E+03  0.00000000000E+00 0.  1.
         -3   -1    0    0    0  501 -0.00000000000E+00 -0.00000000000E+00 -0.35999830274E+03  0.35999830274E+03  0.00000000000E+00 0. -1.
         23    2    1    2    0    0 -0.18180004355E+03 -0.41158789778E+02  0.20058047521E+03  0.28865562830E+03  0.91346827535E+02 0.  0.
         11    1    3    3    0    0 -0.10763144894E+03  0.21553027044E+02  0.94687987154E+02  0.14496508782E+03  0.00000000000E+00 0.  1.
        -11    1    3    3    0    0 -0.74168594615E+02 -0.62711816822E+02  0.10589248805E+03  0.14369054048E+03  0.00000000000E+00 0. -1.
         22    1    1    2    0    0  0.18180004355E+03  0.41158789778E+02 -0.28846893772E+03  0.34345251468E+03  0.00000000000E+00 0. -1.
<mgrwt>
<rscale>  0 0.62596831E+03</rscale>
<asrwt>0</asrwt>
<pdfrwt beam="1">  1        3 0.41863053E-01 0.62596831E+03</pdfrwt>
<pdfrwt beam="2">  1       -3 0.55384354E-01 0.62596831E+03</pdfrwt>
<totfact> 0.47962048E+01</totfact>
</mgrwt>
</event>
<event>
 6    1  0.5040916E-004  0.3460674E+04  0.7818608E-02  0.8123173E-01
         -2   -1    0    0    0  501 -0.00000000000E+00  0.00000000000E+00  0.17853853526E+04  0.17853853526E+04  0.00000000000E+00 0. -1.
          2   -1    0    0  501    0  0.00000000000E+00 -0.00000000000E+00 -0.16769860379E+04  0.16769860379E+04  0.00000000000E+00 0.  1.
         23    2    1    2    0    0 -0.11300642983E+04 -0.24274476137E+03 -0.12326239278E+04  0.16919720925E+04  0.86240808484E+02 0.  0.
         13    1    3    3    0    0 -0.50935774875E+03 -0.15233697573E+03 -0.57897643312E+03  0.78604426116E+03  0.00000000000E+00 0.  1.
        -13    1    3    3    0    0 -0.62070654953E+03 -0.90407785642E+02 -0.65364749470E+03  0.90592783137E+03  0.00000000000E+00 0. -1.
         22    1    1    2    0    0  0.11300642983E+04  0.24274476137E+03  0.13410232425E+04  0.17703992980E+04  0.00000000000E+00 0. -1.
<mgrwt>
<rscale>  0 0.34606741E+04</rscale>
<asrwt>0</asrwt>
<pdfrwt beam="1">  1        2 0.25799785E+00 0.34606741E+04</pdfrwt>
<pdfrwt beam="2">  1       -2 0.27467467E+00 0.34606741E+04</pdfrwt>
<totfact> 0.37788917E-01</totfact>
</mgrwt>
</event>
<event>
 6    1  0.5040916E-004  0.2399709E+04  0.7818608E-02  0.8439612E-01
          2   -1    0    0  501    0  0.00000000000E+00  0.00000000000E+00  0.20353429578E+04  0.20353429578E+04  0.00000000000E+00 0.  1.
         -2   -1    0    0    0  501 -0.00000000000E+00 -0.00000000000E+00 -0.70732603342E+03  0.70732603342E+03  0.00000000000E+00 0. -1.
         23    2    1    2    0    0  0.11083970928E+04 -0.45501036964E+03  0.68456876894E+03  0.13826674910E+04  0.86927783285E+02 0.  0.
         13    1    3    3    0    0  0.85191354912E+03 -0.35150630252E+03  0.56774234382E+03  0.10824253992E+04  0.00000000000E+00 0.  1.
        -13    1    3    3    0    0  0.25648354369E+03 -0.10350406711E+03  0.11682642513E+03  0.30024209182E+03  0.00000000000E+00 0. -1.
         22    1    1    2    0    0 -0.11083970928E+04  0.45501036964E+03  0.64344815544E+03  0.13600015002E+04  0.00000000000E+00 0. -1.
<mgrwt>
<rscale>  0 0.23997092E+04</rscale>
<asrwt>0</asrwt>
<pdfrwt beam="1">  1        2 0.31312968E+00 0.23997092E+04</pdfrwt>
<pdfrwt beam="2">  1       -2 0.10881939E+00 0.23997092E+04</pdfrwt>
<totfact> 0.38721601E+00</totfact>
</mgrwt>
</event>
<event>
 6    1  0.5040916E-004  0.1607704E+04  0.7818608E-02  0.8815829E-01
         -2   -1    0    0    0  501 -0.00000000000E+00  0.00000000000E+00  0.42103597674E+03  0.42103597674E+03  0.00000000000E+00 0. -1.
          2   -1    0    0  501    0  0.00000000000E+00 -0.00000000000E+00 -0.15347342420E+04  0.15347342420E+04  0.00000000000E+00 0.  1.
         23    2    1    2    0    0  0.72671872825E+03 -0.32095749692E+03 -0.68608447781E+03  0.10535577294E+04  0.90211715265E+02 0.  0.
         13    1    3    3    0    0  0.53261142590E+03 -0.25045194696E+03 -0.55490814853E+03  0.80890306097E+03  0.00000000000E+00 0.  1.
        -13    1    3    3    0    0  0.19410730235E+03 -0.70505549954E+02 -0.13117632929E+03  0.24465466839E+03  0.00000000000E+00 0. -1.
         22    1    1    2    0    0 -0.72671872825E+03  0.32095749692E+03 -0.42761378749E+03  0.90221248943E+03  0.00000000000E+00 0. -1.
<mgrwt>
<rscale>  0 0.16077044E+04</rscale>
<asrwt>0</asrwt>
<pdfrwt beam="1">  1        2 0.23611296E+00 0.16077044E+04</pdfrwt>
<pdfrwt beam="2">  1       -2 0.64774766E-01 0.16077044E+04</pdfrwt>
<totfact> 0.25574650E+01</totfact>
</mgrwt>
</event>
<event>
 6    1  0.5040916E-004  0.2556633E+04  0.7818608E-02  0.8383083E-01
         -1   -1    0    0    0  501 -0.00000000000E+00  0.00000000000E+00  0.11837627357E+04  0.11837627357E+04  0.00000000000E+00 0.  1.
          1   -1    0    0  501    0  0.00000000000E+00 -0.00000000000E+00 -0.13804231075E+04  0.13804231075E+04  0.00000000000E+00 0. -1.
         23    2    1    2    0    0  0.20034935720E+03  0.42975818159E+03  0.10903933418E+04  0.11925666463E+04  0.91791102051E+02 0.  0.
         13    1    3    3    0    0  0.10040891725E+03  0.31395491349E+03  0.72240562271E+03  0.79405259403E+03  0.00000000000E+00 0. -1.
        -13    1    3    3    0    0  0.99940439951E+02  0.11580326809E+03  0.36798771914E+03  0.39851405229E+03  0.00000000000E+00 0.  1.
         22    1    1    2    0    0 -0.20034935720E+03 -0.42975818159E+03 -0.12870537136E+04  0.13716191969E+04  0.00000000000E+00 0. -1.
<mgrwt>
<rscale>  0 0.25566333E+04</rscale>
<asrwt>0</asrwt>
<pdfrwt beam="1">  1        1 0.21237279E+00 0.25566333E+04</pdfrwt>
<pdfrwt beam="2">  1       -1 0.18211734E+00 0.25566333E+04</pdfrwt>
<totfact> 0.14090456E+00</totfact>
</mgrwt>
</event>
<event>
 6    1  0.5040916E-004  0.2714681E+04  0.7818608E-02  0.8330257E-01
          2   -1    0    0  501    0  0.00000000000E+00  0.00000000000E+00  0.14947676239E+04  0.14947676239E+04  0.00000000000E+00 0.  1.
         -2   -1    0    0    0  501 -0.00000000000E+00 -0.00000000000E+00 -0.12325484139E+04  0.12325484139E+04  0.00000000000E+00 0. -1.
         23    2    1    2    0    0  0.80967838290E+03 -0.16604954140E+03 -0.94861451455E+03  0.12612772107E+04  0.88312915923E+02 0.  0.
         13    1    3    3    0    0  0.36383101512E+02  0.99617025326E+01 -0.52078821264E+02  0.64305281410E+02  0.00000000000E+00 0. -1.
        -13    1    3    3    0    0  0.77329528139E+03 -0.17601124393E+03 -0.89653569328E+03  0.11969719293E+04  0.00000000000E+00 0.  1.
         22    1    1    2    0    0 -0.80967838290E+03  0.16604954140E+03  0.12108337246E+04  0.14660388271E+04  0.00000000000E+00 0.  1.
<mgrwt>
<rscale>  0 0.27146812E+04</rscale>
<asrwt>0</asrwt>
<pdfrwt beam="1">  1        2 0.22996425E+00 0.27146812E+04</pdfrwt>
<pdfrwt beam="2">  1       -2 0.18962283E+00 0.27146812E+04</pdfrwt>
<totfact> 0.17462230E+00</totfact>
</mgrwt>
</event>
<event>
 6    1  0.6556721E-004  0.2830620E+04  0.7818608E-02  0.8293825E-01
         -2   -1    0    0    0  501 -0.00000000000E+00  0.00000000000E+00  0.10894305118E+04  0.10894305118E+04  0.00000000000E+00 0. -1.
          2   -1    0    0  501    0  0.00000000000E+00 -0.00000000000E+00 -0.18386698178E+04  0.18386698178E+04  0.00000000000E+00 0.  1.
         23    2    1    2    0    0 -0.63060032420E+02 -0.88221330011E+03 -0.15159903307E+04  0.17575517367E+04  0.92111614990E+02 0.  0.
         13    1    3    3    0    0 -0.70868905489E+02 -0.55217584626E+03 -0.88804821325E+03  0.10481174533E+04  0.00000000000E+00 0.  1.
        -13    1    3    3    0    0  0.78088730695E+01 -0.33003745385E+03 -0.62794211747E+03  0.70943428331E+03  0.00000000000E+00 0. -1.
         22    1    1    2    0    0  0.63060032420E+02  0.88221330011E+03  0.76675102470E+03  0.11705485929E+04  0.00000000000E+00 0. -1.
<mgrwt>
<rscale>  0 0.28306204E+04</rscale>
<asrwt>0</asrwt>
<pdfrwt beam="1">  1        2 0.28287228E+00 0.28306204E+04</pdfrwt>
<pdfrwt beam="2">  1       -2 0.16760470E+00 0.28306204E+04</pdfrwt>
<totfact> 0.15806395E+00</totfact>
</mgrwt>
</event>
<event>
 6    1  0.5040916E-004  0.2773898E+04  0.7818608E-02  0.8311418E-01
          2   -1    0    0  501    0  0.00000000000E+00  0.00000000000E+00  0.96935498354E+03  0.96935498354E+03  0.00000000000E+00 0.  1.
         -2   -1    0    0    0  501 -0.00000000000E+00 -0.00000000000E+00 -0.19844405728E+04  0.19844405728E+04  0.00000000000E+00 0. -1.
         23    2    1    2    0    0  0.25231820827E+03  0.11968820645E+04 -0.12008568140E+04  0.17165800931E+04  0.91645914122E+02 0.  0.
         13    1    3    3    0    0  0.95763694819E+02  0.27934972340E+03 -0.26818841820E+03  0.39891350048E+03  0.00000000000E+00 0.  1.
        -13    1    3    3    0    0  0.15655451345E+03  0.91753234112E+03 -0.93266839582E+03  0.13176665926E+04  0.00000000000E+00 0. -1.
         22    1    1    2    0    0 -0.25231820827E+03 -0.11968820645E+04  0.18577122477E+03  0.12372154633E+04  0.00000000000E+00 0.  1.
<mgrwt>
<rscale>  0 0.27738979E+04</rscale>
<asrwt>0</asrwt>
<pdfrwt beam="1">  1        2 0.14913154E+00 0.27738979E+04</pdfrwt>
<pdfrwt beam="2">  1       -2 0.30529855E+00 0.27738979E+04</pdfrwt>
<totfact> 0.67812895E-01</totfact>
</mgrwt>
</event>
<event>
 6    1  0.5040916E-004  0.1845038E+04  0.7818608E-02  0.8682709E-01
          2   -1    0    0  501    0  0.00000000000E+00  0.00000000000E+00  0.82434631336E+03  0.82434631336E+03  0.00000000000E+00 0.  1.
         -2   -1    0    0    0  501 -0.00000000000E+00 -0.00000000000E+00 -0.10323830779E+04  0.10323830779E+04  0.00000000000E+00 0. -1.
         23    2    1    2    0    0  0.55216595789E+03  0.47969126545E+03 -0.66625814631E+03  0.99362001816E+03  0.91596221291E+02 0.  0.
         11    1    3    3    0    0  0.52554555513E+03  0.42952556717E+03 -0.59596667650E+03  0.90325335475E+03  0.00000000000E+00 0.  1.
        -11    1    3    3    0    0  0.26620402760E+02  0.50165698280E+02 -0.70291469810E+02  0.90366663406E+02  0.00000000000E+00 0. -1.
         22    1    1    2    0    0 -0.55216595789E+03 -0.47969126545E+03  0.45822138179E+03  0.86310937310E+03  0.00000000000E+00 0. -1.
<mgrwt>
<rscale>  0 0.18450379E+04</rscale>
<asrwt>0</asrwt>
<pdfrwt beam="1">  1        2 0.12682251E+00 0.18450379E+04</pdfrwt>
<pdfrwt beam="2">  1       -2 0.15882817E+00 0.18450379E+04</pdfrwt>
<totfact> 0.79954810E+00</totfact>
</mgrwt>
</event>
<event>
 6    1  0.5040916E-004  0.2812029E+04  0.7818608E-02  0.8299544E-01
          2   -1    0    0  501    0  0.00000000000E+00  0.00000000000E+00  0.14235563932E+04  0.14235563932E+04  0.00000000000E+00 0.  1.
         -2   -1    0    0    0  501 -0.00000000000E+00 -0.00000000000E+00 -0.13886889274E+04  0.13886889274E+04  0.00000000000E+00 0. -1.
         23    2    1    2    0    0  0.56572803631E+02  0.96662191487E+03 -0.10009933954E+04  0.13943009874E+04  0.67298270967E+02 0.  0.
         13    1    3    3    0    0  0.23458528659E+02  0.18966870822E+03 -0.16443708129E+03  0.25211916854E+03  0.00000000000E+00 0. -1.
        -13    1    3    3    0    0  0.33114274973E+02  0.77695320665E+03 -0.83655631416E+03  0.11421818188E+04  0.00000000000E+00 0.  1.
         22    1    1    2    0    0 -0.56572803631E+02 -0.96662191487E+03  0.10358608613E+04  0.14179443333E+04  0.00000000000E+00 0.  1.
<mgrwt>
<rscale>  0 0.28120292E+04</rscale>
<asrwt>0</asrwt>
<pdfrwt beam="1">  1        2 0.21900868E+00 0.28120292E+04</pdfrwt>
<pdfrwt beam="2">  1       -2 0.21364445E+00 0.28120292E+04</pdfrwt>
<totfact> 0.13232107E+00</totfact>
</mgrwt>
</event>
<event>
 6    1  0.5040916E-004  0.1606715E+04  0.7818608E-02  0.8816433E-01
         -1   -1    0    0    0  501 -0.00000000000E+00  0.00000000000E+00  0.61941320006E+03  0.61941320006E+03  0.00000000000E+00 0. -1.
          1   -1    0    0  501    0  0.00000000000E+00 -0.00000000000E+00 -0.10419272109E+04  0.10419272109E+04  0.00000000000E+00 0.  1.
         23    2    1    2    0    0  0.25561831320E+03 -0.35050498955E+03  0.48390462518E+03  0.65645772453E+03  0.92620667691E+02 0.  0.
         11    1    3    3    0    0  0.16707555781E+03 -0.26575442256E+03  0.29182218876E+03  0.42860219899E+03  0.00000000000E+00 0.  1.
        -11    1    3    3    0    0  0.88542755387E+02 -0.84750566985E+02  0.19208243643E+03  0.22785552554E+03  0.00000000000E+00 0. -1.
         22    1    1    2    0    0 -0.25561831320E+03  0.35050498955E+03 -0.90641863600E+03  0.10048826864E+04  0.00000000000E+00 0.  1.
<mgrwt>
<rscale>  0 0.16067152E+04</rscale>
<asrwt>0</asrwt>
<pdfrwt beam="1">  1        1 0.16029649E+00 0.16067152E+04</pdfrwt>
<pdfrwt beam="2">  1       -1 0.95294339E-01 0.16067152E+04</pdfrwt>
<totfact> 0.14318496E+01</totfact>
</mgrwt>
</event>
<event>
 6    1  0.5040916E-004  0.2635462E+04  0.7818608E-02  0.8356254E-01
         -2   -1    0    0    0  501 -0.00000000000E+00  0.00000000000E+00  0.10242411682E+04  0.10242411682E+04  0.00000000000E+00 0. -1.
          2   -1    0    0  501    0  0.00000000000E+00 -0.00000000000E+00 -0.16953189082E+04  0.16953189082E+04  0.00000000000E+00 0.  1.
         23    2    1    2    0    0  0.20263187750E+03 -0.11781836646E+04 -0.90399601790E+03  0.15015997530E+04  0.91741987729E+02 0.  0.
         13    1    3    3    0    0  0.12900268031E+03 -0.74746295799E+03 -0.62819948854E+03  0.98487418612E+03  0.00000000000E+00 0.  1.
        -13    1    3    3    0    0  0.73629197192E+02 -0.43072070664E+03 -0.27579652936E+03  0.51672556683E+03  0.00000000000E+00 0. -1.
         22    1    1    2    0    0 -0.20263187750E+03  0.11781836646E+04  0.23291827791E+03  0.12179603235E+04  0.00000000000E+00 0. -1.
<mgrwt>
<rscale>  0 0.26354623E+04</rscale>
<asrwt>0</asrwt>
<pdfrwt beam="1">  1        2 0.26081829E+00 0.26354623E+04</pdfrwt>
<pdfrwt beam="2">  1       -2 0.15757557E+00 0.26354623E+04</pdfrwt>
<totfact> 0.22851014E+00</totfact>
</mgrwt>
</event>
<event>
 6    1  0.5040916E-004  0.3789789E+04  0.7818608E-02  0.8048350E-01
         -2   -1    0    0    0  501 -0.00000000000E+00  0.00000000000E+00  0.15729311651E+04  0.15729311651E+04  0.00000000000E+00 0. -1.
          2   -1    0    0  501    0  0.00000000000E+00 -0.00000000000E+00 -0.22827599614E+04  0.22827599614E+04  0.00000000000E+00 0.  1.
         23    2    1    2    0    0 -0.75961008897E+03 -0.11559005065E+04 -0.16705875979E+04  0.21715976188E+04  0.10890283469E+03 0.  0.
         13    1    3    3    0    0 -0.44995695062E+03 -0.76151243262E+03 -0.10172219855E+04  0.13479996329E+04  0.00000000000E+00 0. -1.
        -13    1    3    3    0    0 -0.30965313835E+03 -0.39438807387E+03 -0.65336561234E+03  0.82359798585E+03  0.00000000000E+00 0.  1.
         22    1    1    2    0    0  0.75961008897E+03  0.11559005065E+04  0.96075880153E+03  0.16840935078E+04  0.00000000000E+00 0. -1.
<mgrwt>
<rscale>  0 0.37897885E+04</rscale>
<asrwt>0</asrwt>
<pdfrwt beam="1">  1        2 0.35119384E+00 0.37897885E+04</pdfrwt>
<pdfrwt beam="2">  1       -2 0.24198941E+00 0.37897885E+04</pdfrwt>
<totfact> 0.26794356E-01</totfact>
</mgrwt>
</event>
<event>
 6    1  0.5040916E-004  0.1807304E+04  0.7818608E-02  0.8702425E-01
         -2   -1    0    0    0  501 -0.00000000000E+00  0.00000000000E+00  0.81578582052E+03  0.81578582052E+03  0.00000000000E+00 0. -1.
          2   -1    0    0  501    0  0.00000000000E+00 -0.00000000000E+00 -0.10009822369E+04  0.10009822369E+04  0.00000000000E+00 0.  1.
         23    2    1    2    0    0  0.41758607462E+03  0.71832643587E+03  0.25915325295E+03  0.87452730962E+03  0.85244404900E+02 0.  0.
         11    1    3    3    0    0  0.62412046385E+02  0.17630937353E+03  0.65976821994E+02  0.19832599368E+03  0.00000000000E+00 0.  1.
        -11    1    3    3    0    0  0.35517402824E+03  0.54201706234E+03  0.19317643096E+03  0.67620131594E+03  0.00000000000E+00 0. -1.
         22    1    1    2    0    0 -0.41758607462E+03 -0.71832643587E+03 -0.44434966936E+03  0.94224074782E+03  0.00000000000E+00 0.  1.
<mgrwt>
<rscale>  0 0.18073042E+04</rscale>
<asrwt>0</asrwt>
<pdfrwt beam="1">  1        2 0.15399727E+00 0.18073042E+04</pdfrwt>
<pdfrwt beam="2">  1       -2 0.12550551E+00 0.18073042E+04</pdfrwt>
<totfact> 0.11264233E+01</totfact>
</mgrwt>
</event>
<event>
 6    1  0.5146001E-004  0.1749596E+04  0.7818608E-02  0.8733573E-01
          2   -1    0    0  501    0  0.00000000000E+00  0.00000000000E+00  0.13464813575E+04  0.13464813575E+04  0.00000000000E+00 0.  1.
         -2   -1    0    0    0  501 -0.00000000000E+00 -0.00000000000E+00 -0.56834911769E+03  0.56834911769E+03  0.00000000000E+00 0. -1.
         23    2    1    2    0    0 -0.37839906306E+03  0.34028457919E+03  0.11656742939E+04  0.12751678380E+04  0.90978073505E+02 0.  0.
         11    1    3    3    0    0 -0.59610553091E+02  0.10311758871E+03  0.29373395414E+03  0.31696417929E+03  0.00000000000E+00 0.  1.
        -11    1    3    3    0    0 -0.31878850997E+03  0.23716699048E+03  0.87194033974E+03  0.95820365870E+03  0.00000000000E+00 0. -1.
         22    1    1    2    0    0  0.37839906306E+03 -0.34028457919E+03 -0.38754205407E+03  0.63966263720E+03  0.00000000000E+00 0. -1.
<mgrwt>
<rscale>  0 0.17495959E+04</rscale>
<asrwt>0</asrwt>
<pdfrwt beam="1">  1        2 0.20715098E+00 0.17495959E+04</pdfrwt>
<pdfrwt beam="2">  1       -2 0.87438326E-01 0.17495959E+04</pdfrwt>
<totfact> 0.16631929E+01</totfact>
</mgrwt>
</event>
<event>
 6    1  0.5040916E-004  0.2784688E+04  0.7818608E-02  0.8308038E-01
         -1   -1    0    0    0  501 -0.00000000000E+00  0.00000000000E+00  0.13865303362E+04  0.13865303362E+04  0.00000000000E+00 0. -1.
          1   -1    0    0  501    0  0.00000000000E+00 -0.00000000000E+00 -0.13981822657E+04  0.13981822657E+04  0.00000000000E+00 0.  1.
         23    2    1    2    0    0  0.10444089308E+04 -0.87695747885E+03 -0.27893812955E+03  0.13950053135E+04  0.91590994083E+02 0.  0.
         11    1    3    3    0    0  0.14982365912E+03 -0.16918580207E+03 -0.38922235258E+02  0.22931616788E+03  0.00000000000E+00 0.  1.
        -11    1    3    3    0    0  0.89458527169E+03 -0.70777167679E+03 -0.24001589429E+03  0.11656891457E+04  0.00000000000E+00 0. -1.
         22    1    1    2    0    0 -0.10444089308E+04  0.87695747885E+03  0.26728620006E+03  0.13897072883E+04  0.00000000000E+00 0.  1.
<mgrwt>
<rscale>  0 0.27846882E+04</rscale>
<asrwt>0</asrwt>
<pdfrwt beam="1">  1        1 0.21510496E+00 0.27846882E+04</pdfrwt>
<pdfrwt beam="2">  1       -1 0.21331236E+00 0.27846882E+04</pdfrwt>
<totfact> 0.81545899E-01</totfact>
</mgrwt>
</event>
<event>
 6    1  0.5040916E-004  0.3253293E+04  0.7818608E-02  0.8174883E-01
         -2   -1    0    0    0  501 -0.00000000000E+00  0.00000000000E+00  0.11070125705E+04  0.11070125705E+04  0.00000000000E+00 0. -1.
          2   -1    0    0  501    0  0.00000000000E+00 -0.00000000000E+00 -0.23901972710E+04  0.23901972710E+04  0.00000000000E+00 0.  1.
         23    2    1    2    0    0  0.53283957545E+03 -0.67407849997E+03  0.84089418586E+03  0.12059196039E+04  0.94017136677E+02 0.  0.
         13    1    3    3    0    0  0.15844783517E+03 -0.25247219098E+03  0.24833910044E+03  0.38796937057E+03  0.00000000000E+00 0. -1.
        -13    1    3    3    0    0  0.37439174028E+03 -0.42160630899E+03  0.59255508542E+03  0.81795023335E+03  0.00000000000E+00 0.  1.
         22    1    1    2    0    0 -0.53283957545E+03  0.67407849997E+03 -0.21240788864E+04  0.22912902376E+04  0.00000000000E+00 0.  1.
<mgrwt>
<rscale>  0 0.32532927E+04</rscale>
<asrwt>0</asrwt>
<pdfrwt beam="1">  1        2 0.36772265E+00 0.32532927E+04</pdfrwt>
<pdfrwt beam="2">  1       -2 0.17030963E+00 0.32532927E+04</pdfrwt>
<totfact> 0.71591104E-01</totfact>
</mgrwt>
</event>
<event>
 6    1  0.5040916E-004  0.4661020E+03  0.7818608E-02  0.1023026E+00
          2   -1    0    0  501    0  0.00000000000E+00  0.00000000000E+00  0.19830731541E+03  0.19830731541E+03  0.00000000000E+00 0.  1.
         -2   -1    0    0    0  501 -0.00000000000E+00 -0.00000000000E+00 -0.27388186522E+03  0.27388186522E+03  0.00000000000E+00 0. -1.
         23    2    1    2    0    0 -0.20157667416E+03  0.35097850573E+02  0.53769910611E+02  0.23012513101E+03  0.90561349131E+02 0.  0.
         11    1    3    3    0    0 -0.57474448088E+02 -0.21664873636E+02 -0.10730102629E+02  0.62352337847E+02  0.00000000000E+00 0.  1.
        -11    1    3    3    0    0 -0.14410222607E+03  0.56762724209E+02  0.64500013239E+02  0.16777279316E+03  0.00000000000E+00 0. -1.
         22    1    1    2    0    0  0.20157667416E+03 -0.35097850573E+02 -0.12934446041E+03  0.24206404962E+03  0.00000000000E+00 0. -1.
<mgrwt>
<rscale>  0 0.46610204E+03</rscale>
<asrwt>0</asrwt>
<pdfrwt beam="1">  1        2 0.30508818E-01 0.46610204E+03</pdfrwt>
<pdfrwt beam="2">  1       -2 0.42135672E-01 0.46610204E+03</pdfrwt>
<totfact> 0.93380235E+02</totfact>
</mgrwt>
</event>
<event>
 6    1  0.5040916E-004  0.6969129E+03  0.7818608E-02  0.9722526E-01
          1   -1    0    0  501    0  0.00000000000E+00  0.00000000000E+00  0.11968302660E+04  0.11968302660E+04  0.00000000000E+00 0.  1.
         -1   -1    0    0    0  501 -0.00000000000E+00 -0.00000000000E+00 -0.10145290127E+03  0.10145290127E+03  0.00000000000E+00 0. -1.
         23    2    1    2    0    0  0.50995505554E+01 -0.23329397146E+03  0.10242545109E+04  0.10543353391E+04  0.89853333325E+02 0.  0.
         13    1    3    3    0    0 -0.14681411706E+02 -0.19103041751E+03  0.66457913762E+03  0.69164556994E+03  0.00000000000E+00 0. -1.
        -13    1    3    3    0    0  0.19780962261E+02 -0.42263553951E+02  0.35967537333E+03  0.36268976914E+03  0.00000000000E+00 0.  1.
         22    1    1    2    0    0 -0.50995505554E+01  0.23329397146E+03  0.71122853747E+02  0.24394782815E+03  0.00000000000E+00 0. -1.
<mgrwt>
<rscale>  0 0.69691292E+03</rscale>
<asrwt>0</asrwt>
<pdfrwt beam="1">  1        1 0.18412772E+00 0.69691292E+03</pdfrwt>
<pdfrwt beam="2">  1       -1 0.15608140E-01 0.69691292E+03</pdfrwt>
<totfact> 0.33634052E+02</totfact>
</mgrwt>
</event>
<event>
 6    1  0.5040916E-004  0.9390878E+03  0.7818608E-02  0.9377997E-01
         -2   -1    0    0    0  501 -0.00000000000E+00  0.00000000000E+00  0.34933551109E+03  0.34933551109E+03  0.00000000000E+00 0.  1.
          2   -1    0    0  501    0  0.00000000000E+00 -0.00000000000E+00 -0.63111665219E+03  0.63111665219E+03  0.00000000000E+00 0. -1.
         23    2    1    2    0    0  0.34094436046E+03 -0.23901592914E+03  0.73810583169E+02  0.43289655362E+03  0.92626954150E+02 0.  0.
         11    1    3    3    0    0  0.26064011938E+03 -0.16778151421E+03  0.93481507091E+02  0.32376334028E+03  0.00000000000E+00 0.  1.
        -11    1    3    3    0    0  0.80304241082E+02 -0.71234414929E+02 -0.19670923922E+02  0.10913321334E+03  0.00000000000E+00 0. -1.
         22    1    1    2    0    0 -0.34094436046E+03  0.23901592914E+03 -0.35559172426E+03  0.54755560966E+03  0.00000000000E+00 0. -1.
<mgrwt>
<rscale>  0 0.93908777E+03</rscale>
<asrwt>0</asrwt>
<pdfrwt beam="1">  1        2 0.97094868E-01 0.93908777E+03</pdfrwt>
<pdfrwt beam="2">  1       -2 0.53743925E-01 0.93908777E+03</pdfrwt>
<totfact> 0.15236198E+02</totfact>
</mgrwt>
</event>
<event>
 6    1  0.5040916E-004  0.4287892E+04  0.7818608E-02  0.7948861E-01
          2   -1    0    0  501    0  0.00000000000E+00  0.00000000000E+00  0.27185775199E+04  0.27185775199E+04  0.00000000000E+00 0.  1.
         -2   -1    0    0    0  501 -0.00000000000E+00 -0.00000000000E+00 -0.16907756847E+04  0.16907756847E+04  0.00000000000E+00 0. -1.
         23    2    1    2    0    0 -0.19324361544E+04  0.94846662897E+02 -0.43338530962E+03  0.19848175269E+04  0.91500864485E+02 0.  0.
         13    1    3    3    0    0 -0.14377507824E+04  0.11048168397E+03 -0.32111848305E+03  0.14773119491E+04  0.00000000000E+00 0.  1.
        -13    1    3    3    0    0 -0.49468537200E+03 -0.15635021073E+02 -0.11226682656E+03  0.50750557780E+03  0.00000000000E+00 0. -1.
         22    1    1    2    0    0  0.19324361544E+04 -0.94846662897E+02  0.14611871449E+04  0.24245356777E+04  0.00000000000E+00 0.  1.
<mgrwt>
<rscale>  0 0.42878921E+04</rscale>
<asrwt>0</asrwt>
<pdfrwt beam="1">  1        2 0.41824269E+00 0.42878921E+04</pdfrwt>
<pdfrwt beam="2">  1       -2 0.26011934E+00 0.42878921E+04</pdfrwt>
<totfact> 0.11111544E-01</totfact>
</mgrwt>
</event>
<event>
 6    1  0.5040916E-004  0.2257383E+04  0.7818608E-02  0.8494916E-01
          1   -1    0    0  501    0  0.00000000000E+00  0.00000000000E+00  0.23418754068E+04  0.23418754068E+04  0.00000000000E+00 0.  1.
         -1   -1    0    0    0  501 -0.00000000000E+00 -0.00000000000E+00 -0.54398487719E+03  0.54398487719E+03  0.00000000000E+00 0. -1.
         23    2    1    2    0    0  0.16831534855E+03  0.52369663594E+03  0.21576869865E+04  0.22285614832E+04  0.91021590020E+02 0.  0.
         13    1    3    3    0    0  0.48366463444E+02  0.23395189738E+03  0.10841948633E+04  0.11102032726E+04  0.00000000000E+00 0.  1.
        -13    1    3    3    0    0  0.11994888511E+03  0.28974473856E+03  0.10734921232E+04  0.11183582106E+04  0.00000000000E+00 0. -1.
         22    1    1    2    0    0 -0.16831534855E+03 -0.52369663594E+03 -0.35979645690E+03  0.65729880074E+03  0.00000000000E+00 0. -1.
<mgrwt>
<rscale>  0 0.22573833E+04</rscale>
<asrwt>0</asrwt>
<pdfrwt beam="1">  1        1 0.36028852E+00 0.22573833E+04</pdfrwt>
<pdfrwt beam="2">  1       -1 0.83689983E-01 0.22573833E+04</pdfrwt>
<totfact> 0.22373537E+00</totfact>
</mgrwt>
</event>
<event>
 6    1  0.5040916E-004  0.1564813E+04  0.7818608E-02  0.8842461E-01
          4   -1    0    0  501    0  0.00000000000E+00  0.00000000000E+00  0.81339895437E+03  0.81339895437E+03  0.00000000000E+00 0.  1.
         -4   -1    0    0    0  501 -0.00000000000E+00 -0.00000000000E+00 -0.75259471768E+03  0.75259471768E+03  0.00000000000E+00 0. -1.
         23    2    1    2    0    0 -0.17678019248E+03  0.30977200110E+02 -0.72879778794E+03  0.75625162628E+03  0.92517474876E+02 0.  0.
         11    1    3    3    0    0 -0.18239021413E+03  0.41306230359E+02 -0.64268322034E+03  0.66933856648E+03  0.00000000000E+00 0. -1.
        -11    1    3    3    0    0  0.56100216572E+01 -0.10329030249E+02 -0.86114567606E+02  0.86913059795E+02  0.00000000000E+00 0.  1.
         22    1    1    2    0    0  0.17678019248E+03 -0.30977200110E+02  0.78960202464E+03  0.80974204577E+03  0.00000000000E+00 0.  1.
<mgrwt>
<rscale>  0 0.15648128E+04</rscale>
<asrwt>0</asrwt>
<pdfrwt beam="1">  1        4 0.12513830E+00 0.15648128E+04</pdfrwt>
<pdfrwt beam="2">  1       -4 0.11578380E+00 0.15648128E+04</pdfrwt>
<totfact> 0.53005183E-01</totfact>
</mgrwt>
</event>
<event>
 6    1  0.5040916E-004  0.1742778E+04  0.7818608E-02  0.8737336E-01
          2   -1    0    0  501    0  0.00000000000E+00  0.00000000000E+00  0.12293091525E+04  0.12293091525E+04  0.00000000000E+00 0.  1.
         -2   -1    0    0    0  501 -0.00000000000E+00 -0.00000000000E+00 -0.61767907331E+03  0.61767907331E+03  0.00000000000E+00 0. -1.
         23    2    1    2    0    0 -0.56034787254E+03  0.42662574515E+03  0.84621938901E+03  0.11046733270E+04  0.90645685491E+02 0.  0.
         11    1    3    3    0    0 -0.31780935105E+03  0.25859371897E+03  0.55739292160E+03  0.69178057515E+03  0.00000000000E+00 0.  1.
        -11    1    3    3    0    0 -0.24253852149E+03  0.16803202618E+03  0.28882646740E+03  0.41289275182E+03  0.00000000000E+00 0. -1.
         22    1    1    2    0    0  0.56034787254E+03 -0.42662574515E+03 -0.23458930985E+03  0.74231489880E+03  0.00000000000E+00 0. -1.
<mgrwt>
<rscale>  0 0.17427777E+04</rscale>
<asrwt>0</asrwt>
<pdfrwt beam="1">  1        2 0.18912448E+00 0.17427777E+04</pdfrwt>
<pdfrwt beam="2">  1       -2 0.95027550E-01 0.17427777E+04</pdfrwt>
<totfact> 0.16072892E+01</totfact>
</mgrwt>
</event>
<event>
 6    1  0.5040916E-004  0.2228663E+04  0.7818608E-02  0.8506592E-01
         -2   -1    0    0    0  501 -0.00000000000E+00  0.00000000000E+00  0.50059111757E+03  0.50059111757E+03  0.00000000000E+00 0. -1.
          2   -1    0    0  501    0  0.00000000000E+00 -0.00000000000E+00 -0.24805364866E+04  0.24805364866E+04  0.00000000000E+00 0.  1.
         23    2    1    2    0    0 -0.41837082953E+03  0.51849821287E+03  0.19959706783E+03  0.70203133990E+03  0.95574394904E+02 0.  0.
         11    1    3    3    0    0 -0.14651078160E+03  0.20041392538E+03  0.28187399438E+02  0.24985131598E+03  0.00000000000E+00 0. -1.
        -11    1    3    3    0    0 -0.27186004793E+03  0.31808428748E+03  0.17140966840E+03  0.45218002391E+03  0.00000000000E+00 0.  1.
         22    1    1    2    0    0  0.41837082953E+03 -0.51849821287E+03 -0.21795424369E+04  0.22790962643E+04  0.00000000000E+00 0.  1.
<mgrwt>
<rscale>  0 0.22286629E+04</rscale>
<asrwt>0</asrwt>
<pdfrwt beam="1">  1        2 0.38162100E+00 0.22286629E+04</pdfrwt>
<pdfrwt beam="2">  1       -2 0.77014018E-01 0.22286629E+04</pdfrwt>
<totfact> 0.49044571E+00</totfact>
</mgrwt>
</event>
<event>
 6    1  0.5040916E-004  0.1487112E+04  0.7818608E-02  0.8893069E-01
         -1   -1    0    0    0  501 -0.00000000000E+00  0.00000000000E+00  0.78437742755E+03  0.78437742755E+03  0.00000000000E+00 0. -1.
          1   -1    0    0  501    0  0.00000000000E+00 -0.00000000000E+00 -0.70485912366E+03  0.70485912366E+03  0.00000000000E+00 0.  1.
         23    2    1    2    0    0  0.19605497745E+03 -0.63688697348E+03  0.36373482076E+03  0.76477702878E+03  0.92294705938E+02 0.  0.
         13    1    3    3    0    0  0.88903032331E+02 -0.22349397667E+03  0.86412267567E+02  0.25557853343E+03  0.00000000000E+00 0.  1.
        -13    1    3    3    0    0  0.10715194512E+03 -0.41339299681E+03  0.27732255319E+03  0.50919849535E+03  0.00000000000E+00 0. -1.
         22    1    1    2    0    0 -0.19605497745E+03  0.63688697348E+03 -0.28421651688E+03  0.72445952243E+03  0.00000000000E+00 0.  1.
<mgrwt>
<rscale>  0 0.14871121E+04</rscale>
<asrwt>0</asrwt>
<pdfrwt beam="1">  1        1 0.10843987E+00 0.14871121E+04</pdfrwt>
<pdfrwt beam="2">  1       -1 0.12067345E+00 0.14871121E+04</pdfrwt>
<totfact> 0.15945538E+01</totfact>
</mgrwt>
</event>
<event>
 6    1  0.5040916E-004  0.2081453E+04  0.7818608E-02  0.8569458E-01
          2   -1    0    0  501    0  0.00000000000E+00  0.00000000000E+00  0.15940935467E+04  0.15940935467E+04  0.00000000000E+00 0.  1.
         -2   -1    0    0    0  501 -0.00000000000E+00 -0.00000000000E+00 -0.67945269803E+03  0.67945269803E+03  0.00000000000E+00 0. -1.
         23    2    1    2    0    0 -0.29041202909E+03 -0.50025951934E+03  0.14005723113E+04  0.15180807460E+04  0.91474691077E+02 0.  0.
         11    1    3    3    0    0 -0.26137348266E+03 -0.37745023587E+03  0.10773732173E+04  0.11711181953E+04  0.00000000000E+00 0.  1.
        -11    1    3    3    0    0 -0.29038546429E+02 -0.12280928347E+03  0.32319909393E+03  0.34696255072E+03  0.00000000000E+00 0. -1.
         22    1    1    2    0    0  0.29041202909E+03  0.50025951934E+03 -0.48593146261E+03  0.75546549867E+03  0.00000000000E+00 0. -1.
<mgrwt>
<rscale>  0 0.20814525E+04</rscale>
<asrwt>0</asrwt>
<pdfrwt beam="1">  1        2 0.24524516E+00 0.20814525E+04</pdfrwt>
<pdfrwt beam="2">  1       -2 0.10453118E+00 0.20814525E+04</pdfrwt>
<totfact> 0.77068724E+00</totfact>
</mgrwt>
</event>
<event>
 6    1  0.5040916E-004  0.4774853E+04  0.7818608E-02  0.7864209E-01
          2   -1    0    0  501    0  0.00000000000E+00  0.00000000000E+00  0.32358979704E+04  0.32358979704E+04  0.00000000000E+00 0.  1.
         -2   -1    0    0    0  501 -0.00000000000E+00 -0.00000000000E+00 -0.17614289791E+04  0.17614289791E+04  0.00000000000E+00 0. -1.
         23    2    1    2    0    0 -0.87651594615E+03  0.17301690346E+04 -0.71797335556E+03  0.20701152154E+04  0.90145293319E+02 0.  0.
         11    1    3    3    0    0 -0.61949520175E+03  0.12981364087E+04 -0.55328129760E+03  0.15411205776E+04  0.00000000000E+00 0.  1.
        -11    1    3    3    0    0 -0.25702074440E+03  0.43203262591E+03 -0.16469205796E+03  0.52899463783E+03  0.00000000000E+00 0. -1.
         22    1    1    2    0    0  0.87651594615E+03 -0.17301690346E+04  0.21924423469E+04  0.29272117341E+04  0.00000000000E+00 0.  1.
<mgrwt>
<rscale>  0 0.47748527E+04</rscale>
<asrwt>0</asrwt>
<pdfrwt beam="1">  1        2 0.49783045E+00 0.47748527E+04</pdfrwt>
<pdfrwt beam="2">  1       -2 0.27098908E+00 0.47748527E+04</pdfrwt>
<totfact> 0.43467561E-02</totfact>
</mgrwt>
</event>
<event>
 6    1  0.5040916E-004  0.1246160E+04  0.7818608E-02  0.9073385E-01
          2   -1    0    0  501    0  0.00000000000E+00  0.00000000000E+00  0.39995946990E+03  0.39995946990E+03  0.00000000000E+00 0.  1.
         -2   -1    0    0    0  501 -0.00000000000E+00 -0.00000000000E+00 -0.97067028137E+03  0.97067028137E+03  0.00000000000E+00 0. -1.
         23    2    1    2    0    0  0.10241670090E+03 -0.35882816032E+03  0.25733904670E+03  0.46238231975E+03  0.91253467837E+02 0.  0.
         11    1    3    3    0    0 -0.17257729366E+02 -0.47807370051E+02  0.30970451391E+02  0.59519263381E+02  0.00000000000E+00 0. -1.
        -11    1    3    3    0    0  0.11967443026E+03 -0.31102079027E+03  0.22636859531E+03  0.40286305636E+03  0.00000000000E+00 0.  1.
         22    1    1    2    0    0 -0.10241670090E+03  0.35882816032E+03 -0.82804985817E+03  0.90824743153E+03  0.00000000000E+00 0. -1.
<mgrwt>
<rscale>  0 0.12461601E+04</rscale>
<asrwt>0</asrwt>
<pdfrwt beam="1">  1        2 0.61532227E-01 0.12461601E+04</pdfrwt>
<pdfrwt beam="2">  1       -2 0.14933389E+00 0.12461601E+04</pdfrwt>
<totfact> 0.23694881E+01</totfact>
</mgrwt>
</event>
<event>
 6    1  0.5040916E-004  0.1467515E+04  0.7818608E-02  0.8906347E-01
         -2   -1    0    0    0  501 -0.00000000000E+00  0.00000000000E+00  0.15142443110E+04  0.15142443110E+04  0.00000000000E+00 0. -1.
          2   -1    0    0  501    0  0.00000000000E+00 -0.00000000000E+00 -0.35555703998E+03  0.35555703998E+03  0.00000000000E+00 0.  1.
         23    2    1    2    0    0  0.59281254765E+03 -0.11916890150E+03  0.11048492406E+04  0.12627375345E+04  0.90478134144E+02 0.  0.
         11    1    3    3    0    0  0.43152732557E+03 -0.12063483907E+03  0.76516903899E+03  0.88670866429E+03  0.00000000000E+00 0.  1.
        -11    1    3    3    0    0  0.16128522208E+03  0.14659375634E+01  0.33968020164E+03  0.37602887020E+03  0.00000000000E+00 0. -1.
         22    1    1    2    0    0 -0.59281254765E+03  0.11916890150E+03  0.53838030354E+02  0.60706381646E+03  0.00000000000E+00 0.  1.
<mgrwt>
<rscale>  0 0.14675152E+04</rscale>
<asrwt>0</asrwt>
<pdfrwt beam="1">  1        2 0.54701084E-01 0.14675152E+04</pdfrwt>
<pdfrwt beam="2">  1       -2 0.23296066E+00 0.14675152E+04</pdfrwt>
<totfact> 0.72041075E+00</totfact>
</mgrwt>
</event>
<event>
 6    1  0.5040916E-004  0.4081934E+03  0.7818608E-02  0.1040979E+00
         -2   -1    0    0    0  501 -0.00000000000E+00  0.00000000000E+00  0.60019071644E+02  0.60019071644E+02  0.00000000000E+00 0. -1.
          2   -1    0    0  501    0  0.00000000000E+00 -0.00000000000E+00 -0.69403714681E+03  0.69403714681E+03  0.00000000000E+00 0.  1.
         23    2    1    2    0    0 -0.14923661894E+03 -0.10623108999E+03 -0.44823050944E+03  0.49314697659E+03  0.93417011348E+02 0.  0.
         11    1    3    3    0    0 -0.14311809294E+03 -0.55845345388E+02 -0.35901922338E+03  0.39050773857E+03  0.00000000000E+00 0.  1.
        -11    1    3    3    0    0 -0.61185259978E+01 -0.50385744599E+02 -0.89211286068E+02  0.10263923802E+03  0.00000000000E+00 0. -1.
         22    1    1    2    0    0  0.14923661894E+03  0.10623108999E+03 -0.18578756572E+03  0.26090924186E+03  0.00000000000E+00 0. -1.
<mgrwt>
<rscale>  0 0.40819341E+03</rscale>
<asrwt>0</asrwt>
<pdfrwt beam="1">  1        2 0.10677494E+00 0.40819341E+03</pdfrwt>
<pdfrwt beam="2">  1       -2 0.92337038E-02 0.40819341E+03</pdfrwt>
<totfact> 0.32117894E+03</totfact>
</mgrwt>
</event>
<event>
 6    1  0.5040916E-004  0.2662285E+04  0.7818608E-02  0.8347347E-01
         -2   -1    0    0    0  501 -0.00000000000E+00  0.00000000000E+00  0.18434923392E+04  0.18434923392E+04  0.00000000000E+00 0. -1.
          2   -1    0    0  501    0  0.00000000000E+00 -0.00000000000E+00 -0.96118671190E+03  0.96118671190E+03  0.00000000000E+00 0.  1.
         23    2    1    2    0    0  0.13833959707E+03  0.98488727608E+03 -0.48784971331E+03  0.11116148326E+04  0.92462978856E+02 0.  0.
         13    1    3    3    0    0  0.88250818161E+02  0.75387667745E+03 -0.41040293127E+03  0.86287242261E+03  0.00000000000E+00 0. -1.
        -13    1    3    3    0    0  0.50088778912E+02  0.23101059863E+03 -0.77446782047E+02  0.24874240994E+03  0.00000000000E+00 0.  1.
         22    1    1    2    0    0 -0.13833959707E+03 -0.98488727608E+03  0.13701553406E+04  0.16930642185E+04  0.00000000000E+00 0. -1.
<mgrwt>
<rscale>  0 0.26622850E+04</rscale>
<asrwt>0</asrwt>
<pdfrwt beam="1">  1        2 0.14787488E+00 0.26622850E+04</pdfrwt>
<pdfrwt beam="2">  1       -2 0.28361420E+00 0.26622850E+04</pdfrwt>
<totfact> 0.94030178E-01</totfact>
</mgrwt>
</event>
<event>
 6    1  0.5040916E-004  0.4359172E+04  0.7818608E-02  0.7935766E-01
          2   -1    0    0  501    0  0.00000000000E+00  0.00000000000E+00  0.38267770340E+04  0.38267770340E+04  0.00000000000E+00 0.  1.
         -2   -1    0    0    0  501 -0.00000000000E+00 -0.00000000000E+00 -0.12414087346E+04  0.12414087346E+04  0.00000000000E+00 0. -1.
         23    2    1    2    0    0  0.16366099117E+04  0.24262292311E+03 -0.35442611711E+03  0.16947973983E+04  0.96759821584E+02 0.  0.
         11    1    3    3    0    0  0.13038948187E+04  0.23163174532E+03 -0.29129774576E+03  0.13559680455E+04  0.00000000000E+00 0. -1.
        -11    1    3    3    0    0  0.33271509296E+03  0.10991177789E+02 -0.63128371353E+02  0.33882935284E+03  0.00000000000E+00 0.  1.
         22    1    1    2    0    0 -0.16366099117E+04 -0.24262292311E+03  0.29397944165E+04  0.33733883703E+04  0.00000000000E+00 0.  1.
<mgrwt>
<rscale>  0 0.43591717E+04</rscale>
<asrwt>0</asrwt>
<pdfrwt beam="1">  1        2 0.58873492E+00 0.43591717E+04</pdfrwt>
<pdfrwt beam="2">  1       -2 0.19098596E+00 0.43591717E+04</pdfrwt>
<totfact> 0.54638468E-02</totfact>
</mgrwt>
</event>
<event>
 6    1  0.5040916E-004  0.6844976E+03  0.7818608E-02  0.9744117E-01
         -2   -1    0    0    0  501 -0.00000000000E+00  0.00000000000E+00  0.50281513570E+02  0.50281513570E+02  0.00000000000E+00 0. -1.
          2   -1    0    0  501    0  0.00000000000E+00 -0.00000000000E+00 -0.23295687590E+04  0.23295687590E+04  0.00000000000E+00 0.  1.
         23    2    1    2    0    0 -0.72394536229E+02 -0.12889933651E+03 -0.22096039833E+04  0.22164129303E+04  0.90997290274E+02 0.  0.
         11    1    3    3    0    0 -0.86289027281E+02 -0.12267278450E+03 -0.17063582815E+04  0.17129369495E+04  0.00000000000E+00 0.  1.
        -11    1    3    3    0    0  0.13894491052E+02 -0.62265520137E+01 -0.50324570180E+03  0.50347598077E+03  0.00000000000E+00 0. -1.
         22    1    1    2    0    0  0.72394536229E+02  0.12889933651E+03 -0.69683262168E+02  0.16343734229E+03  0.00000000000E+00 0. -1.
<mgrwt>
<rscale>  0 0.68449761E+03</rscale>
<asrwt>0</asrwt>
<pdfrwt beam="1">  1        2 0.35839510E+00 0.68449761E+03</pdfrwt>
<pdfrwt beam="2">  1       -2 0.77356194E-02 0.68449761E+03</pdfrwt>
<totfact> 0.47017039E+02</totfact>
</mgrwt>
</event>
<event>
 6    1  0.5040916E-004  0.1441091E+04  0.7818608E-02  0.8924600E-01
          2   -1    0    0  501    0  0.00000000000E+00  0.00000000000E+00  0.26100496845E+04  0.26100496845E+04  0.00000000000E+00 0.  1.
         -2   -1    0    0    0  501 -0.00000000000E+00 -0.00000000000E+00 -0.19891795599E+03  0.19891795599E+03  0.00000000000E+00 0. -1.
         23    2    1    2    0    0  0.45434449940E+03 -0.98584817891E+02  0.22761004771E+04  0.23248381854E+04  0.89951743220E+02 0.  0.
         13    1    3    3    0    0  0.19139391600E+03 -0.37172512225E+02  0.74390944775E+03  0.76903491026E+03  0.00000000000E+00 0.  1.
        -13    1    3    3    0    0  0.26295058340E+03 -0.61412305666E+02  0.15321910293E+04  0.15558032751E+04  0.00000000000E+00 0. -1.
         22    1    1    2    0    0 -0.45434449940E+03  0.98584817891E+02  0.13503125149E+03  0.48412945514E+03  0.00000000000E+00 0. -1.
<mgrwt>
<rscale>  0 0.14410909E+04</rscale>
<asrwt>0</asrwt>
<pdfrwt beam="1">  1        2 0.40154608E+00 0.14410909E+04</pdfrwt>
<pdfrwt beam="2">  1       -2 0.30602764E-01 0.14410909E+04</pdfrwt>
<totfact> 0.28903935E+01</totfact>
</mgrwt>
</event>
<event>
 6    1  0.5040916E-004  0.1142573E+04  0.7818608E-02  0.9164663E-01
         -2   -1    0    0    0  501 -0.00000000000E+00  0.00000000000E+00  0.11765516485E+03  0.11765516485E+03  0.00000000000E+00 0. -1.
          2   -1    0    0  501    0  0.00000000000E+00 -0.00000000000E+00 -0.27739402612E+04  0.27739402612E+04  0.00000000000E+00 0.  1.
         23    2    1    2    0    0  0.55561264142E+03  0.24662127822E+00 -0.10424001397E+04  0.11847474183E+04  0.91230071092E+02 0.  0.
         11    1    3    3    0    0  0.11401470095E+03 -0.13358366578E+02 -0.14917684369E+03  0.18823264511E+03  0.00000000000E+00 0. -1.
        -11    1    3    3    0    0  0.44159794047E+03  0.13604987856E+02 -0.89322329601E+03  0.99651477323E+03  0.00000000000E+00 0.  1.
         22    1    1    2    0    0 -0.55561264142E+03 -0.24662127822E+00 -0.16138849566E+04  0.17068480077E+04  0.00000000000E+00 0.  1.
<mgrwt>
<rscale>  0 0.11425732E+04</rscale>
<asrwt>0</asrwt>
<pdfrwt beam="1">  1        2 0.42676003E+00 0.11425732E+04</pdfrwt>
<pdfrwt beam="2">  1       -2 0.18100795E-01 0.11425732E+04</pdfrwt>
<totfact> 0.61170067E+01</totfact>
</mgrwt>
</event>
<event>
 6    1  0.5941290E-004  0.3231197E+04  0.7818608E-02  0.8180626E-01
         -2   -1    0    0    0  501 -0.00000000000E+00  0.00000000000E+00  0.13436150533E+04  0.13436150533E+04  0.00000000000E+00 0. -1.
          2   -1    0    0  501    0  0.00000000000E+00 -0.00000000000E+00 -0.19426388489E+04  0.19426388489E+04  0.00000000000E+00 0.  1.
         23    2    1    2    0    0  0.50603346830E+03 -0.10438122232E+04  0.84203823863E+03  0.14363150884E+04  0.91426525590E+02 0.  0.
         13    1    3    3    0    0  0.14456198352E+03 -0.31766012343E+03  0.30501449506E+03  0.46350832064E+03  0.00000000000E+00 0. -1.
        -13    1    3    3    0    0  0.36147148478E+03 -0.72615209976E+03  0.53702374356E+03  0.97280676779E+03  0.00000000000E+00 0.  1.
         22    1    1    2    0    0 -0.50603346830E+03  0.10438122232E+04 -0.14410620342E+04  0.18499388138E+04  0.00000000000E+00 0.  1.
<mgrwt>
<rscale>  0 0.32311972E+04</rscale>
<asrwt>0</asrwt>
<pdfrwt beam="1">  1        2 0.29886751E+00 0.32311972E+04</pdfrwt>
<pdfrwt beam="2">  1       -2 0.20671001E+00 0.32311972E+04</pdfrwt>
<totfact> 0.72627175E-01</totfact>
</mgrwt>
</event>
<event>
 6    1  0.5040916E-004  0.3169962E+04  0.7818608E-02  0.8196795E-01
          2   -1    0    0  501    0  0.00000000000E+00  0.00000000000E+00  0.29492395777E+04  0.29492395777E+04  0.00000000000E+00 0.  1.
         -2   -1    0    0    0  501 -0.00000000000E+00 -0.00000000000E+00 -0.85180085634E+03  0.85180085634E+03  0.00000000000E+00 0. -1.
         23    2    1    2    0    0  0.11066369864E+04 -0.11321806314E+04  0.10037462320E+04  0.18768154828E+04  0.91931802583E+02 0.  0.
         13    1    3    3    0    0  0.10485479104E+04 -0.10942401743E+04  0.97256609236E+03  0.18007495893E+04  0.00000000000E+00 0.  1.
        -13    1    3    3    0    0  0.58089076065E+02 -0.37940457112E+02  0.31180139632E+02  0.76065893484E+02  0.00000000000E+00 0. -1.
         22    1    1    2    0    0 -0.11066369864E+04  0.11321806314E+04  0.10936924894E+04  0.19242249513E+04  0.00000000000E+00 0. -1.
<mgrwt>
<rscale>  0 0.31699620E+04</rscale>
<asrwt>0</asrwt>
<pdfrwt beam="1">  1        2 0.45372916E+00 0.31699620E+04</pdfrwt>
<pdfrwt beam="2">  1       -2 0.13104629E+00 0.31699620E+04</pdfrwt>
<totfact> 0.67239790E-01</totfact>
</mgrwt>
</event>
<event>
 6    1  0.5040916E-004  0.1679272E+04  0.7818608E-02  0.8773276E-01
          2   -1    0    0  501    0  0.00000000000E+00  0.00000000000E+00  0.20562025072E+04  0.20562025072E+04  0.00000000000E+00 0.  1.
         -2   -1    0    0    0  501 -0.00000000000E+00 -0.00000000000E+00 -0.34285939664E+03  0.34285939664E+03  0.00000000000E+00 0. -1.
         23    2    1    2    0    0  0.60399641890E+03 -0.45386216104E+03  0.13745196701E+04  0.15710499118E+04  0.89949799233E+02 0.  0.
         13    1    3    3    0    0  0.25263131327E+03 -0.21525372319E+03  0.52181112187E+03  0.61842023956E+03  0.00000000000E+00 0. -1.
        -13    1    3    3    0    0  0.35136510562E+03 -0.23860843786E+03  0.85270854827E+03  0.95262967220E+03  0.00000000000E+00 0.  1.
         22    1    1    2    0    0 -0.60399641890E+03  0.45386216104E+03  0.33882344046E+03  0.82801199211E+03  0.00000000000E+00 0. -1.
<mgrwt>
<rscale>  0 0.16792717E+04</rscale>
<asrwt>0</asrwt>
<pdfrwt beam="1">  1        2 0.31633884E+00 0.16792717E+04</pdfrwt>
<pdfrwt beam="2">  1       -2 0.52747600E-01 0.16792717E+04</pdfrwt>
<totfact> 0.20092432E+01</totfact>
</mgrwt>
</event>
<event>
 6    1  0.5040916E-004  0.3638948E+04  0.7818608E-02  0.8081628E-01
         -2   -1    0    0    0  501 -0.00000000000E+00  0.00000000000E+00  0.17498189354E+04  0.17498189354E+04  0.00000000000E+00 0. -1.
          2   -1    0    0  501    0  0.00000000000E+00 -0.00000000000E+00 -0.18919016557E+04  0.18919016557E+04  0.00000000000E+00 0.  1.
         23    2    1    2    0    0  0.60021685564E+02  0.18063185326E+04 -0.27099512751E+03  0.18298134045E+04  0.91594170149E+02 0.  0.
         13    1    3    3    0    0  0.35465625311E+02  0.13176121540E+04 -0.15717755644E+03  0.13274277318E+04  0.00000000000E+00 0. -1.
        -13    1    3    3    0    0  0.24556060252E+02  0.48870637861E+03 -0.11381757107E+03  0.50238567264E+03  0.00000000000E+00 0.  1.
         22    1    1    2    0    0 -0.60021685564E+02 -0.18063185326E+04  0.12891240720E+03  0.18119071866E+04  0.00000000000E+00 0. -1.
<mgrwt>
<rscale>  0 0.36389478E+04</rscale>
<asrwt>0</asrwt>
<pdfrwt beam="1">  1        2 0.29106179E+00 0.36389478E+04</pdfrwt>
<pdfrwt beam="2">  1       -2 0.26920291E+00 0.36389478E+04</pdfrwt>
<totfact> 0.30553632E-01</totfact>
</mgrwt>
</event>
<event>
 6    1  0.6657458E-004  0.4262229E+04  0.7818608E-02  0.7953639E-01
         -2   -1    0    0    0  501 -0.00000000000E+00  0.00000000000E+00  0.20613423295E+04  0.20613423295E+04  0.00000000000E+00 0. -1.
          2   -1    0    0  501    0  0.00000000000E+00 -0.00000000000E+00 -0.22032481267E+04  0.22032481267E+04  0.00000000000E+00 0.  1.
         23    2    1    2    0    0 -0.51394536201E+03  0.20485573730E+04  0.20630744927E+03  0.21240345446E+04  0.90734983604E+02 0.  0.
         13    1    3    3    0    0 -0.34101402892E+03  0.15160161625E+04  0.16385100650E+03  0.15625116721E+04  0.00000000000E+00 0. -1.
        -13    1    3    3    0    0 -0.17293133310E+03  0.53254121047E+03  0.42456442772E+02  0.56152287251E+03  0.00000000000E+00 0.  1.
         22    1    1    2    0    0  0.51394536201E+03 -0.20485573730E+04 -0.34821324649E+03  0.21405559116E+04  0.00000000000E+00 0. -1.
<mgrwt>
<rscale>  0 0.42622288E+04</rscale>
<asrwt>0</asrwt>
<pdfrwt beam="1">  1        2 0.33896125E+00 0.42622288E+04</pdfrwt>
<pdfrwt beam="2">  1       -2 0.31712959E+00 0.42622288E+04</pdfrwt>
<totfact> 0.99059219E-02</totfact>
</mgrwt>
</event>
<event>
 6    1  0.6203438E-004  0.2509747E+04  0.7818608E-02  0.8399521E-01
          2   -1    0    0  501    0  0.00000000000E+00  0.00000000000E+00  0.18482187555E+04  0.18482187555E+04  0.00000000000E+00 0.  1.
         -2   -1    0    0    0  501 -0.00000000000E+00 -0.00000000000E+00 -0.85201335404E+03  0.85201335404E+03  0.00000000000E+00 0. -1.
         23    2    1    2    0    0  0.64614035954E+03 -0.40622948640E+00 -0.65786060438E+03  0.92444161488E+03  0.65682534078E+02 0.  0.
         11    1    3    3    0    0  0.41893234909E+03  0.72550590040E+01 -0.46888977439E+03  0.62881998181E+03  0.00000000000E+00 0.  1.
        -11    1    3    3    0    0  0.22720801045E+03 -0.76612884904E+01 -0.18897082999E+03  0.29562163307E+03  0.00000000000E+00 0. -1.
         22    1    1    2    0    0 -0.64614035954E+03  0.40622948640E+00  0.16540660058E+04  0.17757904946E+04  0.00000000000E+00 0.  1.
<mgrwt>
<rscale>  0 0.25097466E+04</rscale>
<asrwt>0</asrwt>
<pdfrwt beam="1">  1        2 0.28434135E+00 0.25097466E+04</pdfrwt>
<pdfrwt beam="2">  1       -2 0.13107898E+00 0.25097466E+04</pdfrwt>
<totfact> 0.30751429E+00</totfact>
</mgrwt>
</event>
<event>
 6    1  0.5040916E-004  0.2183860E+04  0.7818608E-02  0.8525176E-01
         -2   -1    0    0    0  501 -0.00000000000E+00  0.00000000000E+00  0.11223610943E+04  0.11223610943E+04  0.00000000000E+00 0. -1.
          2   -1    0    0  501    0  0.00000000000E+00 -0.00000000000E+00 -0.10623236369E+04  0.10623236369E+04  0.00000000000E+00 0.  1.
         23    2    1    2    0    0 -0.36806337058E+03  0.91028081426E+03 -0.44348304194E+03  0.10812289329E+04  0.91087822182E+02 0.  0.
         13    1    3    3    0    0 -0.23794640521E+03  0.52993410592E+03 -0.30465070612E+03  0.65594260504E+03  0.00000000000E+00 0. -1.
        -13    1    3    3    0    0 -0.13011696537E+03  0.38034670834E+03 -0.13883233582E+03  0.42528632789E+03  0.00000000000E+00 0.  1.
         22    1    1    2    0    0  0.36806337058E+03 -0.91028081426E+03  0.50352049934E+03  0.11034557983E+04  0.00000000000E+00 0. -1.
<mgrwt>
<rscale>  0 0.21838596E+04</rscale>
<asrwt>0</asrwt>
<pdfrwt beam="1">  1        2 0.16343441E+00 0.21838596E+04</pdfrwt>
<pdfrwt beam="2">  1       -2 0.17267094E+00 0.21838596E+04</pdfrwt>
<totfact> 0.42937924E+00</totfact>
</mgrwt>
</event>
<event>
 6    1  0.5593253E-004  0.2931937E+04  0.7818608E-02  0.8263438E-01
         -2   -1    0    0    0  501 -0.00000000000E+00  0.00000000000E+00  0.12280703091E+04  0.12280703091E+04  0.00000000000E+00 0. -1.
          2   -1    0    0  501    0  0.00000000000E+00 -0.00000000000E+00 -0.17499511775E+04  0.17499511775E+04  0.00000000000E+00 0.  1.
         23    2    1    2    0    0  0.93325685392E+03 -0.10111444745E+04  0.24817010357E+03  0.14012019018E+04  0.91634412459E+02 0.  0.
         11    1    3    3    0    0  0.54665828316E+03 -0.53198728978E+03  0.15771292916E+03  0.77892176953E+03  0.00000000000E+00 0. -1.
        -11    1    3    3    0    0  0.38659857076E+03 -0.47915718473E+03  0.90457174416E+02  0.62228013225E+03  0.00000000000E+00 0.  1.
         22    1    1    2    0    0 -0.93325685392E+03  0.10111444745E+04 -0.77005097198E+03  0.15768195848E+04  0.00000000000E+00 0.  1.
<mgrwt>
<rscale>  0 0.29319366E+04</rscale>
<asrwt>0</asrwt>
<pdfrwt beam="1">  1        2 0.26922326E+00 0.29319366E+04</pdfrwt>
<pdfrwt beam="2">  1       -2 0.18893389E+00 0.29319366E+04</pdfrwt>
<totfact> 0.12480059E+00</totfact>
</mgrwt>
</event>
<event>
 6    1  0.5040916E-004  0.1423686E+04  0.7818608E-02  0.8936850E-01
         -2   -1    0    0    0  501 -0.00000000000E+00  0.00000000000E+00  0.21865250705E+03  0.21865250705E+03  0.00000000000E+00 0. -1.
          2   -1    0    0  501    0  0.00000000000E+00 -0.00000000000E+00 -0.23174693618E+04  0.23174693618E+04  0.00000000000E+00 0.  1.
         23    2    1    2    0    0 -0.60119917472E+03 -0.29261422763E+03 -0.63339659308E+03  0.92537046741E+03  0.89753684822E+02 0.  0.
         13    1    3    3    0    0 -0.48683124974E+03 -0.27029830472E+03 -0.50155497460E+03  0.74941525993E+03  0.00000000000E+00 0.  1.
        -13    1    3    3    0    0 -0.11436792497E+03 -0.22315922909E+02 -0.13184161848E+03  0.17595520749E+03  0.00000000000E+00 0. -1.
         22    1    1    2    0    0  0.60119917472E+03  0.29261422763E+03 -0.14654202616E+04  0.16107514014E+04  0.00000000000E+00 0.  1.
<mgrwt>
<rscale>  0 0.14236860E+04</rscale>
<asrwt>0</asrwt>
<pdfrwt beam="1">  1        2 0.35653374E+00 0.14236860E+04</pdfrwt>
<pdfrwt beam="2">  1       -2 0.33638848E-01 0.14236860E+04</pdfrwt>
<totfact> 0.35654232E+01</totfact>
</mgrwt>
</event>
<event>
 6    1  0.5040916E-004  0.2297257E+04  0.7818608E-02  0.8479003E-01
         -2   -1    0    0    0  501 -0.00000000000E+00  0.00000000000E+00  0.77636786518E+03  0.77636786518E+03  0.00000000000E+00 0. -1.
          2   -1    0    0  501    0  0.00000000000E+00 -0.00000000000E+00 -0.16993849312E+04  0.16993849312E+04  0.00000000000E+00 0.  1.
         23    2    1    2    0    0  0.28640642189E+03  0.10472842003E+04 -0.64558010679E+02  0.10916340210E+04  0.93082030043E+02 0.  0.
         13    1    3    3    0    0  0.21223478027E+03  0.75443186399E+03 -0.50651684290E+01  0.78373254066E+03  0.00000000000E+00 0.  1.
        -13    1    3    3    0    0  0.74171641620E+02  0.29285233632E+03 -0.59492842250E+02  0.30790148033E+03  0.00000000000E+00 0. -1.
         22    1    1    2    0    0 -0.28640642189E+03 -0.10472842003E+04 -0.85845905536E+03  0.13841187754E+04  0.00000000000E+00 0.  1.
<mgrwt>
<rscale>  0 0.22972574E+04</rscale>
<asrwt>0</asrwt>
<pdfrwt beam="1">  1        2 0.26144383E+00 0.22972574E+04</pdfrwt>
<pdfrwt beam="2">  1       -2 0.11944121E+00 0.22972574E+04</pdfrwt>
<totfact> 0.47816711E+00</totfact>
</mgrwt>
</event>
<event>
 6    1  0.5040916E-004  0.2142674E+04  0.7818608E-02  0.8542675E-01
         -2   -1    0    0    0  501 -0.00000000000E+00  0.00000000000E+00  0.13568221324E+04  0.13568221324E+04  0.00000000000E+00 0. -1.
          2   -1    0    0  501    0  0.00000000000E+00 -0.00000000000E+00 -0.84591983003E+03  0.84591983003E+03  0.00000000000E+00 0.  1.
         23    2    1    2    0    0  0.55085038764E+03 -0.38746438672E+03 -0.59791030178E+03  0.90542542755E+03  0.93454135006E+02 0.  0.
         13    1    3    3    0    0  0.35413170627E+03 -0.24198309465E+03 -0.43860102975E+03  0.61346226190E+03  0.00000000000E+00 0.  1.
        -13    1    3    3    0    0  0.19671868137E+03 -0.14548129207E+03 -0.15930927203E+03  0.29196316565E+03  0.00000000000E+00 0. -1.
         22    1    1    2    0    0 -0.55085038764E+03  0.38746438672E+03  0.11088126041E+04  0.12973165348E+04  0.00000000000E+00 0.  1.
<mgrwt>
<rscale>  0 0.21426738E+04</rscale>
<asrwt>0</asrwt>
<pdfrwt beam="1">  1        2 0.13014151E+00 0.21426738E+04</pdfrwt>
<pdfrwt beam="2">  1       -2 0.20874187E+00 0.21426738E+04</pdfrwt>
<totfact> 0.34215245E+00</totfact>
</mgrwt>
</event>
<event>
 6    1  0.5040916E-004  0.5545021E+04  0.7818608E-02  0.7749525E-01
          2   -1    0    0  501    0  0.00000000000E+00  0.00000000000E+00  0.48875645530E+04  0.48875645530E+04  0.00000000000E+00 0.  1.
         -2   -1    0    0    0  501 -0.00000000000E+00 -0.00000000000E+00 -0.15727288978E+04  0.15727288978E+04  0.00000000000E+00 0. -1.
         23    2    1    2    0    0  0.25556061566E+04 -0.98428692209E+03  0.11599660981E+04  0.29755543816E+04  0.91972585594E+02 0.  0.
         13    1    3    3    0    0  0.12689557499E+04 -0.44119004315E+03  0.55565000540E+03  0.14538377756E+04  0.00000000000E+00 0. -1.
        -13    1    3    3    0    0  0.12866504067E+04 -0.54309687893E+03  0.60431609270E+03  0.15217166060E+04  0.00000000000E+00 0.  1.
         22    1    1    2    0    0 -0.25556061566E+04  0.98428692209E+03  0.21548695571E+04  0.34847390692E+04  0.00000000000E+00 0. -1.
<mgrwt>
<rscale>  0 0.55450208E+04</rscale>
<asrwt>0</asrwt>
<pdfrwt beam="1">  1        2 0.75193300E+00 0.55450208E+04</pdfrwt>
<pdfrwt beam="2">  1       -2 0.24195829E+00 0.55450208E+04</pdfrwt>
<totfact> 0.23267159E-03</totfact>
</mgrwt>
</event>
<event>
 6    1  0.5040916E-004  0.5695405E+04  0.7818608E-02  0.7729359E-01
         -2   -1    0    0    0  501 -0.00000000000E+00  0.00000000000E+00  0.17294423579E+04  0.17294423579E+04  0.00000000000E+00 0. -1.
          2   -1    0    0  501    0  0.00000000000E+00 -0.00000000000E+00 -0.46890313817E+04  0.46890313817E+04  0.00000000000E+00 0.  1.
         23    2    1    2    0    0  0.28326364286E+04 -0.86775552327E+02 -0.11742757212E+04  0.30690405455E+04  0.93419847309E+02 0.  0.
         13    1    3    3    0    0  0.11502033671E+04 -0.80334948866E+02 -0.46822359366E+03  0.12444496066E+04  0.00000000000E+00 0.  1.
        -13    1    3    3    0    0  0.16824330615E+04 -0.64406034610E+01 -0.70605212749E+03  0.18245909389E+04  0.00000000000E+00 0. -1.
         22    1    1    2    0    0 -0.28326364286E+04  0.86775552327E+02 -0.17853133027E+04  0.33494331941E+04  0.00000000000E+00 0.  1.
<mgrwt>
<rscale>  0 0.56954050E+04</rscale>
<asrwt>0</asrwt>
<pdfrwt beam="1">  1        2 0.72138942E+00 0.56954050E+04</pdfrwt>
<pdfrwt beam="2">  1       -2 0.26606806E+00 0.56954050E+04</pdfrwt>
<totfact> 0.27437797E-03</totfact>
</mgrwt>
</event>
<event>
 6    1  0.5040916E-004  0.4232378E+04  0.7818608E-02  0.7959242E-01
         -2   -1    0    0    0  501 -0.00000000000E+00  0.00000000000E+00  0.17273512046E+04  0.17273512046E+04  0.00000000000E+00 0. -1.
          2   -1    0    0  501    0  0.00000000000E+00 -0.00000000000E+00 -0.25925564074E+04  0.25925564074E+04  0.00000000000E+00 0.  1.
         23    2    1    2    0    0  0.11409597782E+04  0.15310564158E+04  0.49593889730E+03  0.19749905080E+04  0.93322843364E+02 0.  0.
         13    1    3    3    0    0  0.42154486485E+03  0.63555658069E+03  0.21708203008E+03  0.79294189454E+03  0.00000000000E+00 0. -1.
        -13    1    3    3    0    0  0.71941491332E+03  0.89549983508E+03  0.27885686722E+03  0.11820486134E+04  0.00000000000E+00 0.  1.
         22    1    1    2    0    0 -0.11409597782E+04 -0.15310564158E+04 -0.13611441001E+04  0.23449171041E+04  0.00000000000E+00 0.  1.
<mgrwt>
<rscale>  0 0.42323778E+04</rscale>
<asrwt>0</asrwt>
<pdfrwt beam="1">  1        2 0.39885483E+00 0.42323778E+04</pdfrwt>
<pdfrwt beam="2">  1       -2 0.26574634E+00 0.42323778E+04</pdfrwt>
<totfact> 0.12246444E-01</totfact>
</mgrwt>
</event>
<event>
 6    1  0.5040916E-004  0.2787029E+04  0.7818608E-02  0.8307307E-01
          2   -1    0    0  501    0  0.00000000000E+00  0.00000000000E+00  0.18262855453E+04  0.18262855453E+04  0.00000000000E+00 0.  1.
         -2   -1    0    0    0  501 -0.00000000000E+00 -0.00000000000E+00 -0.10632961224E+04  0.10632961224E+04  0.00000000000E+00 0. -1.
         23    2    1    2    0    0  0.13739803111E+04 -0.20626177926E+02  0.15229543339E+03  0.13858548030E+04  0.95667661339E+02 0.  0.
         11    1    3    3    0    0  0.46725015996E+03  0.11078761646E+02  0.10065286958E+02  0.46748985117E+03  0.00000000000E+00 0. -1.
        -11    1    3    3    0    0  0.90673015117E+03 -0.31704939572E+02  0.14223014643E+03  0.91836495185E+03  0.00000000000E+00 0.  1.
         22    1    1    2    0    0 -0.13739803111E+04  0.20626177926E+02  0.61069398958E+03  0.15037268647E+04  0.00000000000E+00 0.  1.
<mgrwt>
<rscale>  0 0.27870288E+04</rscale>
<asrwt>0</asrwt>
<pdfrwt beam="1">  1        2 0.28096701E+00 0.27870288E+04</pdfrwt>
<pdfrwt beam="2">  1       -2 0.16358402E+00 0.27870288E+04</pdfrwt>
<totfact> 0.17232992E+00</totfact>
</mgrwt>
</event>
<event>
 6    1  0.5040916E-004  0.3133561E+04  0.7818608E-02  0.8206587E-01
         -2   -1    0    0    0  501 -0.00000000000E+00  0.00000000000E+00  0.60250637398E+03  0.60250637398E+03  0.00000000000E+00 0. -1.
          2   -1    0    0  501    0  0.00000000000E+00 -0.00000000000E+00 -0.40743163280E+04  0.40743163280E+04  0.00000000000E+00 0.  1.
         23    2    1    2    0    0  0.26640938381E+03 -0.15223325628E+04 -0.21088071385E+04  0.26161803102E+04  0.94135416082E+02 0.  0.
         11    1    3    3    0    0  0.14752429301E+03 -0.96762190311E+03 -0.14017554568E+04  0.17096707066E+04  0.00000000000E+00 0.  1.
        -11    1    3    3    0    0  0.11888509080E+03 -0.55471065971E+03 -0.70705168165E+03  0.90650960356E+03  0.00000000000E+00 0. -1.
         22    1    1    2    0    0 -0.26640938381E+03  0.15223325628E+04 -0.13630028155E+04  0.20606423918E+04  0.00000000000E+00 0. -1.
<mgrwt>
<rscale>  0 0.31335613E+04</rscale>
<asrwt>0</asrwt>
<pdfrwt beam="1">  1        2 0.62681788E+00 0.31335613E+04</pdfrwt>
<pdfrwt beam="2">  1       -2 0.92693291E-01 0.31335613E+04</pdfrwt>
<totfact> 0.24810826E-01</totfact>
</mgrwt>
</event>
<event>
 6    1  0.7836959E-004  0.4439928E+04  0.7818608E-02  0.7921239E-01
         -1   -1    0    0    0  501 -0.00000000000E+00  0.00000000000E+00  0.21374080372E+04  0.21374080372E+04  0.00000000000E+00 0. -1.
          1   -1    0    0  501    0  0.00000000000E+00 -0.00000000000E+00 -0.23057087146E+04  0.23057087146E+04  0.00000000000E+00 0.  1.
         23    2    1    2    0    0 -0.12277030655E+04 -0.13700961238E+04 -0.13259165440E+04  0.22695269330E+04  0.90992376655E+02 0.  0.
         11    1    3    3    0    0 -0.48074647919E+03 -0.47288659642E+03 -0.47206459324E+03  0.82315483994E+03  0.00000000000E+00 0. -1.
        -11    1    3    3    0    0 -0.74695658629E+03 -0.89720952733E+03 -0.85385195081E+03  0.14463720931E+04  0.00000000000E+00 0.  1.
         22    1    1    2    0    0  0.12277030655E+04  0.13700961238E+04  0.11576158667E+04  0.21735898188E+04  0.00000000000E+00 0. -1.
<mgrwt>
<rscale>  0 0.44399281E+04</rscale>
<asrwt>0</asrwt>
<pdfrwt beam="1">  1        1 0.35472442E+00 0.44399281E+04</pdfrwt>
<pdfrwt beam="2">  1       -1 0.32883200E+00 0.44399281E+04</pdfrwt>
<totfact> 0.29841131E-02</totfact>
</mgrwt>
</event>
<event>
 6    1  0.5040916E-004  0.1609338E+04  0.7818608E-02  0.8814832E-01
         -2   -1    0    0    0  501 -0.00000000000E+00  0.00000000000E+00  0.64064108770E+03  0.64064108770E+03  0.00000000000E+00 0. -1.
          2   -1    0    0  501    0  0.00000000000E+00 -0.00000000000E+00 -0.10106936765E+04  0.10106936765E+04  0.00000000000E+00 0.  1.
         23    2    1    2    0    0 -0.22482036201E+03 -0.16016411324E+03  0.58728234134E+03  0.65499802051E+03  0.89023143499E+02 0.  0.
         13    1    3    3    0    0 -0.22138250426E+03 -0.12488553360E+03  0.52625827810E+03  0.58442654368E+03  0.00000000000E+00 0. -1.
        -13    1    3    3    0    0 -0.34378577545E+01 -0.35278579636E+02  0.61024063245E+02  0.70571476830E+02  0.00000000000E+00 0.  1.
         22    1    1    2    0    0  0.22482036201E+03  0.16016411324E+03 -0.95733493019E+03  0.99633674373E+03  0.00000000000E+00 0.  1.
<mgrwt>
<rscale>  0 0.16093376E+04</rscale>
<asrwt>0</asrwt>
<pdfrwt beam="1">  1        2 0.15549134E+00 0.16093376E+04</pdfrwt>
<pdfrwt beam="2">  1       -2 0.98560167E-01 0.16093376E+04</pdfrwt>
<totfact> 0.20313202E+01</totfact>
</mgrwt>
</event>
<event>
 6    1  0.5040916E-004  0.2019737E+04  0.7818608E-02  0.8597448E-01
         -4   -1    0    0    0  501 -0.00000000000E+00  0.00000000000E+00  0.12365014091E+04  0.12365014091E+04  0.00000000000E+00 0. -1.
          4   -1    0    0  501    0  0.00000000000E+00 -0.00000000000E+00 -0.82477401214E+03  0.82477401214E+03  0.00000000000E+00 0.  1.
         23    2    1    2    0    0  0.69792339460E+03 -0.30487913440E+03  0.87989075018E+03  0.11672814187E+04  0.91048486257E+02 0.  0.
         13    1    3    3    0    0  0.31442037187E+03 -0.14475919558E+03  0.33217287866E+03  0.47974390697E+03  0.00000000000E+00 0.  1.
        -13    1    3    3    0    0  0.38350302273E+03 -0.16011993882E+03  0.54771787152E+03  0.68753751173E+03  0.00000000000E+00 0. -1.
         22    1    1    2    0    0 -0.69792339460E+03  0.30487913440E+03 -0.46816335321E+03  0.89399400256E+03  0.00000000000E+00 0.  1.
<mgrwt>
<rscale>  0 0.20197368E+04</rscale>
<asrwt>0</asrwt>
<pdfrwt beam="1">  1        4 0.12688831E+00 0.20197368E+04</pdfrwt>
<pdfrwt beam="2">  1       -4 0.19023098E+00 0.20197368E+04</pdfrwt>
<totfact> 0.13053543E-01</totfact>
</mgrwt>
</event>
<event>
 6    1  0.5040916E-004  0.1683763E+04  0.7818608E-02  0.8770679E-01
         -2   -1    0    0    0  501 -0.00000000000E+00  0.00000000000E+00  0.59257754712E+03  0.59257754712E+03  0.00000000000E+00 0. -1.
          2   -1    0    0  501    0  0.00000000000E+00 -0.00000000000E+00 -0.11960705273E+04  0.11960705273E+04  0.00000000000E+00 0.  1.
         23    2    1    2    0    0  0.16685728897E+03  0.10281031928E+03 -0.11704212996E+04  0.11887988968E+04  0.70324119238E+02 0.  0.
         11    1    3    3    0    0  0.98337942728E+02  0.55739075233E+02 -0.86165430537E+03  0.86903701731E+03  0.00000000000E+00 0. -1.
        -11    1    3    3    0    0  0.68519346240E+02  0.47071244042E+02 -0.30876699425E+03  0.31976187947E+03  0.00000000000E+00 0.  1.
         22    1    1    2    0    0 -0.16685728897E+03 -0.10281031928E+03  0.56692831940E+03  0.59984917768E+03  0.00000000000E+00 0. -1.
<mgrwt>
<rscale>  0 0.16837631E+04</rscale>
<asrwt>0</asrwt>
<pdfrwt beam="1">  1        2 0.18401085E+00 0.16837631E+04</pdfrwt>
<pdfrwt beam="2">  1       -2 0.91165777E-01 0.16837631E+04</pdfrwt>
<totfact> 0.18615444E+01</totfact>
</mgrwt>
</event>
<event>
 6    1  0.5040916E-004  0.3806505E+04  0.7818608E-02  0.8044760E-01
         -2   -1    0    0    0  501 -0.00000000000E+00  0.00000000000E+00  0.15651924560E+04  0.15651924560E+04  0.00000000000E+00 0. -1.
          2   -1    0    0  501    0  0.00000000000E+00 -0.00000000000E+00 -0.23143288018E+04  0.23143288018E+04  0.00000000000E+00 0.  1.
         23    2    1    2    0    0 -0.11292806985E+04  0.32119972508E+03 -0.18998901567E+04  0.22355387480E+04  0.98013911007E+02 0.  0.
         13    1    3    3    0    0 -0.56020934691E+03  0.20991387502E+03 -0.97596460130E+03  0.11447293349E+04  0.00000000000E+00 0.  1.
        -13    1    3    3    0    0 -0.56907135156E+03  0.11128585006E+03 -0.92392555543E+03  0.10908094130E+04  0.00000000000E+00 0. -1.
         22    1    1    2    0    0  0.11292806985E+04 -0.32119972508E+03  0.11507538109E+04  0.16439825098E+04  0.00000000000E+00 0. -1.
<mgrwt>
<rscale>  0 0.38065049E+04</rscale>
<asrwt>0</asrwt>
<pdfrwt beam="1">  1        2 0.35605058E+00 0.38065049E+04</pdfrwt>
<pdfrwt beam="2">  1       -2 0.24079884E+00 0.38065049E+04</pdfrwt>
<totfact> 0.26115160E-01</totfact>
</mgrwt>
</event>
<event>
 6    1  0.5040916E-004  0.1570071E+04  0.7818608E-02  0.8839149E-01
          2   -1    0    0  501    0  0.00000000000E+00  0.00000000000E+00  0.25556243099E+04  0.25556243099E+04  0.00000000000E+00 0.  1.
         -2   -1    0    0    0  501 -0.00000000000E+00 -0.00000000000E+00 -0.24114678578E+03  0.24114678578E+03  0.00000000000E+00 0. -1.
         23    2    1    2    0    0 -0.15651162953E+03 -0.66205576818E+03  0.18495377786E+04  0.19727670318E+04  0.90587177770E+02 0.  0.
         11    1    3    3    0    0 -0.91675727880E+02 -0.40445330364E+03  0.12505056721E+04  0.13174791649E+04  0.00000000000E+00 0. -1.
        -11    1    3    3    0    0 -0.64835901651E+02 -0.25760246454E+03  0.59903210653E+03  0.65528786692E+03  0.00000000000E+00 0.  1.
         22    1    1    2    0    0  0.15651162953E+03  0.66205576818E+03  0.46493974549E+03  0.82400406389E+03  0.00000000000E+00 0. -1.
<mgrwt>
<rscale>  0 0.15700708E+04</rscale>
<asrwt>0</asrwt>
<pdfrwt beam="1">  1        2 0.39317295E+00 0.15700708E+04</pdfrwt>
<pdfrwt beam="2">  1       -2 0.37099507E-01 0.15700708E+04</pdfrwt>
<totfact> 0.21322643E+01</totfact>
</mgrwt>
</event>
<event>
 6    1  0.5040916E-004  0.6968643E+03  0.7818608E-02  0.9722610E-01
          2   -1    0    0  501    0  0.00000000000E+00  0.00000000000E+00  0.24004097967E+03  0.24004097967E+03  0.00000000000E+00 0.  1.
         -2   -1    0    0    0  501 -0.00000000000E+00 -0.00000000000E+00 -0.50576763406E+03  0.50576763406E+03  0.00000000000E+00 0. -1.
         23    2    1    2    0    0  0.74705037530E+02  0.15177459576E+02 -0.49269526599E+03  0.50638023496E+03  0.88662953483E+02 0.  0.
         11    1    3    3    0    0  0.32147128690E+02 -0.31220873543E+02 -0.11408333571E+03  0.12256911648E+03  0.00000000000E+00 0. -1.
        -11    1    3    3    0    0  0.42557908840E+02  0.46398333119E+02 -0.37861193028E+03  0.38381111848E+03  0.00000000000E+00 0.  1.
         22    1    1    2    0    0 -0.74705037530E+02 -0.15177459576E+02  0.22696861159E+03  0.23942837877E+03  0.00000000000E+00 0.  1.
<mgrwt>
<rscale>  0 0.69686429E+03</rscale>
<asrwt>0</asrwt>
<pdfrwt beam="1">  1        2 0.36929381E-01 0.69686429E+03</pdfrwt>
<pdfrwt beam="2">  1       -2 0.77810406E-01 0.69686429E+03</pdfrwt>
<totfact> 0.20926659E+02</totfact>
</mgrwt>
</event>
<event>
 6    1  0.5040916E-004  0.5050352E+04  0.7818608E-02  0.7820787E-01
         -2   -1    0    0    0  501 -0.00000000000E+00  0.00000000000E+00  0.17202385638E+04  0.17202385638E+04  0.00000000000E+00 0. -1.
          2   -1    0    0  501    0  0.00000000000E+00 -0.00000000000E+00 -0.37067609363E+04  0.37067609363E+04  0.00000000000E+00 0.  1.
         23    2    1    2    0    0  0.77274153055E+03 -0.15614306769E+04 -0.29565997320E+04  0.34329470145E+04  0.91912987382E+02 0.  0.
         11    1    3    3    0    0  0.71943406402E+03 -0.14481315252E+04 -0.27872639906E+04  0.32223455494E+04  0.00000000000E+00 0.  1.
        -11    1    3    3    0    0  0.53307466529E+02 -0.11329915171E+03 -0.16933574143E+03  0.21060146507E+03  0.00000000000E+00 0. -1.
         22    1    1    2    0    0 -0.77274153055E+03  0.15614306769E+04  0.97007735957E+03  0.19940524856E+04  0.00000000000E+00 0. -1.
<mgrwt>
<rscale>  0 0.50503517E+04</rscale>
<asrwt>0</asrwt>
<pdfrwt beam="1">  1        2 0.57027091E+00 0.50503517E+04</pdfrwt>
<pdfrwt beam="2">  1       -2 0.26465209E+00 0.50503517E+04</pdfrwt>
<totfact> 0.21799868E-02</totfact>
</mgrwt>
</event>
<event>
 6    1  0.5040916E-004  0.1490387E+04  0.7818608E-02  0.8890870E-01
         -2   -1    0    0    0  501 -0.00000000000E+00  0.00000000000E+00  0.53625659427E+03  0.53625659427E+03  0.00000000000E+00 0. -1.
          2   -1    0    0  501    0  0.00000000000E+00 -0.00000000000E+00 -0.10355372734E+04  0.10355372734E+04  0.00000000000E+00 0.  1.
         23    2    1    2    0    0  0.18693967046E+03 -0.21264089094E+03  0.47311525730E+03  0.55901726541E+03  0.92193641004E+02 0.  0.
         13    1    3    3    0    0  0.11367147254E+03 -0.61626654148E+02  0.22373072832E+03  0.25840759850E+03  0.00000000000E+00 0. -1.
        -13    1    3    3    0    0  0.73268197925E+02 -0.15101423679E+03  0.24938452898E+03  0.30060966691E+03  0.00000000000E+00 0.  1.
         22    1    1    2    0    0 -0.18693967046E+03  0.21264089094E+03 -0.97239593642E+03  0.10127766022E+04  0.00000000000E+00 0.  1.
<mgrwt>
<rscale>  0 0.14903875E+04</rscale>
<asrwt>0</asrwt>
<pdfrwt beam="1">  1        2 0.15931343E+00 0.14903875E+04</pdfrwt>
<pdfrwt beam="2">  1       -2 0.82501015E-01 0.14903875E+04</pdfrwt>
<totfact> 0.29811727E+01</totfact>
</mgrwt>
</event>
<event>
 6    1  0.5040916E-004  0.2889842E+04  0.7818608E-02  0.8275906E-01
          2   -1    0    0  501    0  0.00000000000E+00  0.00000000000E+00  0.41476070787E+03  0.41476070787E+03  0.00000000000E+00 0.  1.
         -2   -1    0    0    0  501 -0.00000000000E+00 -0.00000000000E+00 -0.50337384430E+04  0.50337384430E+04  0.00000000000E+00 0. -1.
         23    2    1    2    0    0 -0.41219871254E+03  0.19449803803E+03 -0.48941342130E+04  0.49161004725E+04  0.88073239902E+02 0.  0.
         11    1    3    3    0    0 -0.16003472004E+03  0.38610575236E+02 -0.14836418341E+04  0.14927474602E+04  0.00000000000E+00 0. -1.
        -11    1    3    3    0    0 -0.25216399250E+03  0.15588746279E+03 -0.34104923789E+04  0.34233530123E+04  0.00000000000E+00 0.  1.
         22    1    1    2    0    0  0.41219871254E+03 -0.19449803803E+03  0.27515647786E+03  0.53239867837E+03  0.00000000000E+00 0.  1.
<mgrwt>
<rscale>  0 0.28898422E+04</rscale>
<asrwt>0</asrwt>
<pdfrwt beam="1">  1        2 0.63809338E-01 0.28898422E+04</pdfrwt>
<pdfrwt beam="2">  1       -2 0.77442132E+00 0.28898422E+04</pdfrwt>
<totfact> 0.72046644E-03</totfact>
</mgrwt>
</event>
<event>
 6    1  0.5040916E-004  0.6463351E+03  0.7818608E-02  0.9813681E-01
          2   -1    0    0  501    0  0.00000000000E+00  0.00000000000E+00  0.11343415862E+04  0.11343415862E+04  0.00000000000E+00 0.  1.
         -2   -1    0    0    0  501 -0.00000000000E+00 -0.00000000000E+00 -0.92068611240E+02  0.92068611240E+02  0.00000000000E+00 0. -1.
         23    2    1    2    0    0 -0.16091572603E+03 -0.16220803629E+03  0.94454763034E+03  0.97790353575E+03  0.10917775105E+03 0.  0.
         13    1    3    3    0    0 -0.97574792493E+02 -0.50665481621E+02  0.27470480527E+03  0.29588944083E+03  0.00000000000E+00 0. -1.
        -13    1    3    3    0    0 -0.63340933535E+02 -0.11154255467E+03  0.66984282507E+03  0.68201409492E+03  0.00000000000E+00 0.  1.
         22    1    1    2    0    0  0.16091572603E+03  0.16220803629E+03  0.97725344611E+02  0.24850666168E+03  0.00000000000E+00 0. -1.
<mgrwt>
<rscale>  0 0.64633507E+03</rscale>
<asrwt>0</asrwt>
<pdfrwt beam="1">  1        2 0.17451408E+00 0.64633507E+03</pdfrwt>
<pdfrwt beam="2">  1       -2 0.14164402E-01 0.64633507E+03</pdfrwt>
<totfact> 0.80878016E+02</totfact>
</mgrwt>
</event>
<event>
 6    1  0.5040916E-004  0.1632058E+04  0.7818608E-02  0.8801092E-01
         -2   -1    0    0    0  501 -0.00000000000E+00  0.00000000000E+00  0.30739049404E+03  0.30739049404E+03  0.00000000000E+00 0. -1.
          2   -1    0    0  501    0  0.00000000000E+00 -0.00000000000E+00 -0.21663095613E+04  0.21663095613E+04  0.00000000000E+00 0.  1.
         23    2    1    2    0    0 -0.77598931657E+03 -0.67821079621E+02 -0.12878621567E+04  0.15078506295E+04  0.90914619475E+02 0.  0.
         11    1    3    3    0    0 -0.18865031065E+03  0.19032086241E+02 -0.34345802024E+03  0.39231947655E+03  0.00000000000E+00 0. -1.
        -11    1    3    3    0    0 -0.58733900592E+03 -0.86853165862E+02 -0.94440413648E+03  0.11155311530E+04  0.00000000000E+00 0.  1.
         22    1    1    2    0    0  0.77598931657E+03  0.67821079621E+02 -0.57105691058E+03  0.96584942584E+03  0.00000000000E+00 0. -1.
<mgrwt>
<rscale>  0 0.16320576E+04</rscale>
<asrwt>0</asrwt>
<pdfrwt beam="1">  1        2 0.33327840E+00 0.16320576E+04</pdfrwt>
<pdfrwt beam="2">  1       -2 0.47290844E-01 0.16320576E+04</pdfrwt>
<totfact> 0.21879425E+01</totfact>
</mgrwt>
</event>
<event>
 6    1  0.5040916E-004  0.1001314E+04  0.7818608E-02  0.9307105E-01
         -2   -1    0    0    0  501 -0.00000000000E+00  0.00000000000E+00  0.60826116192E+03  0.60826116192E+03  0.00000000000E+00 0. -1.
          2   -1    0    0  501    0  0.00000000000E+00 -0.00000000000E+00 -0.41208822296E+03  0.41208822296E+03  0.00000000000E+00 0.  1.
         23    2    1    2    0    0  0.19132137116E+03 -0.44085484731E+03 -0.28519687500E+02  0.48983676502E+03  0.90387058419E+02 0.  0.
         11    1    3    3    0    0  0.13153672026E+03 -0.19934501720E+03 -0.32320485666E+02  0.24100821241E+03  0.00000000000E+00 0. -1.
        -11    1    3    3    0    0  0.59784650903E+02 -0.24150983011E+03  0.38007981652E+01  0.24882855260E+03  0.00000000000E+00 0.  1.
         22    1    1    2    0    0 -0.19132137116E+03  0.44085484731E+03  0.22469262646E+03  0.53051261987E+03  0.00000000000E+00 0. -1.
<mgrwt>
<rscale>  0 0.10013137E+04</rscale>
<asrwt>0</asrwt>
<pdfrwt beam="1">  1        2 0.63398188E-01 0.10013137E+04</pdfrwt>
<pdfrwt beam="2">  1       -2 0.93578641E-01 0.10013137E+04</pdfrwt>
<totfact> 0.74132358E+01</totfact>
</mgrwt>
</event>
<event>
 6    1  0.5040916E-004  0.4324559E+04  0.7818608E-02  0.7942092E-01
         -2   -1    0    0    0  501 -0.00000000000E+00  0.00000000000E+00  0.35321022901E+04  0.35321022901E+04  0.00000000000E+00 0. -1.
          2   -1    0    0  501    0  0.00000000000E+00 -0.00000000000E+00 -0.13237027758E+04  0.13237027758E+04  0.00000000000E+00 0.  1.
         23    2    1    2    0    0  0.18443286849E+04  0.37709343109E+03 -0.87493622779E+02  0.18868198772E+04  0.93200650441E+02 0.  0.
         11    1    3    3    0    0  0.11555814712E+04  0.25140855019E+03 -0.97515197252E+02  0.11866271569E+04  0.00000000000E+00 0. -1.
        -11    1    3    3    0    0  0.68874721365E+03  0.12568488090E+03  0.10021574473E+02  0.70019272029E+03  0.00000000000E+00 0.  1.
         22    1    1    2    0    0 -0.18443286849E+04 -0.37709343109E+03  0.22958931371E+04  0.29689851887E+04  0.00000000000E+00 0. -1.
<mgrwt>
<rscale>  0 0.43245594E+04</rscale>
<asrwt>0</asrwt>
<pdfrwt beam="1">  1        2 0.20364658E+00 0.43245594E+04</pdfrwt>
<pdfrwt beam="2">  1       -2 0.54340035E+00 0.43245594E+04</pdfrwt>
<totfact> 0.11420681E-02</totfact>
</mgrwt>
</event>
<event>
 6    1  0.5040916E-004  0.1360741E+04  0.7818608E-02  0.8982737E-01
          2   -1    0    0  501    0  0.00000000000E+00  0.00000000000E+00  0.39271932289E+03  0.39271932289E+03  0.00000000000E+00 0. -1.
         -2   -1    0    0    0  501 -0.00000000000E+00 -0.00000000000E+00 -0.11787150525E+04  0.11787150525E+04  0.00000000000E+00 0.  1.
         23    2    1    2    0    0  0.66935320758E+03 -0.64456793724E+02 -0.48973489194E+03  0.83661543257E+03  0.88863507067E+02 0.  0.
         13    1    3    3    0    0  0.23975089968E+03  0.17819867989E+02 -0.15884763828E+03  0.28815033192E+03  0.00000000000E+00 0.  1.
        -13    1    3    3    0    0  0.42960230789E+03 -0.82276661713E+02 -0.33088725365E+03  0.54846510066E+03  0.00000000000E+00 0. -1.
         22    1    1    2    0    0 -0.66935320758E+03  0.64456793724E+02 -0.29626083765E+03  0.73481894278E+03  0.00000000000E+00 0.  1.
<mgrwt>
<rscale>  0 0.13607412E+04</rscale>
<asrwt>0</asrwt>
<pdfrwt beam="1">  1        2 0.60418358E-01 0.13607412E+04</pdfrwt>
<pdfrwt beam="2">  1       -2 0.18134078E+00 0.13607412E+04</pdfrwt>
<totfact> 0.14049076E+01</totfact>
</mgrwt>
</event>
<event>
 6    1  0.5040916E-004  0.8453707E+03  0.7818608E-02  0.9496571E-01
          2   -1    0    0  501    0  0.00000000000E+00  0.00000000000E+00  0.20562884580E+03  0.20562884580E+03  0.00000000000E+00 0.  1.
         -2   -1    0    0    0  501 -0.00000000000E+00 -0.00000000000E+00 -0.86886118320E+03  0.86886118320E+03  0.00000000000E+00 0. -1.
         23    2    1    2    0    0 -0.25265531333E+03  0.20892083054E+03 -0.58213695007E+01  0.33986645089E+03  0.89401875336E+02 0.  0.
         11    1    3    3    0    0 -0.24469531402E+03  0.20148993773E+03 -0.24843001461E+02  0.31794837070E+03  0.00000000000E+00 0. -1.
        -11    1    3    3    0    0 -0.79599993100E+01  0.74308928116E+01  0.19021631960E+02  0.21918080195E+02  0.00000000000E+00 0.  1.
         22    1    1    2    0    0  0.25265531333E+03 -0.20892083054E+03 -0.65741096790E+03  0.73462357810E+03  0.00000000000E+00 0.  1.
<mgrwt>
<rscale>  0 0.84537074E+03</rscale>
<asrwt>0</asrwt>
<pdfrwt beam="1">  1        2 0.31635207E-01 0.84537074E+03</pdfrwt>
<pdfrwt beam="2">  1       -2 0.13367095E+00 0.84537074E+03</pdfrwt>
<totfact> 0.68185906E+01</totfact>
</mgrwt>
</event>
<event>
 6    1  0.5040916E-004  0.1651426E+04  0.7818608E-02  0.8789563E-01
         -2   -1    0    0    0  501 -0.00000000000E+00  0.00000000000E+00  0.35442145527E+03  0.35442145527E+03  0.00000000000E+00 0. -1.
          2   -1    0    0  501    0  0.00000000000E+00 -0.00000000000E+00 -0.19237041504E+04  0.19237041504E+04  0.00000000000E+00 0.  1.
         23    2    1    2    0    0  0.32079185999E+02  0.78025168879E+03 -0.42768050103E+03  0.89498521454E+03  0.90918376788E+02 0.  0.
         11    1    3    3    0    0  0.15980123162E+01  0.53809318816E+03 -0.33532538837E+03  0.63402677299E+03  0.00000000000E+00 0.  1.
        -11    1    3    3    0    0  0.30481173683E+02  0.24215850063E+03 -0.92355112664E+02  0.26095844154E+03  0.00000000000E+00 0. -1.
         22    1    1    2    0    0 -0.32079185999E+02 -0.78025168879E+03 -0.11416021941E+04  0.13831403911E+04  0.00000000000E+00 0. -1.
<mgrwt>
<rscale>  0 0.16514261E+04</rscale>
<asrwt>0</asrwt>
<pdfrwt beam="1">  1        2 0.29595448E+00 0.16514261E+04</pdfrwt>
<pdfrwt beam="2">  1       -2 0.54526378E-01 0.16514261E+04</pdfrwt>
<totfact> 0.22273895E+01</totfact>
</mgrwt>
</event>
<event>
 6    1  0.5040916E-004  0.1796901E+04  0.7818608E-02  0.8707949E-01
         -2   -1    0    0    0  501 -0.00000000000E+00  0.00000000000E+00  0.37982565990E+03  0.37982565990E+03  0.00000000000E+00 0. -1.
          2   -1    0    0  501    0  0.00000000000E+00 -0.00000000000E+00 -0.21252210800E+04  0.21252210800E+04  0.00000000000E+00 0.  1.
         23    2    1    2    0    0  0.71880259385E+03 -0.37873437508E+03 -0.34728527025E+03  0.88800348540E+03  0.88466012452E+02 0.  0.
         11    1    3    3    0    0  0.20377349015E+03 -0.14937953268E+03 -0.89142955322E+02  0.26792600948E+03  0.00000000000E+00 0. -1.
        -11    1    3    3    0    0  0.51502910370E+03 -0.22935484240E+03 -0.25814231493E+03  0.62007747592E+03  0.00000000000E+00 0.  1.
         22    1    1    2    0    0 -0.71880259385E+03  0.37873437508E+03 -0.13981101498E+04  0.16170432545E+04  0.00000000000E+00 0.  1.
<mgrwt>
<rscale>  0 0.17969012E+04</rscale>
<asrwt>0</asrwt>
<pdfrwt beam="1">  1        2 0.32695710E+00 0.17969012E+04</pdfrwt>
<pdfrwt beam="2">  1       -2 0.58434715E-01 0.17969012E+04</pdfrwt>
<totfact> 0.14711922E+01</totfact>
</mgrwt>
</event>
<event>
 6    1  0.5040916E-004  0.2980745E+04  0.7818608E-02  0.8249251E-01
          2   -1    0    0  501    0  0.00000000000E+00  0.00000000000E+00  0.13347067111E+04  0.13347067111E+04  0.00000000000E+00 0.  1.
         -2   -1    0    0    0  501 -0.00000000000E+00 -0.00000000000E+00 -0.16641936122E+04  0.16641936122E+04  0.00000000000E+00 0. -1.
         23    2    1    2    0    0  0.14883463822E+04  0.40667011387E+02 -0.18062063491E+03  0.15025748493E+04  0.90986838031E+02 0.  0.
         13    1    3    3    0    0  0.54948657795E+03  0.10642221841E+02 -0.22743100400E+02  0.55006000113E+03  0.00000000000E+00 0.  1.
        -13    1    3    3    0    0  0.93885980423E+03  0.30024789547E+02 -0.15787753451E+03  0.95251484812E+03  0.00000000000E+00 0. -1.
         22    1    1    2    0    0 -0.14883463822E+04 -0.40667011387E+02 -0.14886626613E+03  0.14963254741E+04  0.00000000000E+00 0.  1.
<mgrwt>
<rscale>  0 0.29807451E+04</rscale>
<asrwt>0</asrwt>
<pdfrwt beam="1">  1        2 0.20533949E+00 0.29807451E+04</pdfrwt>
<pdfrwt beam="2">  1       -2 0.25602979E+00 0.29807451E+04</pdfrwt>
<totfact> 0.79834409E-01</totfact>
</mgrwt>
</event>
<event>
 6    1  0.5040916E-004  0.1285714E+04  0.7818608E-02  0.9040972E-01
          2   -1    0    0  501    0  0.00000000000E+00  0.00000000000E+00  0.20445656150E+04  0.20445656150E+04  0.00000000000E+00 0.  1.
         -2   -1    0    0    0  501 -0.00000000000E+00 -0.00000000000E+00 -0.20212844382E+03  0.20212844382E+03  0.00000000000E+00 0. -1.
         23    2    1    2    0    0  0.26147490570E+03  0.39498727725E+03  0.16768132568E+04  0.17448819859E+04  0.92338350844E+02 0.  0.
         11    1    3    3    0    0  0.12397766204E+03  0.23201953908E+03  0.10638334564E+04  0.10958764301E+04  0.00000000000E+00 0. -1.
        -11    1    3    3    0    0  0.13749724366E+03  0.16296773817E+03  0.61297980044E+03  0.64900555579E+03  0.00000000000E+00 0.  1.
         22    1    1    2    0    0 -0.26147490570E+03 -0.39498727725E+03  0.16562391436E+03  0.50181207290E+03  0.00000000000E+00 0. -1.
<mgrwt>
<rscale>  0 0.12857136E+04</rscale>
<asrwt>0</asrwt>
<pdfrwt beam="1">  1        2 0.31454854E+00 0.12857136E+04</pdfrwt>
<pdfrwt beam="2">  1       -2 0.31096685E-01 0.12857136E+04</pdfrwt>
<totfact> 0.59424906E+01</totfact>
</mgrwt>
</event>
<event>
 6    1  0.5040916E-004  0.2144949E+04  0.7818608E-02  0.8541698E-01
         -2   -1    0    0    0  501 -0.00000000000E+00  0.00000000000E+00  0.62356238571E+03  0.62356238571E+03  0.00000000000E+00 0. -1.
          2   -1    0    0  501    0  0.00000000000E+00 -0.00000000000E+00 -0.18445645583E+04  0.18445645583E+04  0.00000000000E+00 0.  1.
         23    2    1    2    0    0 -0.29641077756E+03 -0.59280180090E+03 -0.15787687851E+04  0.17149534757E+04  0.96339102947E+02 0.  0.
         11    1    3    3    0    0 -0.13352780968E+03 -0.29567809638E+03 -0.65368720996E+03  0.72976858051E+03  0.00000000000E+00 0.  1.
        -11    1    3    3    0    0 -0.16288296788E+03 -0.29712370451E+03 -0.92508157518E+03  0.98518489521E+03  0.00000000000E+00 0. -1.
         22    1    1    2    0    0  0.29641077756E+03  0.59280180090E+03  0.35776661259E+03  0.75317346825E+03  0.00000000000E+00 0. -1.
<mgrwt>
<rscale>  0 0.21449486E+04</rscale>
<asrwt>0</asrwt>
<pdfrwt beam="1">  1        2 0.28377916E+00 0.21449486E+04</pdfrwt>
<pdfrwt beam="2">  1       -2 0.95932676E-01 0.21449486E+04</pdfrwt>
<totfact> 0.68172336E+00</totfact>
</mgrwt>
</event>
<event>
 6    1  0.5040916E-004  0.6705556E+03  0.7818608E-02  0.9768955E-01
         -4   -1    0    0    0  501 -0.00000000000E+00  0.00000000000E+00  0.12741569366E+03  0.12741569366E+03  0.00000000000E+00 0. -1.
          4   -1    0    0  501    0  0.00000000000E+00 -0.00000000000E+00 -0.88223973702E+03  0.88223973702E+03  0.00000000000E+00 0.  1.
         23    2    1    2    0    0  0.13657224271E+03 -0.34856379452E+02 -0.83106892238E+03  0.84940491977E+03  0.10462418135E+03 0.  0.
         11    1    3    3    0    0  0.10905055689E+03 -0.67281959985E+01 -0.34829422375E+03  0.36502898361E+03  0.00000000000E+00 0. -1.
        -11    1    3    3    0    0  0.27521685817E+02 -0.28128183453E+02 -0.48277469863E+03  0.48437593616E+03  0.00000000000E+00 0.  1.
         22    1    1    2    0    0 -0.13657224271E+03  0.34856379452E+02  0.76244879018E+02  0.16025051090E+03  0.00000000000E+00 0. -1.
<mgrwt>
<rscale>  0 0.67055555E+03</rscale>
<asrwt>0</asrwt>
<pdfrwt beam="1">  1        4 0.13572919E+00 0.67055555E+03</pdfrwt>
<pdfrwt beam="2">  1       -4 0.19602414E-01 0.67055555E+03</pdfrwt>
<totfact> 0.18467029E+01</totfact>
</mgrwt>
</event>
<event>
 6    1  0.5040916E-004  0.2242110E+04  0.7818608E-02  0.8501103E-01
          2   -1    0    0  501    0  0.00000000000E+00  0.00000000000E+00  0.14337993199E+04  0.14337993199E+04  0.00000000000E+00 0.  1.
         -2   -1    0    0    0  501 -0.00000000000E+00 -0.00000000000E+00 -0.87652715064E+03  0.87652715064E+03  0.00000000000E+00 0. -1.
         23    2    1    2    0    0 -0.11027529642E+03  0.38228143613E+03 -0.79879393093E+03  0.89709789543E+03  0.91723238537E+02 0.  0.
         11    1    3    3    0    0 -0.38195372097E+02  0.10816558805E+03 -0.14791186980E+03  0.18718066704E+03  0.00000000000E+00 0. -1.
        -11    1    3    3    0    0 -0.72079924320E+02  0.27411584808E+03 -0.65088206113E+03  0.70991722839E+03  0.00000000000E+00 0.  1.
         22    1    1    2    0    0  0.11027529642E+03 -0.38228143613E+03  0.13560661002E+04  0.14132285751E+04  0.00000000000E+00 0.  1.
<mgrwt>
<rscale>  0 0.22421097E+04</rscale>
<asrwt>0</asrwt>
<pdfrwt beam="1">  1        2 0.22058451E+00 0.22421097E+04</pdfrwt>
<pdfrwt beam="2">  1       -2 0.13485033E+00 0.22421097E+04</pdfrwt>
<totfact> 0.49889856E+00</totfact>
</mgrwt>
</event>
<event>
 6    1  0.5040916E-004  0.3623474E+04  0.7818608E-02  0.8085136E-01
         -2   -1    0    0    0  501 -0.00000000000E+00  0.00000000000E+00  0.93690863005E+03  0.93690863005E+03  0.00000000000E+00 0. -1.
          2   -1    0    0  501    0  0.00000000000E+00 -0.00000000000E+00 -0.35034272085E+04  0.35034272085E+04  0.00000000000E+00 0.  1.
         23    2    1    2    0    0  0.14955263009E+04 -0.69662484614E+03 -0.37057268439E+03  0.16936899817E+04  0.96832570732E+02 0.  0.
         11    1    3    3    0    0  0.78154162910E+03 -0.31383596582E+03 -0.17199129817E+03  0.85958207177E+03  0.00000000000E+00 0. -1.
        -11    1    3    3    0    0  0.71398467184E+03 -0.38278888032E+03 -0.19858138622E+03  0.83410790997E+03  0.00000000000E+00 0.  1.
         22    1    1    2    0    0 -0.14955263009E+04  0.69662484614E+03 -0.21959458940E+04  0.27466458568E+04  0.00000000000E+00 0.  1.
<mgrwt>
<rscale>  0 0.36234741E+04</rscale>
<asrwt>0</asrwt>
<pdfrwt beam="1">  1        2 0.53898880E+00 0.36234741E+04</pdfrwt>
<pdfrwt beam="2">  1       -2 0.14413979E+00 0.36234741E+04</pdfrwt>
<totfact> 0.21852976E-01</totfact>
</mgrwt>
</event>
<event>
 6    1  0.5040916E-004  0.2053961E+04  0.7818608E-02  0.8581800E-01
         -1   -1    0    0    0  501 -0.00000000000E+00  0.00000000000E+00  0.10187271926E+04  0.10187271926E+04  0.00000000000E+00 0. -1.
          1   -1    0    0  501    0  0.00000000000E+00 -0.00000000000E+00 -0.10353005934E+04  0.10353005934E+04  0.00000000000E+00 0.  1.
         23    2    1    2    0    0  0.53352570074E+03  0.62195127922E+03 -0.62388450266E+03  0.10340768845E+04  0.92790426402E+02 0.  0.
         11    1    3    3    0    0  0.22838051720E+03  0.19760922546E+03 -0.22796102626E+03  0.37838247332E+03  0.00000000000E+00 0. -1.
        -11    1    3    3    0    0  0.30514518354E+03  0.42434205376E+03 -0.39592347640E+03  0.65569441114E+03  0.00000000000E+00 0.  1.
         22    1    1    2    0    0 -0.53352570074E+03 -0.62195127922E+03  0.60731110182E+03  0.10199509015E+04  0.00000000000E+00 0. -1.
<mgrwt>
<rscale>  0 0.20539609E+04</rscale>
<asrwt>0</asrwt>
<pdfrwt beam="1">  1        1 0.15927702E+00 0.20539609E+04</pdfrwt>
<pdfrwt beam="2">  1       -1 0.15672726E+00 0.20539609E+04</pdfrwt>
<totfact> 0.40598617E+00</totfact>
</mgrwt>
</event>
<event>
 6    1  0.5040916E-004  0.3623185E+04  0.7818608E-02  0.8085201E-01
          2   -1    0    0  501    0  0.00000000000E+00  0.00000000000E+00  0.27184061751E+04  0.27184061751E+04  0.00000000000E+00 0.  1.
         -2   -1    0    0    0  501 -0.00000000000E+00 -0.00000000000E+00 -0.12072765872E+04  0.12072765872E+04  0.00000000000E+00 0. -1.
         23    2    1    2    0    0 -0.13422843405E+03 -0.17227975061E+04  0.13412550567E+04  0.21893343307E+04  0.90394494543E+02 0.  0.
         11    1    3    3    0    0 -0.10829427693E+03 -0.82262579019E+03  0.65566972828E+03  0.10575176754E+04  0.00000000000E+00 0. -1.
        -11    1    3    3    0    0 -0.25934157122E+02 -0.90017171594E+03  0.68558532844E+03  0.11318166553E+04  0.00000000000E+00 0.  1.
         22    1    1    2    0    0  0.13422843405E+03  0.17227975061E+04  0.16987453115E+03  0.17363484316E+04  0.00000000000E+00 0. -1.
<mgrwt>
<rscale>  0 0.36231854E+04</rscale>
<asrwt>0</asrwt>
<pdfrwt beam="1">  1        2 0.41821633E+00 0.36231854E+04</pdfrwt>
<pdfrwt beam="2">  1       -2 0.18573486E+00 0.36231854E+04</pdfrwt>
<totfact> 0.34876766E-01</totfact>
</mgrwt>
</event>
<event>
 6    1  0.5040916E-004  0.1846477E+04  0.7818608E-02  0.8681967E-01
         -2   -1    0    0    0  501 -0.00000000000E+00  0.00000000000E+00  0.39978211424E+03  0.39978211424E+03  0.00000000000E+00 0. -1.
          2   -1    0    0  501    0  0.00000000000E+00 -0.00000000000E+00 -0.21320853191E+04  0.21320853191E+04  0.00000000000E+00 0.  1.
         23    2    1    2    0    0  0.52863869330E+03 -0.27121695760E+02  0.16512611655E+03  0.56198609576E+03  0.91472854059E+02 0.  0.
         11    1    3    3    0    0  0.43157777833E+03  0.11725211018E+02  0.14563538456E+03  0.45563858985E+03  0.00000000000E+00 0.  1.
        -11    1    3    3    0    0  0.97060914964E+02 -0.38846906778E+02  0.19490731987E+02  0.10634750591E+03  0.00000000000E+00 0. -1.
         22    1    1    2    0    0 -0.52863869330E+03  0.27121695760E+02 -0.18974293214E+04  0.19698813376E+04  0.00000000000E+00 0.  1.
<mgrwt>
<rscale>  0 0.18464773E+04</rscale>
<asrwt>0</asrwt>
<pdfrwt beam="1">  1        2 0.32801312E+00 0.18464773E+04</pdfrwt>
<pdfrwt beam="2">  1       -2 0.61504941E-01 0.18464773E+04</pdfrwt>
<totfact> 0.13031645E+01</totfact>
</mgrwt>
</event>
<event>
 6    1  0.5040916E-004  0.2139673E+04  0.7818608E-02  0.8543966E-01
         -2   -1    0    0    0  501 -0.00000000000E+00  0.00000000000E+00  0.43553669545E+03  0.43553669545E+03  0.00000000000E+00 0. -1.
          2   -1    0    0  501    0  0.00000000000E+00 -0.00000000000E+00 -0.26279082256E+04  0.26279082256E+04  0.00000000000E+00 0.  1.
         23    2    1    2    0    0  0.75435045112E+03  0.53536881768E+03 -0.33332414818E+03  0.98697639433E+03  0.85749875596E+02 0.  0.
         11    1    3    3    0    0  0.27550072420E+03  0.16722779510E+03 -0.80454876357E+02  0.33217280385E+03  0.00000000000E+00 0. -1.
        -11    1    3    3    0    0  0.47884972692E+03  0.36814102258E+03 -0.25286927182E+03  0.65480359048E+03  0.00000000000E+00 0.  1.
         22    1    1    2    0    0 -0.75435045112E+03 -0.53536881768E+03 -0.18590473820E+04  0.20764685267E+04  0.00000000000E+00 0.  1.
<mgrwt>
<rscale>  0 0.21396733E+04</rscale>
<asrwt>0</asrwt>
<pdfrwt beam="1">  1        2 0.40429357E+00 0.21396733E+04</pdfrwt>
<pdfrwt beam="2">  1       -2 0.67005647E-01 0.21396733E+04</pdfrwt>
<totfact> 0.55055020E+00</totfact>
</mgrwt>
</event>
<event>
 6    1  0.5040916E-004  0.2110391E+04  0.7818608E-02  0.8556680E-01
          2   -1    0    0  501    0  0.00000000000E+00  0.00000000000E+00  0.17437794055E+04  0.17437794055E+04  0.00000000000E+00 0.  1.
         -2   -1    0    0    0  501 -0.00000000000E+00 -0.00000000000E+00 -0.63851972817E+03  0.63851972817E+03  0.00000000000E+00 0. -1.
         23    2    1    2    0    0  0.82647160447E+03 -0.34988466106E+03  0.11768136756E+04  0.14819688811E+04  0.76594700964E+02 0.  0.
         13    1    3    3    0    0  0.15948491297E+03 -0.36695164760E+02  0.22712915656E+03  0.27994575607E+03  0.00000000000E+00 0. -1.
        -13    1    3    3    0    0  0.66698669150E+03 -0.31318949630E+03  0.94968451909E+03  0.12020231250E+04  0.00000000000E+00 0.  1.
         22    1    1    2    0    0 -0.82647160447E+03  0.34988466106E+03 -0.71553998339E+02  0.90033025259E+03  0.00000000000E+00 0. -1.
<mgrwt>
<rscale>  0 0.21103910E+04</rscale>
<asrwt>0</asrwt>
<pdfrwt beam="1">  1        2 0.26827375E+00 0.21103910E+04</pdfrwt>
<pdfrwt beam="2">  1       -2 0.98233805E-01 0.21103910E+04</pdfrwt>
<totfact> 0.73555796E+00</totfact>
</mgrwt>
</event>
<event>
 6    1  0.5040916E-004  0.2815322E+04  0.7818608E-02  0.8298527E-01
          2   -1    0    0  501    0  0.00000000000E+00  0.00000000000E+00  0.12193318426E+04  0.12193318426E+04  0.00000000000E+00 0.  1.
         -2   -1    0    0    0  501 -0.00000000000E+00 -0.00000000000E+00 -0.16250783329E+04  0.16250783329E+04  0.00000000000E+00 0. -1.
         23    2    1    2    0    0 -0.73697812147E+03  0.82967457768E+03 -0.10755436322E+04  0.15482138679E+04  0.93141933780E+02 0.  0.
         11    1    3    3    0    0 -0.23160138888E+03  0.21105988816E+03 -0.33955222134E+03  0.46204024796E+03  0.00000000000E+00 0. -1.
        -11    1    3    3    0    0 -0.50537673259E+03  0.61861468952E+03 -0.73599141082E+03  0.10861736200E+04  0.00000000000E+00 0.  1.
         22    1    1    2    0    0  0.73697812147E+03 -0.82967457768E+03  0.66979714188E+03  0.12961963075E+04  0.00000000000E+00 0.  1.
<mgrwt>
<rscale>  0 0.28153222E+04</rscale>
<asrwt>0</asrwt>
<pdfrwt beam="1">  1        2 0.18758952E+00 0.28153222E+04</pdfrwt>
<pdfrwt beam="2">  1       -2 0.25001205E+00 0.28153222E+04</pdfrwt>
<totfact> 0.10298723E+00</totfact>
</mgrwt>
</event>
<event>
 6    1  0.5040916E-004  0.4816751E+04  0.7818608E-02  0.7857414E-01
         -2   -1    0    0    0  501 -0.00000000000E+00  0.00000000000E+00  0.22475547009E+04  0.22475547009E+04  0.00000000000E+00 0. -1.
          2   -1    0    0  501    0  0.00000000000E+00 -0.00000000000E+00 -0.25807034926E+04  0.25807034926E+04  0.00000000000E+00 0.  1.
         23    2    1    2    0    0 -0.72046761314E+03  0.19437001060E+04 -0.13939594708E+04  0.24996614098E+04  0.90224573358E+02 0.  0.
         13    1    3    3    0    0 -0.33701677248E+03  0.10224815237E+04 -0.74988863038E+03  0.13120143784E+04  0.00000000000E+00 0. -1.
        -13    1    3    3    0    0 -0.38345084066E+03  0.92121858236E+03 -0.64407084044E+03  0.11876470314E+04  0.00000000000E+00 0.  1.
         22    1    1    2    0    0  0.72046761314E+03 -0.19437001060E+04  0.10608106791E+04  0.23285967836E+04  0.00000000000E+00 0. -1.
<mgrwt>
<rscale>  0 0.48167509E+04</rscale>
<asrwt>0</asrwt>
<pdfrwt beam="1">  1        2 0.39703130E+00 0.48167509E+04</pdfrwt>
<pdfrwt beam="2">  1       -2 0.34577765E+00 0.48167509E+04</pdfrwt>
<totfact> 0.38166227E-02</totfact>
</mgrwt>
</event>
<event>
 6    1  0.5040916E-004  0.8847638E+03  0.7818608E-02  0.9444830E-01
          2   -1    0    0  501    0  0.00000000000E+00  0.00000000000E+00  0.14770500844E+04  0.14770500844E+04  0.00000000000E+00 0.  1.
         -2   -1    0    0    0  501 -0.00000000000E+00 -0.00000000000E+00 -0.13249500171E+03  0.13249500171E+03  0.00000000000E+00 0. -1.
         23    2    1    2    0    0 -0.37682734107E+01 -0.32075666208E+03  0.12214107502E+04  0.12659412986E+04  0.88679844177E+02 0.  0.
         11    1    3    3    0    0 -0.29880835186E+02 -0.14256470462E+03  0.67778951620E+03  0.69326487549E+03  0.00000000000E+00 0.  1.
        -11    1    3    3    0    0  0.26112561775E+02 -0.17819195747E+03  0.54362123399E+03  0.57267642315E+03  0.00000000000E+00 0. -1.
         22    1    1    2    0    0  0.37682734107E+01  0.32075666208E+03  0.12314433254E+03  0.34360378751E+03  0.00000000000E+00 0. -1.
<mgrwt>
<rscale>  0 0.88476382E+03</rscale>
<asrwt>0</asrwt>
<pdfrwt beam="1">  1        2 0.22723846E+00 0.88476382E+03</pdfrwt>
<pdfrwt beam="2">  1       -2 0.20383847E-01 0.88476382E+03</pdfrwt>
<totfact> 0.27121689E+02</totfact>
</mgrwt>
</event>
<event>
 6    1  0.7062406E-004  0.3940852E+04  0.7818608E-02  0.8016586E-01
          2   -1    0    0  501    0  0.00000000000E+00  0.00000000000E+00  0.20244220835E+04  0.20244220835E+04  0.00000000000E+00 0.  1.
         -2   -1    0    0    0  501 -0.00000000000E+00 -0.00000000000E+00 -0.19178703667E+04  0.19178703667E+04  0.00000000000E+00 0. -1.
         23    2    1    2    0    0  0.17997125171E+04  0.42133941591E+03  0.73190716593E+03  0.19909950650E+04  0.10900092424E+03 0.  0.
         13    1    3    3    0    0  0.10294960353E+04  0.19504427318E+03  0.38184508374E+03  0.11152174779E+04  0.00000000000E+00 0. -1.
        -13    1    3    3    0    0  0.77021648187E+03  0.22629514272E+03  0.35006208219E+03  0.87577758704E+03  0.00000000000E+00 0.  1.
         22    1    1    2    0    0 -0.17997125171E+04 -0.42133941591E+03 -0.62535544913E+03  0.19512973852E+04  0.00000000000E+00 0. -1.
<mgrwt>
<rscale>  0 0.39408523E+04</rscale>
<asrwt>0</asrwt>
<pdfrwt beam="1">  1        2 0.31144955E+00 0.39408523E+04</pdfrwt>
<pdfrwt beam="2">  1       -2 0.29505698E+00 0.39408523E+04</pdfrwt>
<totfact> 0.17490483E-01</totfact>
</mgrwt>
</event>
<event>
 6    1  0.6033474E-004  0.3054703E+04  0.7818608E-02  0.8228280E-01
          2   -1    0    0  501    0  0.00000000000E+00  0.00000000000E+00  0.10168111543E+04  0.10168111543E+04  0.00000000000E+00 0.  1.
         -2   -1    0    0    0  501 -0.00000000000E+00 -0.00000000000E+00 -0.22942345126E+04  0.22942345126E+04  0.00000000000E+00 0. -1.
         23    2    1    2    0    0 -0.65948014179E+03 -0.49650050265E+03  0.75204824227E+03  0.11201139509E+04  0.87475126273E+02 0.  0.
         13    1    3    3    0    0 -0.36450422235E+03 -0.32784427765E+03  0.45131541630E+03  0.66635636373E+03  0.00000000000E+00 0. -1.
        -13    1    3    3    0    0 -0.29497591944E+03 -0.16865622500E+03  0.30073282597E+03  0.45375758715E+03  0.00000000000E+00 0.  1.
         22    1    1    2    0    0  0.65948014179E+03  0.49650050265E+03 -0.20294716005E+04  0.21909317160E+04  0.00000000000E+00 0. -1.
<mgrwt>
<rscale>  0 0.30547034E+04</rscale>
<asrwt>0</asrwt>
<pdfrwt beam="1">  1        2 0.15643249E+00 0.30547034E+04</pdfrwt>
<pdfrwt beam="2">  1       -2 0.35295915E+00 0.30547034E+04</pdfrwt>
<totfact> 0.31195165E-01</totfact>
</mgrwt>
</event>
<event>
 6    1  0.5040916E-004  0.5666827E+04  0.7818608E-02  0.7733142E-01
         -2   -1    0    0    0  501 -0.00000000000E+00  0.00000000000E+00  0.30879932879E+04  0.30879932879E+04  0.00000000000E+00 0. -1.
          2   -1    0    0  501    0  0.00000000000E+00 -0.00000000000E+00 -0.25998221447E+04  0.25998221447E+04  0.00000000000E+00 0.  1.
         23    2    1    2    0    0  0.23958653859E+04 -0.13951605438E+04 -0.33889114416E+03  0.27946033911E+04  0.91197672907E+02 0.  0.
         11    1    3    3    0    0  0.20227803095E+04 -0.11638408032E+04 -0.31636459520E+03  0.23550482273E+04  0.00000000000E+00 0.  1.
        -11    1    3    3    0    0  0.37308507634E+03 -0.23131974058E+03 -0.22526548954E+02  0.43955516375E+03  0.00000000000E+00 0. -1.
         22    1    1    2    0    0 -0.23958653859E+04  0.13951605438E+04  0.82706228728E+03  0.28932120415E+04  0.00000000000E+00 0. -1.
<mgrwt>
<rscale>  0 0.56668274E+04</rscale>
<asrwt>0</asrwt>
<pdfrwt beam="1">  1        2 0.39997264E+00 0.56668274E+04</pdfrwt>
<pdfrwt beam="2">  1       -2 0.47507589E+00 0.56668274E+04</pdfrwt>
<totfact> 0.50301430E-03</totfact>
</mgrwt>
</event>
<event>
 6    1  0.5040916E-004  0.1621570E+04  0.7818608E-02  0.8807405E-01
          2   -1    0    0  501    0  0.00000000000E+00  0.00000000000E+00  0.32626480138E+03  0.32626480138E+03  0.00000000000E+00 0.  1.
         -2   -1    0    0    0  501 -0.00000000000E+00 -0.00000000000E+00 -0.20148421594E+04  0.20148421594E+04  0.00000000000E+00 0. -1.
         23    2    1    2    0    0  0.35923117643E+03 -0.33616079403E+03 -0.17724931979E+04  0.18420147992E+04  0.96100292557E+02 0.  0.
         13    1    3    3    0    0  0.29461285219E+03 -0.23704587701E+03 -0.14502341950E+04  0.14987216889E+04  0.00000000000E+00 0. -1.
        -13    1    3    3    0    0  0.64618324238E+02 -0.99114917013E+02 -0.32225900289E+03  0.34329311025E+03  0.00000000000E+00 0.  1.
         22    1    1    2    0    0 -0.35923117643E+03  0.33616079403E+03  0.83915839907E+02  0.49909216158E+03  0.00000000000E+00 0.  1.
<mgrwt>
<rscale>  0 0.16215697E+04</rscale>
<asrwt>0</asrwt>
<pdfrwt beam="1">  1        2 0.50194585E-01 0.16215697E+04</pdfrwt>
<pdfrwt beam="2">  1       -2 0.30997572E+00 0.16215697E+04</pdfrwt>
<totfact> 0.26506133E+00</totfact>
</mgrwt>
</event>
<event>
 6    1  0.5040916E-004  0.2259343E+04  0.7818608E-02  0.8494126E-01
          2   -1    0    0  501    0  0.00000000000E+00  0.00000000000E+00  0.12208254022E+04  0.12208254022E+04  0.00000000000E+00 0.  1.
         -2   -1    0    0    0  501 -0.00000000000E+00 -0.00000000000E+00 -0.10453236341E+04  0.10453236341E+04  0.00000000000E+00 0. -1.
         23    2    1    2    0    0 -0.72246167842E+03  0.82333614128E+03 -0.18076345966E+03  0.11142991369E+04  0.95675805766E+02 0.  0.
         13    1    3    3    0    0 -0.10996499729E+03  0.11437675524E+03  0.68088496479E+01  0.15881027424E+03  0.00000000000E+00 0. -1.
        -13    1    3    3    0    0 -0.61249668113E+03  0.70895938604E+03 -0.18757230930E+03  0.95548886266E+03  0.00000000000E+00 0.  1.
         22    1    1    2    0    0  0.72246167842E+03 -0.82333614128E+03  0.35626522780E+03  0.11518498994E+04  0.00000000000E+00 0. -1.
<mgrwt>
<rscale>  0 0.22593430E+04</rscale>
<asrwt>0</asrwt>
<pdfrwt beam="1">  1        2 0.18781929E+00 0.22593430E+04</pdfrwt>
<pdfrwt beam="2">  1       -2 0.16081902E+00 0.22593430E+04</pdfrwt>
<totfact> 0.41593340E+00</totfact>
</mgrwt>
</event>
<event>
 6    1  0.5040916E-004  0.3912076E+04  0.7818608E-02  0.8022522E-01
          2   -1    0    0  501    0  0.00000000000E+00  0.00000000000E+00  0.24838643116E+04  0.24838643116E+04  0.00000000000E+00 0.  1.
         -2   -1    0    0    0  501 -0.00000000000E+00 -0.00000000000E+00 -0.15403759313E+04  0.15403759313E+04  0.00000000000E+00 0. -1.
         23    2    1    2    0    0 -0.98807489392E+03  0.26263302837E+03 -0.12421462446E+04  0.16113028593E+04  0.90008376273E+02 0.  0.
         11    1    3    3    0    0 -0.83122169400E+02  0.48105789143E+02 -0.12721697974E+03  0.15939768483E+03  0.00000000000E+00 0. -1.
        -11    1    3    3    0    0 -0.90495272452E+03  0.21452723922E+03 -0.11149292648E+04  0.14519051744E+04  0.00000000000E+00 0.  1.
         22    1    1    2    0    0  0.98807489392E+03 -0.26263302837E+03  0.21856346249E+04  0.24129373836E+04  0.00000000000E+00 0.  1.
<mgrwt>
<rscale>  0 0.39120761E+04</rscale>
<asrwt>0</asrwt>
<pdfrwt beam="1">  1        2 0.38213297E+00 0.39120761E+04</pdfrwt>
<pdfrwt beam="2">  1       -2 0.23698091E+00 0.39120761E+04</pdfrwt>
<totfact> 0.21855938E-01</totfact>
</mgrwt>
</event>
<event>
 6    1  0.5040916E-004  0.1702052E+04  0.7818608E-02  0.8760195E-01
          2   -1    0    0  501    0  0.00000000000E+00  0.00000000000E+00  0.17475605450E+04  0.17475605450E+04  0.00000000000E+00 0.  1.
         -2   -1    0    0    0  501 -0.00000000000E+00 -0.00000000000E+00 -0.41443208216E+03  0.41443208216E+03  0.00000000000E+00 0. -1.
         23    2    1    2    0    0 -0.39476736733E+03 -0.11503950979E+03  0.16113464769E+04  0.16655244746E+04  0.91972517354E+02 0.  0.
         11    1    3    3    0    0 -0.22734262955E+03 -0.27977618075E+02  0.77430888283E+03  0.80747858446E+03  0.00000000000E+00 0.  1.
        -11    1    3    3    0    0 -0.16742473778E+03 -0.87061891713E+02  0.83703759405E+03  0.85804589019E+03  0.00000000000E+00 0. -1.
         22    1    1    2    0    0  0.39476736733E+03  0.11503950979E+03 -0.27821801404E+03  0.49646815251E+03  0.00000000000E+00 0. -1.
<mgrwt>
<rscale>  0 0.17020519E+04</rscale>
<asrwt>0</asrwt>
<pdfrwt beam="1">  1        2 0.26885547E+00 0.17020519E+04</pdfrwt>
<pdfrwt beam="2">  1       -2 0.63758782E-01 0.17020519E+04</pdfrwt>
<totfact> 0.19974022E+01</totfact>
</mgrwt>
</event>
<event>
 6    1  0.5040916E-004  0.3341380E+04  0.7818608E-02  0.8152445E-01
         -2   -1    0    0    0  501 -0.00000000000E+00  0.00000000000E+00  0.11496999784E+04  0.11496999784E+04  0.00000000000E+00 0. -1.
          2   -1    0    0  501    0  0.00000000000E+00 -0.00000000000E+00 -0.24277685340E+04  0.24277685340E+04  0.00000000000E+00 0.  1.
         23    2    1    2    0    0 -0.15242380321E+04  0.43986067330E+03 -0.83048489078E+02  0.15913033758E+04  0.92576411100E+02 0.  0.
         13    1    3    3    0    0 -0.12421807503E+04  0.38207523562E+03 -0.40356215798E+02  0.13002396418E+04  0.00000000000E+00 0.  1.
        -13    1    3    3    0    0 -0.28205728183E+03  0.57785437682E+02 -0.42692273280E+02  0.29106373398E+03  0.00000000000E+00 0. -1.
         22    1    1    2    0    0  0.15242380321E+04 -0.43986067330E+03 -0.11950200665E+04  0.19861651366E+04  0.00000000000E+00 0.  1.
<mgrwt>
<rscale>  0 0.33413802E+04</rscale>
<asrwt>0</asrwt>
<pdfrwt beam="1">  1        2 0.37350285E+00 0.33413802E+04</pdfrwt>
<pdfrwt beam="2">  1       -2 0.17687692E+00 0.33413802E+04</pdfrwt>
<totfact> 0.60799127E-01</totfact>
</mgrwt>
</event>
<event>
 6    1  0.5040916E-004  0.4909563E+03  0.7818608E-02  0.1016167E+00
         -2   -1    0    0    0  501 -0.00000000000E+00  0.00000000000E+00  0.59119884178E+02  0.59119884178E+02  0.00000000000E+00 0. -1.
          2   -1    0    0  501    0  0.00000000000E+00 -0.00000000000E+00 -0.10192765563E+04  0.10192765563E+04  0.00000000000E+00 0.  1.
         23    2    1    2    0    0 -0.11080268086E+03  0.18946133975E+03 -0.30717600082E+03  0.38951576109E+03  0.95878043921E+02 0.  0.
         13    1    3    3    0    0 -0.33967809847E+02 -0.33443019160E+00 -0.33395301945E+02  0.47635807344E+02  0.00000000000E+00 0. -1.
        -13    1    3    3    0    0 -0.76834871017E+02  0.18979576994E+03 -0.27378069888E+03  0.34187995374E+03  0.00000000000E+00 0.  1.
         22    1    1    2    0    0  0.11080268086E+03 -0.18946133975E+03 -0.65298067130E+03  0.68888067939E+03  0.00000000000E+00 0.  1.
<mgrwt>
<rscale>  0 0.49095626E+03</rscale>
<asrwt>0</asrwt>
<pdfrwt beam="1">  1        2 0.15681177E+00 0.49095626E+03</pdfrwt>
<pdfrwt beam="2">  1       -2 0.90953673E-02 0.49095626E+03</pdfrwt>
<totfact> 0.19721875E+03</totfact>
</mgrwt>
</event>
<event>
 6    1  0.5040916E-004  0.2438275E+04  0.7818608E-02  0.8425311E-01
         -2   -1    0    0    0  501 -0.00000000000E+00  0.00000000000E+00  0.80954208612E+03  0.80954208612E+03  0.00000000000E+00 0. -1.
          2   -1    0    0  501    0  0.00000000000E+00 -0.00000000000E+00 -0.18359717617E+04  0.18359717617E+04  0.00000000000E+00 0.  1.
         23    2    1    2    0    0  0.51986489110E+03  0.31435723305E+03  0.63079368036E+03  0.88044466321E+03  0.90565792817E+02 0.  0.
         11    1    3    3    0    0  0.15758212712E+03  0.14565700253E+03  0.21807791436E+03  0.30595108417E+03  0.00000000000E+00 0.  1.
        -11    1    3    3    0    0  0.36228276398E+03  0.16870023051E+03  0.41271576600E+03  0.57449357904E+03  0.00000000000E+00 0. -1.
         22    1    1    2    0    0 -0.51986489110E+03 -0.31435723305E+03 -0.16572233560E+04  0.17650691846E+04  0.00000000000E+00 0.  1.
<mgrwt>
<rscale>  0 0.24382751E+04</rscale>
<asrwt>0</asrwt>
<pdfrwt beam="1">  1        2 0.28245719E+00 0.24382751E+04</pdfrwt>
<pdfrwt beam="2">  1       -2 0.12454494E+00 0.24382751E+04</pdfrwt>
<totfact> 0.35749744E+00</totfact>
</mgrwt>
</event>
<event>
 6    1  0.5040916E-004  0.2035677E+04  0.7818608E-02  0.8590120E-01
         -2   -1    0    0    0  501 -0.00000000000E+00  0.00000000000E+00  0.62253408696E+03  0.62253408696E+03  0.00000000000E+00 0. -1.
          2   -1    0    0  501    0  0.00000000000E+00 -0.00000000000E+00 -0.16641589150E+04  0.16641589150E+04  0.00000000000E+00 0.  1.
         23    2    1    2    0    0  0.35739999592E+03  0.29782513929E+03  0.49246156704E+03  0.68361607360E+03  0.91531253657E+02 0.  0.
         13    1    3    3    0    0  0.15182718503E+03  0.90592848135E+02  0.13704394263E+03  0.22369532954E+03  0.00000000000E+00 0. -1.
        -13    1    3    3    0    0  0.20557281090E+03  0.20723229115E+03  0.35541762441E+03  0.45992074406E+03  0.00000000000E+00 0.  1.
         22    1    1    2    0    0 -0.35739999592E+03 -0.29782513929E+03 -0.15340863951E+04  0.16030769284E+04  0.00000000000E+00 0.  1.
<mgrwt>
<rscale>  0 0.20356774E+04</rscale>
<asrwt>0</asrwt>
<pdfrwt beam="1">  1        2 0.25602445E+00 0.20356774E+04</pdfrwt>
<pdfrwt beam="2">  1       -2 0.95774475E-01 0.20356774E+04</pdfrwt>
<totfact> 0.86990111E+00</totfact>
</mgrwt>
</event>
<event>
 6    1  0.5040916E-004  0.3428934E+04  0.7818608E-02  0.8130841E-01
         -2   -1    0    0    0  501 -0.00000000000E+00  0.00000000000E+00  0.14661289621E+04  0.14661289621E+04  0.00000000000E+00 0. -1.
          2   -1    0    0  501    0  0.00000000000E+00 -0.00000000000E+00 -0.20048697995E+04  0.20048697995E+04  0.00000000000E+00 0.  1.
         23    2    1    2    0    0  0.13057291573E+02  0.15511168703E+04 -0.10060643753E+04  0.18509600808E+04  0.88054841483E+02 0.  0.
         13    1    3    3    0    0  0.17053284221E+02  0.52966101298E+03 -0.39156335142E+03  0.65890322609E+03  0.00000000000E+00 0. -1.
        -13    1    3    3    0    0 -0.39959926483E+01  0.10214558573E+04 -0.61450102389E+03  0.11920568547E+04  0.00000000000E+00 0.  1.
         22    1    1    2    0    0 -0.13057291573E+02 -0.15511168703E+04  0.46732353797E+03  0.16200386808E+04  0.00000000000E+00 0. -1.
<mgrwt>
<rscale>  0 0.34289343E+04</rscale>
<asrwt>0</asrwt>
<pdfrwt beam="1">  1        2 0.30844151E+00 0.34289343E+04</pdfrwt>
<pdfrwt beam="2">  1       -2 0.22555830E+00 0.34289343E+04</pdfrwt>
<totfact> 0.50030195E-01</totfact>
</mgrwt>
</event>
<event>
 6    1  0.5040916E-004  0.3297439E+04  0.7818608E-02  0.8163547E-01
          2   -1    0    0  501    0  0.00000000000E+00  0.00000000000E+00  0.27355769186E+04  0.27355769186E+04  0.00000000000E+00 0.  1.
         -2   -1    0    0    0  501 -0.00000000000E+00 -0.00000000000E+00 -0.99367582509E+03  0.99367582509E+03  0.00000000000E+00 0. -1.
         23    2    1    2    0    0  0.13582905183E+04 -0.43611378791E+03 -0.59996057247E+02  0.14309965112E+04  0.94884773124E+02 0.  0.
         13    1    3    3    0    0  0.63706184316E+03 -0.17575315997E+03  0.10815592504E+02  0.66094927362E+03  0.00000000000E+00 0. -1.
        -13    1    3    3    0    0  0.72122867514E+03 -0.26036062794E+03 -0.70811649751E+02  0.77004723762E+03  0.00000000000E+00 0.  1.
         22    1    1    2    0    0 -0.13582905183E+04  0.43611378791E+03  0.18018971507E+04  0.22982562324E+04  0.00000000000E+00 0.  1.
<mgrwt>
<rscale>  0 0.32974394E+04</rscale>
<asrwt>0</asrwt>
<pdfrwt beam="1">  1        2 0.42085798E+00 0.32974394E+04</pdfrwt>
<pdfrwt beam="2">  1       -2 0.15287321E+00 0.32974394E+04</pdfrwt>
<totfact> 0.60148801E-01</totfact>
</mgrwt>
</event>
<event>
 6    1  0.5040916E-004  0.1653705E+04  0.7818608E-02  0.8788218E-01
          2   -1    0    0  501    0  0.00000000000E+00  0.00000000000E+00  0.10546778602E+04  0.10546778602E+04  0.00000000000E+00 0.  1.
         -2   -1    0    0    0  501 -0.00000000000E+00 -0.00000000000E+00 -0.64824031443E+03  0.64824031443E+03  0.00000000000E+00 0. -1.
         23    2    1    2    0    0 -0.27470315595E+03 -0.47444846464E+03  0.83742396882E+03  0.10055571015E+04  0.96452118963E+02 0.  0.
         11    1    3    3    0    0 -0.13484768439E+03 -0.23807869271E+03  0.33095836930E+03  0.42941681863E+03  0.00000000000E+00 0. -1.
        -11    1    3    3    0    0 -0.13985547156E+03 -0.23636977193E+03  0.50646559952E+03  0.57614028283E+03  0.00000000000E+00 0.  1.
         22    1    1    2    0    0  0.27470315595E+03  0.47444846464E+03 -0.43098642306E+03  0.69736107316E+03  0.00000000000E+00 0. -1.
<mgrwt>
<rscale>  0 0.16537046E+04</rscale>
<asrwt>0</asrwt>
<pdfrwt beam="1">  1        2 0.16225813E+00 0.16537046E+04</pdfrwt>
<pdfrwt beam="2">  1       -2 0.99729279E-01 0.16537046E+04</pdfrwt>
<totfact> 0.18462074E+01</totfact>
</mgrwt>
</event>
<event>
 6    1  0.5040916E-004  0.2530321E+04  0.7818608E-02  0.8392262E-01
         -2   -1    0    0    0  501 -0.00000000000E+00  0.00000000000E+00  0.74175925956E+03  0.74175925956E+03  0.00000000000E+00 0. -1.
          2   -1    0    0  501    0  0.00000000000E+00 -0.00000000000E+00 -0.21578848404E+04  0.21578848404E+04  0.00000000000E+00 0.  1.
         23    2    1    2    0    0 -0.33164368606E+02  0.59208460689E+03  0.56963071067E+03  0.82723195314E+03  0.90385290226E+02 0.  0.
         13    1    3    3    0    0 -0.36011876198E+02  0.26375157769E+03  0.20091571412E+03  0.33350993110E+03  0.00000000000E+00 0. -1.
        -13    1    3    3    0    0  0.28475075922E+01  0.32833302920E+03  0.36871499655E+03  0.49372202204E+03  0.00000000000E+00 0.  1.
         22    1    1    2    0    0  0.33164368606E+02 -0.59208460689E+03 -0.19857562915E+04  0.20724121468E+04  0.00000000000E+00 0.  1.
<mgrwt>
<rscale>  0 0.25303210E+04</rscale>
<asrwt>0</asrwt>
<pdfrwt beam="1">  1        2 0.33198229E+00 0.25303210E+04</pdfrwt>
<pdfrwt beam="2">  1       -2 0.11411681E+00 0.25303210E+04</pdfrwt>
<totfact> 0.29147271E+00</totfact>
</mgrwt>
</event>
<event>
 6    1  0.5040916E-004  0.4140537E+04  0.7818608E-02  0.7976781E-01
         -2   -1    0    0    0  501 -0.00000000000E+00  0.00000000000E+00  0.13113686803E+04  0.13113686803E+04  0.00000000000E+00 0. -1.
          2   -1    0    0  501    0  0.00000000000E+00 -0.00000000000E+00 -0.32683500210E+04  0.32683500210E+04  0.00000000000E+00 0.  1.
         23    2    1    2    0    0  0.18017806719E+04  0.83314924798E+03 -0.33254768284E+03  0.20146970703E+04  0.88685199398E+02 0.  0.
         11    1    3    3    0    0  0.12278134172E+04  0.56355975382E+03 -0.18444447986E+03  0.13635047303E+04  0.00000000000E+00 0. -1.
        -11    1    3    3    0    0  0.57396725474E+03  0.26958949415E+03 -0.14810320299E+03  0.65119233995E+03  0.00000000000E+00 0.  1.
         22    1    1    2    0    0 -0.18017806719E+04 -0.83314924798E+03 -0.16244336579E+04  0.25650216311E+04  0.00000000000E+00 0.  1.
<mgrwt>
<rscale>  0 0.41405371E+04</rscale>
<asrwt>0</asrwt>
<pdfrwt beam="1">  1        2 0.50282308E+00 0.41405371E+04</pdfrwt>
<pdfrwt beam="2">  1       -2 0.20174903E+00 0.41405371E+04</pdfrwt>
<totfact> 0.11799115E-01</totfact>
</mgrwt>
</event>
<event>
 6    1  0.5040916E-004  0.9860578E+03  0.7818608E-02  0.9323970E-01
          1   -1    0    0  501    0  0.00000000000E+00  0.00000000000E+00  0.18030238764E+04  0.18030238764E+04  0.00000000000E+00 0. -1.
         -1   -1    0    0    0  501 -0.00000000000E+00 -0.00000000000E+00 -0.13481656314E+03  0.13481656314E+03  0.00000000000E+00 0.  1.
         23    2    1    2    0    0  0.39594445687E+03 -0.36375873344E+02  0.13998422334E+04  0.14581373718E+04  0.92255621283E+02 0.  0.
         13    1    3    3    0    0  0.43149317412E+02 -0.15068413931E+02  0.83708666029E+02  0.95373274348E+02  0.00000000000E+00 0.  1.
        -13    1    3    3    0    0  0.35279513945E+03 -0.21307459413E+02  0.13161335674E+04  0.13627640975E+04  0.00000000000E+00 0. -1.
         22    1    1    2    0    0 -0.39594445687E+03  0.36375873344E+02  0.26836507987E+03  0.47970306772E+03  0.00000000000E+00 0.  1.
<mgrwt>
<rscale>  0 0.98605777E+03</rscale>
<asrwt>0</asrwt>
<pdfrwt beam="1">  1        1 0.27738827E+00 0.98605777E+03</pdfrwt>
<pdfrwt beam="2">  1       -1 0.20741011E-01 0.98605777E+03</pdfrwt>
<totfact> 0.78502112E+01</totfact>
</mgrwt>
</event>
<event>
 6    1  0.5040916E-004  0.1570690E+04  0.7818608E-02  0.8838759E-01
          2   -1    0    0  501    0  0.00000000000E+00  0.00000000000E+00  0.18704685734E+04  0.18704685734E+04  0.00000000000E+00 0.  1.
         -2   -1    0    0    0  501 -0.00000000000E+00 -0.00000000000E+00 -0.32973908238E+03  0.32973908238E+03  0.00000000000E+00 0. -1.
         23    2    1    2    0    0  0.59094664255E+03  0.44449766534E+03  0.41431115374E+03  0.85276029897E+03  0.93542966407E+02 0.  0.
         13    1    3    3    0    0  0.18164995655E+03  0.97605379068E+02  0.83693289462E+02  0.22254905850E+03  0.00000000000E+00 0. -1.
        -13    1    3    3    0    0  0.40929668600E+03  0.34689228627E+03  0.33061786427E+03  0.63021124048E+03  0.00000000000E+00 0.  1.
         22    1    1    2    0    0 -0.59094664255E+03 -0.44449766534E+03  0.11264183373E+04  0.13474473568E+04  0.00000000000E+00 0. -1.
<mgrwt>
<rscale>  0 0.15706898E+04</rscale>
<asrwt>0</asrwt>
<pdfrwt beam="1">  1        2 0.28776439E+00 0.15706898E+04</pdfrwt>
<pdfrwt beam="2">  1       -2 0.50729091E-01 0.15706898E+04</pdfrwt>
<totfact> 0.27843177E+01</totfact>
</mgrwt>
</event>
<event>
 6    1  0.5040916E-004  0.2339083E+04  0.7818608E-02  0.8462669E-01
          2   -1    0    0  501    0  0.00000000000E+00  0.00000000000E+00  0.12799462072E+04  0.12799462072E+04  0.00000000000E+00 0.  1.
         -2   -1    0    0    0  501 -0.00000000000E+00 -0.00000000000E+00 -0.10686597488E+04  0.10686597488E+04  0.00000000000E+00 0. -1.
         23    2    1    2    0    0 -0.10966049922E+03 -0.11059008447E+04  0.46596947937E+03  0.12084719531E+04  0.90745811719E+02 0.  0.
         13    1    3    3    0    0  0.25441750249E+01 -0.39374200837E+03  0.17867206417E+03  0.43239212354E+03  0.00000000000E+00 0. -1.
        -13    1    3    3    0    0 -0.11220467424E+03 -0.71215883630E+03  0.28729741520E+03  0.77607982954E+03  0.00000000000E+00 0.  1.
         22    1    1    2    0    0  0.10966049922E+03  0.11059008447E+04 -0.25468302102E+03  0.11401340029E+04  0.00000000000E+00 0.  1.
<mgrwt>
<rscale>  0 0.23390827E+04</rscale>
<asrwt>0</asrwt>
<pdfrwt beam="1">  1        2 0.19691480E+00 0.23390827E+04</pdfrwt>
<pdfrwt beam="2">  1       -2 0.16440919E+00 0.23390827E+04</pdfrwt>
<totfact> 0.35891887E+00</totfact>
</mgrwt>
</event>
<event>
 6    1  0.5040916E-004  0.1086110E+04  0.7818608E-02  0.9218837E-01
          1   -1    0    0  501    0  0.00000000000E+00  0.00000000000E+00  0.27293439170E+04  0.27293439170E+04  0.00000000000E+00 0.  1.
         -1   -1    0    0    0  501 -0.00000000000E+00 -0.00000000000E+00 -0.10805110419E+03  0.10805110419E+03  0.00000000000E+00 0. -1.
         23    2    1    2    0    0 -0.13541687822E+02  0.42272114181E+03  0.44077849039E+03  0.61624233591E+03  0.81193583074E+02 0.  0.
         13    1    3    3    0    0  0.57381442170E+01  0.15701087518E+03  0.21941757777E+03  0.26986925475E+03  0.00000000000E+00 0.  1.
        -13    1    3    3    0    0 -0.19279832039E+02  0.26571026663E+03  0.22136091262E+03  0.34637308116E+03  0.00000000000E+00 0. -1.
         22    1    1    2    0    0  0.13541687822E+02 -0.42272114181E+03  0.21805143224E+04  0.22211526853E+04  0.00000000000E+00 0.  1.
<mgrwt>
<rscale>  0 0.10861098E+04</rscale>
<asrwt>0</asrwt>
<pdfrwt beam="1">  1        1 0.41989901E+00 0.10861098E+04</pdfrwt>
<pdfrwt beam="2">  1       -1 0.16623249E-01 0.10861098E+04</pdfrwt>
<totfact> 0.26287296E+01</totfact>
</mgrwt>
</event>
<event>
 6    1  0.5040916E-004  0.3241446E+04  0.7818608E-02  0.8177956E-01
         -2   -1    0    0    0  501 -0.00000000000E+00  0.00000000000E+00  0.31653611274E+04  0.31653611274E+04  0.00000000000E+00 0. -1.
          2   -1    0    0  501    0  0.00000000000E+00 -0.00000000000E+00 -0.82983991537E+03  0.82983991537E+03  0.00000000000E+00 0.  1.
         23    2    1    2    0    0 -0.11587288515E+04 -0.47642285203E+03 -0.96343041309E+02  0.12595850186E+04  0.87413684181E+02 0.  0.
         13    1    3    3    0    0 -0.10069431150E+04 -0.41926885966E+03 -0.54596087751E+02  0.10921087612E+04  0.00000000000E+00 0. -1.
        -13    1    3    3    0    0 -0.15178573648E+03 -0.57153992379E+02 -0.41746953558E+02  0.16747625735E+03  0.00000000000E+00 0.  1.
         22    1    1    2    0    0  0.11587288515E+04  0.47642285203E+03  0.24318642533E+04  0.27356160242E+04  0.00000000000E+00 0. -1.
<mgrwt>
<rscale>  0 0.32414460E+04</rscale>
<asrwt>0</asrwt>
<pdfrwt beam="1">  1        2 0.12766768E+00 0.32414460E+04</pdfrwt>
<pdfrwt beam="2">  1       -2 0.48697863E+00 0.32414460E+04</pdfrwt>
<totfact> 0.54709773E-02</totfact>
</mgrwt>
</event>
<event>
 6    1  0.5040916E-004  0.3062523E+04  0.7818608E-02  0.8226099E-01
         -2   -1    0    0    0  501 -0.00000000000E+00  0.00000000000E+00  0.74004916925E+03  0.74004916925E+03  0.00000000000E+00 0. -1.
          2   -1    0    0  501    0  0.00000000000E+00 -0.00000000000E+00 -0.31683875045E+04  0.31683875045E+04  0.00000000000E+00 0.  1.
         23    2    1    2    0    0 -0.42015577295E+03  0.23879106111E+03 -0.30677623831E+04  0.31069286217E+04  0.91035032017E+02 0.  0.
         13    1    3    3    0    0 -0.17904237076E+03  0.15303912183E+03 -0.14137407646E+04  0.14332271603E+04  0.00000000000E+00 0. -1.
        -13    1    3    3    0    0 -0.24111340219E+03  0.85751939272E+02 -0.16540216184E+04  0.16737014614E+04  0.00000000000E+00 0.  1.
         22    1    1    2    0    0  0.42015577295E+03 -0.23879106111E+03  0.63942404787E+03  0.80150805198E+03  0.00000000000E+00 0. -1.
<mgrwt>
<rscale>  0 0.30625235E+04</rscale>
<asrwt>0</asrwt>
<pdfrwt beam="1">  1        2 0.48744424E+00 0.30625235E+04</pdfrwt>
<pdfrwt beam="2">  1       -2 0.11385372E+00 0.30625235E+04</pdfrwt>
<totfact> 0.69914904E-01</totfact>
</mgrwt>
</event>
<event>
 6    1  0.5040916E-004  0.2554139E+04  0.7818608E-02  0.8383948E-01
          2   -1    0    0  501    0  0.00000000000E+00  0.00000000000E+00  0.24846615827E+04  0.24846615827E+04  0.00000000000E+00 0.  1.
         -2   -1    0    0    0  501 -0.00000000000E+00 -0.00000000000E+00 -0.65639003822E+03  0.65639003822E+03  0.00000000000E+00 0. -1.
         23    2    1    2    0    0  0.10051566128E+04 -0.20703434665E+01 -0.50134826613E+02  0.10106163139E+04  0.92128879293E+02 0.  0.
         11    1    3    3    0    0  0.73742088718E+03 -0.11177998976E+02  0.29764920009E+01  0.73751160805E+03  0.00000000000E+00 0. -1.
        -11    1    3    3    0    0  0.26773572564E+03  0.91076555097E+01 -0.53111318614E+02  0.27310470582E+03  0.00000000000E+00 0.  1.
         22    1    1    2    0    0 -0.10051566128E+04  0.20703434665E+01  0.18784063711E+04  0.21304353071E+04  0.00000000000E+00 0.  1.
<mgrwt>
<rscale>  0 0.25541395E+04</rscale>
<asrwt>0</asrwt>
<pdfrwt beam="1">  1        2 0.38225562E+00 0.25541395E+04</pdfrwt>
<pdfrwt beam="2">  1       -2 0.10098308E+00 0.25541395E+04</pdfrwt>
<totfact> 0.25454835E+00</totfact>
</mgrwt>
</event>
<event>
 6    1  0.5040916E-004  0.1764667E+04  0.7818608E-02  0.8725318E-01
          1   -1    0    0  501    0  0.00000000000E+00  0.00000000000E+00  0.17300345308E+04  0.17300345308E+04  0.00000000000E+00 0.  1.
         -1   -1    0    0    0  501 -0.00000000000E+00 -0.00000000000E+00 -0.44999793702E+03  0.44999793702E+03  0.00000000000E+00 0. -1.
         23    2    1    2    0    0 -0.80354917257E+03  0.31451231106E+03  0.42894622323E+03  0.96802418179E+03  0.92014605119E+02 0.  0.
         13    1    3    3    0    0 -0.21003702499E+03  0.66174791184E+02  0.15198221718E+03  0.26756914843E+03  0.00000000000E+00 0.  1.
        -13    1    3    3    0    0 -0.59351214758E+03  0.24833751987E+03  0.27696400606E+03  0.70045503336E+03  0.00000000000E+00 0. -1.
         22    1    1    2    0    0  0.80354917257E+03 -0.31451231106E+03  0.85109037051E+03  0.12120082860E+04  0.00000000000E+00 0.  1.
<mgrwt>
<rscale>  0 0.17646665E+04</rscale>
<asrwt>0</asrwt>
<pdfrwt beam="1">  1        1 0.26615916E+00 0.17646665E+04</pdfrwt>
<pdfrwt beam="2">  1       -1 0.69230453E-01 0.17646665E+04</pdfrwt>
<totfact> 0.90813073E+00</totfact>
</mgrwt>
</event>
<event>
 6    1  0.5040916E-004  0.5720886E+03  0.7818608E-02  0.9965067E-01
          2   -1    0    0  501    0  0.00000000000E+00  0.00000000000E+00  0.21003395070E+04  0.21003395070E+04  0.00000000000E+00 0.  1.
         -2   -1    0    0    0  501 -0.00000000000E+00 -0.00000000000E+00 -0.38956251004E+02  0.38956251004E+02  0.00000000000E+00 0. -1.
         23    2    1    2    0    0  0.25004259119E+03  0.97620254525E+02  0.77947775973E+03  0.82958864843E+03  0.92632263265E+02 0.  0.
         11    1    3    3    0    0  0.14032784360E+03  0.52948477069E+01  0.39857613982E+03  0.42259067469E+03  0.00000000000E+00 0.  1.
        -11    1    3    3    0    0  0.10971474759E+03  0.92325406818E+02  0.38090161991E+03  0.40699797374E+03  0.00000000000E+00 0. -1.
         22    1    1    2    0    0 -0.25004259119E+03 -0.97620254525E+02  0.12819054963E+04  0.13097071096E+04  0.00000000000E+00 0. -1.
<mgrwt>
<rscale>  0 0.57208864E+03</rscale>
<asrwt>0</asrwt>
<pdfrwt beam="1">  1        2 0.32312907E+00 0.57208864E+03</pdfrwt>
<pdfrwt beam="2">  1       -2 0.59932710E-02 0.57208864E+03</pdfrwt>
<totfact> 0.94822048E+02</totfact>
</mgrwt>
</event>
<event>
 6    1  0.5040916E-004  0.2566001E+04  0.7818608E-02  0.8379843E-01
         -2   -1    0    0    0  501 -0.00000000000E+00  0.00000000000E+00  0.17063796986E+04  0.17063796986E+04  0.00000000000E+00 0. -1.
          2   -1    0    0  501    0  0.00000000000E+00 -0.00000000000E+00 -0.96466785448E+03  0.96466785448E+03  0.00000000000E+00 0.  1.
         23    2    1    2    0    0  0.86771366794E+03 -0.48471013708E+03 -0.47052476991E+03  0.11034415647E+04  0.91207461236E+02 0.  0.
         13    1    3    3    0    0  0.12374740501E+03 -0.56396533909E+02 -0.98115648511E+02  0.16769218755E+03  0.00000000000E+00 0. -1.
        -13    1    3    3    0    0  0.74396626293E+03 -0.42831360317E+03 -0.37240912140E+03  0.93574937710E+03  0.00000000000E+00 0.  1.
         22    1    1    2    0    0 -0.86771366794E+03  0.48471013708E+03  0.12122366140E+04  0.15676059884E+04  0.00000000000E+00 0. -1.
<mgrwt>
<rscale>  0 0.25660005E+04</rscale>
<asrwt>0</asrwt>
<pdfrwt beam="1">  1        2 0.14841044E+00 0.25660005E+04</pdfrwt>
<pdfrwt beam="2">  1       -2 0.26251995E+00 0.25660005E+04</pdfrwt>
<totfact> 0.12682639E+00</totfact>
</mgrwt>
</event>
<event>
 6    1  0.5040916E-004  0.1141433E+04  0.7818608E-02  0.9165723E-01
         -2   -1    0    0    0  501 -0.00000000000E+00  0.00000000000E+00  0.25875292299E+03  0.25875292299E+03  0.00000000000E+00 0. -1.
          2   -1    0    0  501    0  0.00000000000E+00 -0.00000000000E+00 -0.12587975325E+04  0.12587975325E+04  0.00000000000E+00 0.  1.
         23    2    1    2    0    0  0.22235240125E+03  0.45014840990E+03 -0.15282548150E+03  0.53273857897E+03  0.91545532159E+02 0.  0.
         11    1    3    3    0    0  0.14685331954E+03  0.35296061697E+03 -0.14684885714E+03  0.40952616697E+03  0.00000000000E+00 0. -1.
        -11    1    3    3    0    0  0.75499081703E+02  0.97187792926E+02 -0.59766243586E+01  0.12321241200E+03  0.00000000000E+00 0.  1.
         22    1    1    2    0    0 -0.22235240125E+03 -0.45014840990E+03 -0.84721912799E+03  0.98481187651E+03  0.00000000000E+00 0.  1.
<mgrwt>
<rscale>  0 0.11414334E+04</rscale>
<asrwt>0</asrwt>
<pdfrwt beam="1">  1        2 0.19366116E+00 0.11414334E+04</pdfrwt>
<pdfrwt beam="2">  1       -2 0.39808143E-01 0.11414334E+04</pdfrwt>
<totfact> 0.10326683E+02</totfact>
</mgrwt>
</event>
<event>
 6    1  0.5040916E-004  0.1681832E+04  0.7818608E-02  0.8771794E-01
         -2   -1    0    0    0  501 -0.00000000000E+00  0.00000000000E+00  0.26714462422E+03  0.26714462422E+03  0.00000000000E+00 0. -1.
          2   -1    0    0  501    0  0.00000000000E+00 -0.00000000000E+00 -0.26470311106E+04  0.26470311106E+04  0.00000000000E+00 0.  1.
         23    2    1    2    0    0 -0.36680357940E+03 -0.35639825792E+03 -0.42079044714E+02  0.52107978638E+03  0.90492616626E+02 0.  0.
         13    1    3    3    0    0 -0.35433317174E+03 -0.33106604420E+03 -0.20183269595E+02  0.48534944792E+03  0.00000000000E+00 0.  1.
        -13    1    3    3    0    0 -0.12470407660E+02 -0.25332213715E+02 -0.21895775118E+02  0.35730338467E+02  0.00000000000E+00 0. -1.
         22    1    1    2    0    0  0.36680357940E+03  0.35639825792E+03 -0.23378074417E+04  0.23930959484E+04  0.00000000000E+00 0.  1.
<mgrwt>
<rscale>  0 0.16818325E+04</rscale>
<asrwt>0</asrwt>
<pdfrwt beam="1">  1        2 0.40723555E+00 0.16818325E+04</pdfrwt>
<pdfrwt beam="2">  1       -2 0.41099173E-01 0.16818325E+04</pdfrwt>
<totfact> 0.15293489E+01</totfact>
</mgrwt>
</event>
<event>
 6    1  0.5040916E-004  0.1787880E+04  0.7818608E-02  0.8712771E-01
          1   -1    0    0  501    0  0.00000000000E+00  0.00000000000E+00  0.12098163040E+04  0.12098163040E+04  0.00000000000E+00 0.  1.
         -1   -1    0    0    0  501 -0.00000000000E+00 -0.00000000000E+00 -0.66053745742E+03  0.66053745742E+03  0.00000000000E+00 0. -1.
         23    2    1    2    0    0 -0.69410696724E+03 -0.52160482948E+03  0.48774673431E+03  0.99992726771E+03  0.90008798298E+02 0.  0.
         11    1    3    3    0    0 -0.27646368136E+03 -0.18177179620E+03  0.23017729140E+03  0.40305674350E+03  0.00000000000E+00 0.  1.
        -11    1    3    3    0    0 -0.41764328588E+03 -0.33983303328E+03  0.25756944291E+03  0.59687052421E+03  0.00000000000E+00 0. -1.
         22    1    1    2    0    0  0.69410696724E+03  0.52160482948E+03  0.61532112267E+02  0.87042649371E+03  0.00000000000E+00 0.  1.
<mgrwt>
<rscale>  0 0.17878803E+04</rscale>
<asrwt>0</asrwt>
<pdfrwt beam="1">  1        1 0.18612559E+00 0.17878803E+04</pdfrwt>
<pdfrwt beam="2">  1       -1 0.10162115E+00 0.17878803E+04</pdfrwt>
<totfact> 0.91197406E+00</totfact>
</mgrwt>
</event>
<event>
 6    1  0.5040916E-004  0.9329704E+03  0.7818608E-02  0.9385280E-01
         -1   -1    0    0    0  501 -0.00000000000E+00  0.00000000000E+00  0.13396691554E+03  0.13396691554E+03  0.00000000000E+00 0. -1.
          1   -1    0    0  501    0  0.00000000000E+00 -0.00000000000E+00 -0.16243447546E+04  0.16243447546E+04  0.00000000000E+00 0.  1.
         23    2    1    2    0    0 -0.11706939752E+03  0.29353443941E+02 -0.15929492837E+04  0.15999204779E+04  0.87699753938E+02 0.  0.
         13    1    3    3    0    0 -0.10141782727E+03  0.49066890164E+02 -0.98004533738E+03  0.98649987264E+03  0.00000000000E+00 0.  1.
        -13    1    3    3    0    0 -0.15651570247E+02 -0.19713446223E+02 -0.61290394631E+03  0.61342060531E+03  0.00000000000E+00 0. -1.
         22    1    1    2    0    0  0.11706939752E+03 -0.29353443941E+02  0.10257144464E+03  0.15839119219E+03  0.00000000000E+00 0. -1.
<mgrwt>
<rscale>  0 0.93297043E+03</rscale>
<asrwt>0</asrwt>
<pdfrwt beam="1">  1        1 0.24989919E+00 0.93297043E+03</pdfrwt>
<pdfrwt beam="2">  1       -1 0.20610295E-01 0.93297043E+03</pdfrwt>
<totfact> 0.10525389E+02</totfact>
</mgrwt>
</event>
<event>
 6    1  0.5040916E-004  0.3365945E+04  0.7818608E-02  0.8146316E-01
          2   -1    0    0  501    0  0.00000000000E+00  0.00000000000E+00  0.10038404465E+04  0.10038404465E+04  0.00000000000E+00 0.  1.
         -2   -1    0    0    0  501 -0.00000000000E+00 -0.00000000000E+00 -0.28215596531E+04  0.28215596531E+04  0.00000000000E+00 0. -1.
         23    2    1    2    0    0  0.94352037756E+03  0.13833192925E+04 -0.73265566856E+03  0.18301141929E+04  0.93438013374E+02 0.  0.
         11    1    3    3    0    0  0.47351621301E+03  0.66260473930E+03 -0.30918309746E+03  0.87112389032E+03  0.00000000000E+00 0. -1.
        -11    1    3    3    0    0  0.47000416455E+03  0.72071455321E+03 -0.42347257110E+03  0.95899030254E+03  0.00000000000E+00 0.  1.
         22    1    1    2    0    0 -0.94352037756E+03 -0.13833192925E+04 -0.10850635381E+04  0.19952859067E+04  0.00000000000E+00 0.  1.
<mgrwt>
<rscale>  0 0.33659446E+04</rscale>
<asrwt>0</asrwt>
<pdfrwt beam="1">  1        2 0.15443699E+00 0.33659446E+04</pdfrwt>
<pdfrwt beam="2">  1       -2 0.43408609E+00 0.33659446E+04</pdfrwt>
<totfact> 0.91938101E-02</totfact>
</mgrwt>
</event>
<event>
 6    1  0.5040916E-004  0.1879757E+04  0.7818608E-02  0.8664999E-01
         -2   -1    0    0    0  501 -0.00000000000E+00  0.00000000000E+00  0.12989630027E+04  0.12989630027E+04  0.00000000000E+00 0. -1.
          2   -1    0    0  501    0  0.00000000000E+00 -0.00000000000E+00 -0.68005926075E+03  0.68005926075E+03  0.00000000000E+00 0.  1.
         23    2    1    2    0    0  0.68877223037E+03 -0.38886193054E+03  0.84161392660E+03  0.11573041775E+04  0.73608229763E+02 0.  0.
         11    1    3    3    0    0  0.34081266497E+03 -0.15490269246E+03  0.42154130357E+03  0.56377760452E+03  0.00000000000E+00 0.  1.
        -11    1    3    3    0    0  0.34795956540E+03 -0.23395923808E+03  0.42007262302E+03  0.59352657299E+03  0.00000000000E+00 0. -1.
         22    1    1    2    0    0 -0.68877223037E+03  0.38886193054E+03 -0.22271018468E+03  0.82171808591E+03  0.00000000000E+00 0.  1.
<mgrwt>
<rscale>  0 0.18797572E+04</rscale>
<asrwt>0</asrwt>
<pdfrwt beam="1">  1        2 0.10462450E+00 0.18797572E+04</pdfrwt>
<pdfrwt beam="2">  1       -2 0.19984046E+00 0.18797572E+04</pdfrwt>
<totfact> 0.53109906E+00</totfact>
</mgrwt>
</event>
<event>
 6    1  0.5040916E-004  0.3628061E+04  0.7818608E-02  0.8084094E-01
          2   -1    0    0  501    0  0.00000000000E+00  0.00000000000E+00  0.36013650195E+04  0.36013650195E+04  0.00000000000E+00 0.  1.
         -2   -1    0    0    0  501 -0.00000000000E+00 -0.00000000000E+00 -0.91373854208E+03  0.91373854208E+03  0.00000000000E+00 0. -1.
         23    2    1    2    0    0 -0.14893494403E+04  0.67779443563E+03  0.23156590672E+04  0.28370312132E+04  0.94351135646E+02 0.  0.
         11    1    3    3    0    0 -0.12678443753E+04  0.54233301167E+03  0.19721611238E+04  0.24064442553E+04  0.00000000000E+00 0.  1.
        -11    1    3    3    0    0 -0.22150506492E+03  0.13546142397E+03  0.34349794346E+03  0.43058695792E+03  0.00000000000E+00 0. -1.
         22    1    1    2    0    0  0.14893494403E+04 -0.67779443563E+03  0.37196741017E+03  0.16780723484E+04  0.00000000000E+00 0. -1.
<mgrwt>
<rscale>  0 0.36280607E+04</rscale>
<asrwt>0</asrwt>
<pdfrwt beam="1">  1        2 0.55405615E+00 0.36280607E+04</pdfrwt>
<pdfrwt beam="2">  1       -2 0.14057516E+00 0.36280607E+04</pdfrwt>
<totfact> 0.19866080E-01</totfact>
</mgrwt>
</event>
<event>
 6    1  0.5040916E-004  0.4973005E+03  0.7818608E-02  0.1014486E+00
          2   -1    0    0  501    0  0.00000000000E+00  0.00000000000E+00  0.40432893394E+02  0.40432893394E+02  0.00000000000E+00 0.  1.
         -2   -1    0    0    0  501 -0.00000000000E+00 -0.00000000000E+00 -0.15291249799E+04  0.15291249799E+04  0.00000000000E+00 0. -1.
         23    2    1    2    0    0 -0.21004162467E+03  0.11219829688E+03 -0.87370651967E+03  0.91007838966E+03  0.90408245743E+02 0.  0.
         13    1    3    3    0    0 -0.11008847172E+03  0.10866131822E+03 -0.53562712438E+03  0.55751517473E+03  0.00000000000E+00 0. -1.
        -13    1    3    3    0    0 -0.99953152946E+02  0.35369786540E+01 -0.33807939530E+03  0.35256321493E+03  0.00000000000E+00 0.  1.
         22    1    1    2    0    0  0.21004162467E+03 -0.11219829688E+03 -0.61498556683E+03  0.65947948363E+03  0.00000000000E+00 0.  1.
<mgrwt>
<rscale>  0 0.49730050E+03</rscale>
<asrwt>0</asrwt>
<pdfrwt beam="1">  1        2 0.62204451E-02 0.49730050E+03</pdfrwt>
<pdfrwt beam="2">  1       -2 0.23525000E+00 0.49730050E+03</pdfrwt>
<totfact> 0.10177690E+02</totfact>
</mgrwt>
</event>
<event>
 6    1  0.5040916E-004  0.4050693E+04  0.7818608E-02  0.7994398E-01
          2   -1    0    0  501    0  0.00000000000E+00  0.00000000000E+00  0.35588160809E+04  0.35588160809E+04  0.00000000000E+00 0.  1.
         -2   -1    0    0    0  501 -0.00000000000E+00 -0.00000000000E+00 -0.11526385712E+04  0.11526385712E+04  0.00000000000E+00 0. -1.
         23    2    1    2    0    0  0.80515156044E+02 -0.19583441574E+04  0.61482835081E+03  0.20561719292E+04  0.90744542427E+02 0.  0.
         13    1    3    3    0    0  0.57655144030E+02 -0.78671089261E+03  0.28581475254E+03  0.83900430091E+03  0.00000000000E+00 0.  1.
        -13    1    3    3    0    0  0.22860012014E+02 -0.11716332648E+04  0.32901359828E+03  0.12171676283E+04  0.00000000000E+00 0. -1.
         22    1    1    2    0    0 -0.80515156044E+02  0.19583441574E+04  0.17913491589E+04  0.26552827229E+04  0.00000000000E+00 0.  1.
<mgrwt>
<rscale>  0 0.40506931E+04</rscale>
<asrwt>0</asrwt>
<pdfrwt beam="1">  1        2 0.54751016E+00 0.40506931E+04</pdfrwt>
<pdfrwt beam="2">  1       -2 0.17732901E+00 0.40506931E+04</pdfrwt>
<totfact> 0.10963012E-01</totfact>
</mgrwt>
</event>
<event>
 6    1  0.5040916E-004  0.1852259E+04  0.7818608E-02  0.8678992E-01
          2   -1    0    0  501    0  0.00000000000E+00  0.00000000000E+00  0.15779152228E+04  0.15779152228E+04  0.00000000000E+00 0.  1.
         -2   -1    0    0    0  501 -0.00000000000E+00 -0.00000000000E+00 -0.54357512830E+03  0.54357512830E+03  0.00000000000E+00 0. -1.
         23    2    1    2    0    0 -0.43236995770E+03 -0.69380351104E+03  0.25287586788E+02  0.82283949132E+03  0.90101466028E+02 0.  0.
         11    1    3    3    0    0 -0.29309348816E+03 -0.43765040479E+03 -0.23336735901E+02  0.52724403539E+03  0.00000000000E+00 0. -1.
        -11    1    3    3    0    0 -0.13927646954E+03 -0.25615310625E+03  0.48624322689E+02  0.29559545593E+03  0.00000000000E+00 0.  1.
         22    1    1    2    0    0  0.43236995770E+03  0.69380351104E+03  0.10090525077E+04  0.12986508598E+04  0.00000000000E+00 0.  1.
<mgrwt>
<rscale>  0 0.18522586E+04</rscale>
<asrwt>0</asrwt>
<pdfrwt beam="1">  1        2 0.24275619E+00 0.18522586E+04</pdfrwt>
<pdfrwt beam="2">  1       -2 0.83626944E-01 0.18522586E+04</pdfrwt>
<totfact> 0.13488331E+01</totfact>
</mgrwt>
</event>
<event>
 6    1  0.5040916E-004  0.2921953E+04  0.7818608E-02  0.8266376E-01
          2   -1    0    0  501    0  0.00000000000E+00  0.00000000000E+00  0.14068326546E+04  0.14068326546E+04  0.00000000000E+00 0.  1.
         -2   -1    0    0    0  501 -0.00000000000E+00 -0.00000000000E+00 -0.15172041644E+04  0.15172041644E+04  0.00000000000E+00 0. -1.
         23    2    1    2    0    0  0.31681008247E+03 -0.33956367082E+03  0.13299257450E+04  0.14107198341E+04  0.75867306787E+02 0.  0.
         13    1    3    3    0    0  0.10447100717E+03 -0.63406526954E+02  0.34526629460E+03  0.36625591215E+03  0.00000000000E+00 0.  1.
        -13    1    3    3    0    0  0.21233907530E+03 -0.27615714386E+03  0.98465945038E+03  0.10444639219E+04  0.00000000000E+00 0. -1.
         22    1    1    2    0    0 -0.31681008247E+03  0.33956367082E+03 -0.14402972548E+04  0.15133169850E+04  0.00000000000E+00 0. -1.
<mgrwt>
<rscale>  0 0.29219530E+04</rscale>
<asrwt>0</asrwt>
<pdfrwt beam="1">  1        2 0.21643579E+00 0.29219530E+04</pdfrwt>
<pdfrwt beam="2">  1       -2 0.23341603E+00 0.29219530E+04</pdfrwt>
<totfact> 0.10056761E+00</totfact>
</mgrwt>
</event>
<event>
 6    1  0.5040916E-004  0.3684535E+04  0.7818608E-02  0.8071398E-01
         -2   -1    0    0    0  501 -0.00000000000E+00  0.00000000000E+00  0.15263607173E+04  0.15263607173E+04  0.00000000000E+00 0. -1.
          2   -1    0    0  501    0  0.00000000000E+00 -0.00000000000E+00 -0.22235572093E+04  0.22235572093E+04  0.00000000000E+00 0.  1.
         23    2    1    2    0    0  0.49328118270E+03  0.11276748347E+04 -0.17424274025E+04  0.21351471955E+04  0.88450187001E+02 0.  0.
         13    1    3    3    0    0  0.63394576929E+01  0.32277383742E+02 -0.28021400380E+02  0.43211307597E+02  0.00000000000E+00 0. -1.
        -13    1    3    3    0    0  0.48694172501E+03  0.10953974509E+04 -0.17144060021E+04  0.20919358879E+04  0.00000000000E+00 0.  1.
         22    1    1    2    0    0 -0.49328118270E+03 -0.11276748347E+04  0.10452309105E+04  0.16147707312E+04  0.00000000000E+00 0. -1.
<mgrwt>
<rscale>  0 0.36845355E+04</rscale>
<asrwt>0</asrwt>
<pdfrwt beam="1">  1        2 0.34208572E+00 0.36845355E+04</pdfrwt>
<pdfrwt beam="2">  1       -2 0.23482473E+00 0.36845355E+04</pdfrwt>
<totfact> 0.32338364E-01</totfact>
</mgrwt>
</event>
<event>
 6    1  0.5040916E-004  0.9699302E+03  0.7818608E-02  0.9342154E-01
         -2   -1    0    0    0  501 -0.00000000000E+00  0.00000000000E+00  0.23666941935E+03  0.23666941935E+03  0.00000000000E+00 0. -1.
          2   -1    0    0  501    0  0.00000000000E+00 -0.00000000000E+00 -0.99375381048E+03  0.99375381048E+03  0.00000000000E+00 0.  1.
         23    2    1    2    0    0 -0.13255373090E+03 -0.13168590507E+03 -0.94292484361E+03  0.96689269469E+03  0.10422357310E+03 0.  0.
         11    1    3    3    0    0 -0.76568502208E+02 -0.14825106215E+02 -0.24745285741E+03  0.25945218431E+03  0.00000000000E+00 0. -1.
        -11    1    3    3    0    0 -0.55985228694E+02 -0.11686079886E+03 -0.69547198620E+03  0.70744051038E+03  0.00000000000E+00 0.  1.
         22    1    1    2    0    0  0.13255373090E+03  0.13168590507E+03  0.18584045248E+03  0.26353053513E+03  0.00000000000E+00 0. -1.
<mgrwt>
<rscale>  0 0.96993018E+03</rscale>
<asrwt>0</asrwt>
<pdfrwt beam="1">  1        2 0.15288520E+00 0.96993018E+03</pdfrwt>
<pdfrwt beam="2">  1       -2 0.36410680E-01 0.96993018E+03</pdfrwt>
<totfact> 0.18027830E+02</totfact>
</mgrwt>
</event>
<event>
 6    1  0.5040916E-004  0.2219066E+04  0.7818608E-02  0.8510534E-01
          2   -1    0    0  501    0  0.00000000000E+00  0.00000000000E+00  0.21314211073E+04  0.21314211073E+04  0.00000000000E+00 0.  1.
         -2   -1    0    0    0  501 -0.00000000000E+00 -0.00000000000E+00 -0.57757871020E+03  0.57757871020E+03  0.00000000000E+00 0. -1.
         23    2    1    2    0    0  0.96702766860E+03 -0.52907263517E+03  0.90981001723E+03  0.14323487017E+04  0.93851855379E+02 0.  0.
         11    1    3    3    0    0  0.62868577382E+03 -0.34917555436E+03  0.65013858701E+03  0.96945838089E+03  0.00000000000E+00 0. -1.
        -11    1    3    3    0    0  0.33834189478E+03 -0.17989708081E+03  0.25967143022E+03  0.46289032083E+03  0.00000000000E+00 0.  1.
         22    1    1    2    0    0 -0.96702766860E+03  0.52907263517E+03  0.64403237989E+03  0.12766511158E+04  0.00000000000E+00 0.  1.
<mgrwt>
<rscale>  0 0.22190660E+04</rscale>
<asrwt>0</asrwt>
<pdfrwt beam="1">  1        2 0.32791093E+00 0.22190660E+04</pdfrwt>
<pdfrwt beam="2">  1       -2 0.88858264E-01 0.22190660E+04</pdfrwt>
<totfact> 0.56040290E+00</totfact>
</mgrwt>
</event>
<event>
 6    1  0.5040916E-004  0.2983623E+04  0.7818608E-02  0.8248423E-01
          2   -1    0    0  501    0  0.00000000000E+00  0.00000000000E+00  0.15869087890E+04  0.15869087890E+04  0.00000000000E+00 0.  1.
         -2   -1    0    0    0  501 -0.00000000000E+00 -0.00000000000E+00 -0.14024127681E+04  0.14024127681E+04  0.00000000000E+00 0. -1.
         23    2    1    2    0    0  0.12130294059E+04  0.82205227361E+03  0.36438278960E+03  0.15129850340E+04  0.95596106065E+02 0.  0.
         11    1    3    3    0    0  0.60638034723E+03  0.36119598828E+03  0.15030140172E+03  0.72163022305E+03  0.00000000000E+00 0.  1.
        -11    1    3    3    0    0  0.60664905868E+03  0.46085628533E+03  0.21408138788E+03  0.79135481091E+03  0.00000000000E+00 0. -1.
         22    1    1    2    0    0 -0.12130294059E+04 -0.82205227361E+03 -0.17988676865E+03  0.14763365232E+04  0.00000000000E+00 0. -1.
<mgrwt>
<rscale>  0 0.29836227E+04</rscale>
<asrwt>0</asrwt>
<pdfrwt beam="1">  1        2 0.24413981E+00 0.29836227E+04</pdfrwt>
<pdfrwt beam="2">  1       -2 0.21575581E+00 0.29836227E+04</pdfrwt>
<totfact> 0.10225855E+00</totfact>
</mgrwt>
</event>
<event>
 6    1  0.5514948E-004  0.2271949E+04  0.7818608E-02  0.8489064E-01
          2   -1    0    0  501    0  0.00000000000E+00  0.00000000000E+00  0.16858666402E+04  0.16858666402E+04  0.00000000000E+00 0.  1.
         -2   -1    0    0    0  501 -0.00000000000E+00 -0.00000000000E+00 -0.76544467728E+03  0.76544467728E+03  0.00000000000E+00 0. -1.
         23    2    1    2    0    0 -0.12398709917E+03  0.48296709455E+03 -0.63803351522E+03  0.81503093425E+03  0.92512929201E+02 0.  0.
         13    1    3    3    0    0 -0.37255354834E+01  0.15229630628E+03 -0.23448448903E+03  0.27962657262E+03  0.00000000000E+00 0. -1.
        -13    1    3    3    0    0 -0.12026156369E+03  0.33067078827E+03 -0.40354902619E+03  0.53540436163E+03  0.00000000000E+00 0.  1.
         22    1    1    2    0    0  0.12398709917E+03 -0.48296709455E+03  0.15584554782E+04  0.16362803833E+04  0.00000000000E+00 0.  1.
<mgrwt>
<rscale>  0 0.22719486E+04</rscale>
<asrwt>0</asrwt>
<pdfrwt beam="1">  1        2 0.25936410E+00 0.22719486E+04</pdfrwt>
<pdfrwt beam="2">  1       -2 0.11776072E+00 0.22719486E+04</pdfrwt>
<totfact> 0.50492030E+00</totfact>
</mgrwt>
</event>
<event>
 6    1  0.5040916E-004  0.4705911E+04  0.7818608E-02  0.7875547E-01
          2   -1    0    0  501    0  0.00000000000E+00  0.00000000000E+00  0.21189883322E+04  0.21189883322E+04  0.00000000000E+00 0.  1.
         -2   -1    0    0    0  501 -0.00000000000E+00 -0.00000000000E+00 -0.26127563128E+04  0.26127563128E+04  0.00000000000E+00 0. -1.
         23    2    1    2    0    0  0.53770172570E+03 -0.13929956448E+04 -0.20743426064E+04  0.25573996495E+04  0.88519524558E+02 0.  0.
         11    1    3    3    0    0  0.14467149999E+03 -0.42049938558E+03 -0.55557848082E+03  0.71162983674E+03  0.00000000000E+00 0. -1.
        -11    1    3    3    0    0  0.39303022571E+03 -0.97249625918E+03 -0.15187641256E+04  0.18457698127E+04  0.00000000000E+00 0.  1.
         22    1    1    2    0    0 -0.53770172570E+03  0.13929956448E+04  0.15805746258E+04  0.21743449956E+04  0.00000000000E+00 0.  1.
<mgrwt>
<rscale>  0 0.47059112E+04</rscale>
<asrwt>0</asrwt>
<pdfrwt beam="1">  1        2 0.32599820E+00 0.47059112E+04</pdfrwt>
<pdfrwt beam="2">  1       -2 0.40196251E+00 0.47059112E+04</pdfrwt>
<totfact> 0.30803982E-02</totfact>
</mgrwt>
</event>
<event>
 6    1  0.5040916E-004  0.9576281E+03  0.7818608E-02  0.9356279E-01
         -2   -1    0    0    0  501 -0.00000000000E+00  0.00000000000E+00  0.15411742004E+03  0.15411742004E+03  0.00000000000E+00 0. -1.
          2   -1    0    0  501    0  0.00000000000E+00 -0.00000000000E+00 -0.14875858766E+04  0.14875858766E+04  0.00000000000E+00 0.  1.
         23    2    1    2    0    0 -0.22676266725E+03  0.20534911581E+01 -0.13874083330E+04  0.14086045314E+04  0.88539930968E+02 0.  0.
         13    1    3    3    0    0 -0.69149386316E+02 -0.38566002470E+02 -0.38358665074E+03  0.39167294112E+03  0.00000000000E+00 0. -1.
        -13    1    3    3    0    0 -0.15761328093E+03  0.40619493628E+02 -0.10038216822E+04  0.10169315903E+04  0.00000000000E+00 0.  1.
         22    1    1    2    0    0  0.22676266725E+03 -0.20534911581E+01  0.53939876428E+02  0.23309876523E+03  0.00000000000E+00 0. -1.
<mgrwt>
<rscale>  0 0.95762811E+03</rscale>
<asrwt>0</asrwt>
<pdfrwt beam="1">  1        2 0.22885935E+00 0.95762811E+03</pdfrwt>
<pdfrwt beam="2">  1       -2 0.23710374E-01 0.95762811E+03</pdfrwt>
<totfact> 0.20361271E+02</totfact>
</mgrwt>
</event>
<event>
 6    1  0.5040916E-004  0.1440059E+04  0.7818608E-02  0.8925322E-01
          2   -1    0    0  501    0  0.00000000000E+00  0.00000000000E+00  0.14125889970E+04  0.14125889970E+04  0.00000000000E+00 0.  1.
         -2   -1    0    0    0  501 -0.00000000000E+00 -0.00000000000E+00 -0.36701557616E+03  0.36701557616E+03  0.00000000000E+00 0. -1.
         23    2    1    2    0    0  0.35788512007E+03  0.44655475332E+03 -0.89284487734E+01  0.57982663542E+03  0.92877893251E+02 0.  0.
         13    1    3    3    0    0  0.24562904020E+03  0.30453531545E+03 -0.49328443705E+02  0.39434588765E+03  0.00000000000E+00 0. -1.
        -13    1    3    3    0    0  0.11225607987E+03  0.14201943788E+03  0.40399994932E+02  0.18548074777E+03  0.00000000000E+00 0.  1.
         22    1    1    2    0    0 -0.35788512007E+03 -0.44655475332E+03  0.10545018696E+04  0.11997779378E+04  0.00000000000E+00 0.  1.
<mgrwt>
<rscale>  0 0.14400586E+04</rscale>
<asrwt>0</asrwt>
<pdfrwt beam="1">  1        2 0.21732138E+00 0.14400586E+04</pdfrwt>
<pdfrwt beam="2">  1       -2 0.56463935E-01 0.14400586E+04</pdfrwt>
<totfact> 0.40645418E+01</totfact>
</mgrwt>
</event>
<event>
 6    1  0.5040916E-004  0.2046368E+04  0.7818608E-02  0.8585244E-01
         -1   -1    0    0    0  501 -0.00000000000E+00  0.00000000000E+00  0.41523717024E+03  0.41523717024E+03  0.00000000000E+00 0.  1.
          1   -1    0    0  501    0  0.00000000000E+00 -0.00000000000E+00 -0.25212222752E+04  0.25212222752E+04  0.00000000000E+00 0. -1.
         23    2    1    2    0    0 -0.14707689727E+03 -0.48966007572E+03 -0.23235069576E+04  0.23808387476E+04  0.91158961740E+02 0.  0.
         11    1    3    3    0    0 -0.98489852606E+02 -0.17873725504E+03 -0.86047305954E+03  0.88434220956E+03  0.00000000000E+00 0. -1.
        -11    1    3    3    0    0 -0.48587044667E+02 -0.31092282069E+03 -0.14630338981E+04  0.14964965380E+04  0.00000000000E+00 0.  1.
         22    1    1    2    0    0  0.14707689727E+03  0.48966007572E+03  0.21752185270E+03  0.55562069784E+03  0.00000000000E+00 0.  1.
<mgrwt>
<rscale>  0 0.20463677E+04</rscale>
<asrwt>0</asrwt>
<pdfrwt beam="1">  1        1 0.38788036E+00 0.20463677E+04</pdfrwt>
<pdfrwt beam="2">  1       -1 0.63882640E-01 0.20463677E+04</pdfrwt>
<totfact> 0.30079309E+00</totfact>
</mgrwt>
</event>
<event>
 6    1  0.5040916E-004  0.8486583E+03  0.7818608E-02  0.9492139E-01
          2   -1    0    0  501    0  0.00000000000E+00  0.00000000000E+00  0.39541565363E+03  0.39541565363E+03  0.00000000000E+00 0.  1.
         -2   -1    0    0    0  501 -0.00000000000E+00 -0.00000000000E+00 -0.45535687559E+03  0.45535687559E+03  0.00000000000E+00 0. -1.
         23    2    1    2    0    0  0.10238715259E+03 -0.39091454218E+03 -0.14284030388E+03  0.43825638882E+03  0.91476781910E+02 0.  0.
         11    1    3    3    0    0  0.42554985749E+02 -0.31041308460E+03 -0.97099335008E+02  0.32801751594E+03  0.00000000000E+00 0. -1.
        -11    1    3    3    0    0  0.59832166844E+02 -0.80501457577E+02 -0.45740968873E+02  0.11023887288E+03  0.00000000000E+00 0.  1.
         22    1    1    2    0    0 -0.10238715259E+03  0.39091454218E+03  0.82899081922E+02  0.41251614039E+03  0.00000000000E+00 0.  1.
<mgrwt>
<rscale>  0 0.84865832E+03</rscale>
<asrwt>0</asrwt>
<pdfrwt beam="1">  1        2 0.60833177E-01 0.84865832E+03</pdfrwt>
<pdfrwt beam="2">  1       -2 0.70054904E-01 0.84865832E+03</pdfrwt>
<totfact> 0.15041544E+02</totfact>
</mgrwt>
</event>
<event>
 6    1  0.5040916E-004  0.3374667E+04  0.7818608E-02  0.8144152E-01
         -2   -1    0    0    0  501 -0.00000000000E+00  0.00000000000E+00  0.74911563732E+03  0.74911563732E+03  0.00000000000E+00 0. -1.
          2   -1    0    0  501    0  0.00000000000E+00 -0.00000000000E+00 -0.38006073834E+04  0.38006073834E+04  0.00000000000E+00 0.  1.
         23    2    1    2    0    0 -0.80311595485E+03  0.14571752408E+04 -0.18951778890E+04  0.25235402413E+04  0.90560474517E+02 0.  0.
         13    1    3    3    0    0 -0.42686778681E+03  0.74763456518E+03 -0.91475016754E+03  0.12561613827E+04  0.00000000000E+00 0. -1.
        -13    1    3    3    0    0 -0.37624816803E+03  0.70954067562E+03 -0.98042772141E+03  0.12673788586E+04  0.00000000000E+00 0.  1.
         22    1    1    2    0    0  0.80311595485E+03 -0.14571752408E+04 -0.11563138571E+04  0.20261827794E+04  0.00000000000E+00 0. -1.
<mgrwt>
<rscale>  0 0.33746670E+04</rscale>
<asrwt>0</asrwt>
<pdfrwt beam="1">  1        2 0.58470883E+00 0.33746670E+04</pdfrwt>
<pdfrwt beam="2">  1       -2 0.11524856E+00 0.33746670E+04</pdfrwt>
<totfact> 0.23840924E-01</totfact>
</mgrwt>
</event>
<event>
 6    1  0.5040916E-004  0.5294865E+04  0.7818608E-02  0.7784564E-01
          2   -1    0    0  501    0  0.00000000000E+00  0.00000000000E+00  0.49854338482E+04  0.49854338482E+04  0.00000000000E+00 0.  1.
         -2   -1    0    0    0  501 -0.00000000000E+00 -0.00000000000E+00 -0.14058755225E+04  0.14058755225E+04  0.00000000000E+00 0. -1.
         23    2    1    2    0    0  0.20812235252E+04 -0.14514105747E+04  0.88142895218E+03  0.26875293914E+04  0.88392386653E+02 0.  0.
         13    1    3    3    0    0  0.38261265536E+03 -0.23099459672E+03  0.13790589690E+03  0.46772746783E+03  0.00000000000E+00 0.  1.
        -13    1    3    3    0    0  0.16986108698E+04 -0.12204159780E+04  0.74352305527E+03  0.22198019236E+04  0.00000000000E+00 0. -1.
         22    1    1    2    0    0 -0.20812235252E+04  0.14514105747E+04  0.26981293735E+04  0.37037799792E+04  0.00000000000E+00 0.  1.
<mgrwt>
<rscale>  0 0.52948652E+04</rscale>
<asrwt>0</asrwt>
<pdfrwt beam="1">  1        2 0.76698982E+00 0.52948652E+04</pdfrwt>
<pdfrwt beam="2">  1       -2 0.21628854E+00 0.52948652E+04</pdfrwt>
<totfact> 0.26097927E-03</totfact>
</mgrwt>
</event>
<event>
 6    1  0.5040916E-004  0.2114533E+04  0.7818608E-02  0.8554868E-01
         -2   -1    0    0    0  501 -0.00000000000E+00  0.00000000000E+00  0.10144518912E+04  0.10144518912E+04  0.00000000000E+00 0. -1.
          2   -1    0    0  501    0  0.00000000000E+00 -0.00000000000E+00 -0.11018878591E+04  0.11018878591E+04  0.00000000000E+00 0.  1.
         23    2    1    2    0    0  0.87387403141E+02  0.99546466218E+03  0.29831817639E+03  0.10451755650E+04  0.69366961965E+02 0.  0.
         13    1    3    3    0    0  0.62296252833E+02  0.67602551742E+03  0.16875724840E+03  0.69955009270E+03  0.00000000000E+00 0.  1.
        -13    1    3    3    0    0  0.25091150308E+02  0.31943914476E+03  0.12956092800E+03  0.34562547229E+03  0.00000000000E+00 0. -1.
         22    1    1    2    0    0 -0.87387403141E+02 -0.99546466218E+03 -0.38575414430E+03  0.10711641852E+04  0.00000000000E+00 0.  1.
<mgrwt>
<rscale>  0 0.21145328E+04</rscale>
<asrwt>0</asrwt>
<pdfrwt beam="1">  1        2 0.16952121E+00 0.21145328E+04</pdfrwt>
<pdfrwt beam="2">  1       -2 0.15606952E+00 0.21145328E+04</pdfrwt>
<totfact> 0.53893462E+00</totfact>
</mgrwt>
</event>
<event>
 6    1  0.5040916E-004  0.1486337E+04  0.7818608E-02  0.8893590E-01
         -2   -1    0    0    0  501 -0.00000000000E+00  0.00000000000E+00  0.40425699323E+03  0.40425699323E+03  0.00000000000E+00 0. -1.
          2   -1    0    0  501    0  0.00000000000E+00 -0.00000000000E+00 -0.13662091841E+04  0.13662091841E+04  0.00000000000E+00 0.  1.
         23    2    1    2    0    0 -0.19763779950E+03  0.57168948904E+03  0.25672197631E+02  0.61232477645E+03  0.91613309359E+02 0.  0.
         11    1    3    3    0    0 -0.89394303764E+02  0.38392729558E+03  0.10201121284E+01  0.39419861805E+03  0.00000000000E+00 0. -1.
        -11    1    3    3    0    0 -0.10824349573E+03  0.18776219346E+03  0.24652085502E+02  0.21812615840E+03  0.00000000000E+00 0.  1.
         22    1    1    2    0    0  0.19763779950E+03 -0.57168948904E+03 -0.98762438853E+03  0.11581414009E+04  0.00000000000E+00 0.  1.
<mgrwt>
<rscale>  0 0.14863373E+04</rscale>
<asrwt>0</asrwt>
<pdfrwt beam="1">  1        2 0.21018603E+00 0.14863373E+04</pdfrwt>
<pdfrwt beam="2">  1       -2 0.62193383E-01 0.14863373E+04</pdfrwt>
<totfact> 0.35118571E+01</totfact>
</mgrwt>
</event>
<event>
 6    1  0.5040916E-004  0.9956327E+03  0.7818608E-02  0.9313348E-01
         -4   -1    0    0    0  501 -0.00000000000E+00  0.00000000000E+00  0.87594460575E+03  0.87594460575E+03  0.00000000000E+00 0. -1.
          4   -1    0    0  501    0  0.00000000000E+00 -0.00000000000E+00 -0.28291872453E+03  0.28291872453E+03  0.00000000000E+00 0.  1.
         23    2    1    2    0    0  0.14913308022E+03  0.25095383426E+03  0.76212143345E+03  0.82150327287E+03  0.93915097165E+02 0.  0.
         13    1    3    3    0    0  0.10686002275E+03  0.10338472270E+03  0.44500246072E+03  0.46918509716E+03  0.00000000000E+00 0.  1.
        -13    1    3    3    0    0  0.42273057465E+02  0.14756911155E+03  0.31711897273E+03  0.35231817571E+03  0.00000000000E+00 0. -1.
         22    1    1    2    0    0 -0.14913308022E+03 -0.25095383426E+03 -0.16909555224E+03  0.33736005740E+03  0.00000000000E+00 0.  1.
<mgrwt>
<rscale>  0 0.99563272E+03</rscale>
<asrwt>0</asrwt>
<pdfrwt beam="1">  1        4 0.43525958E-01 0.99563272E+03</pdfrwt>
<pdfrwt beam="2">  1       -4 0.13476071E+00 0.99563272E+03</pdfrwt>
<totfact> 0.40239088E+00</totfact>
</mgrwt>
</event>
<event>
 6    1  0.5040916E-004  0.3566215E+04  0.7818608E-02  0.8098275E-01
         -2   -1    0    0    0  501 -0.00000000000E+00  0.00000000000E+00  0.18978638596E+04  0.18978638596E+04  0.00000000000E+00 0. -1.
          2   -1    0    0  501    0  0.00000000000E+00 -0.00000000000E+00 -0.16752899893E+04  0.16752899893E+04  0.00000000000E+00 0.  1.
         23    2    1    2    0    0  0.12575658233E+04 -0.11757200668E+04  0.57255297034E+03  0.18163741684E+04  0.87228094862E+02 0.  0.
         11    1    3    3    0    0  0.91002707899E+03 -0.81940141932E+03  0.37293909276E+03  0.12800982530E+04  0.00000000000E+00 0.  1.
        -11    1    3    3    0    0  0.34753874428E+03 -0.35631864744E+03  0.19961387758E+03  0.53627591537E+03  0.00000000000E+00 0. -1.
         22    1    1    2    0    0 -0.12575658233E+04  0.11757200668E+04 -0.34997910004E+03  0.17567796805E+04  0.00000000000E+00 0.  1.
<mgrwt>
<rscale>  0 0.35662150E+04</rscale>
<asrwt>0</asrwt>
<pdfrwt beam="1">  1        2 0.25773692E+00 0.35662150E+04</pdfrwt>
<pdfrwt beam="2">  1       -2 0.29197906E+00 0.35662150E+04</pdfrwt>
<totfact> 0.29438448E-01</totfact>
</mgrwt>
</event>
<event>
 6    1  0.5040916E-004  0.2176202E+04  0.7818608E-02  0.8528399E-01
         -1   -1    0    0    0  501 -0.00000000000E+00  0.00000000000E+00  0.13018093695E+04  0.13018093695E+04  0.00000000000E+00 0.  1.
          1   -1    0    0  501    0  0.00000000000E+00 -0.00000000000E+00 -0.90947519215E+03  0.90947519215E+03  0.00000000000E+00 0. -1.
         23    2    1    2    0    0 -0.69051628306E+03 -0.40630828099E+03  0.94173234039E+03  0.12398230349E+04  0.91663518669E+02 0.  0.
         11    1    3    3    0    0 -0.34954753596E+03 -0.16681841826E+03  0.40574306533E+03  0.56092717854E+03  0.00000000000E+00 0.  1.
        -11    1    3    3    0    0 -0.34096874710E+03 -0.23948986273E+03  0.53598927506E+03  0.67889585639E+03  0.00000000000E+00 0. -1.
         22    1    1    2    0    0  0.69051628306E+03  0.40630828099E+03 -0.54939816301E+03  0.97146152672E+03  0.00000000000E+00 0. -1.
<mgrwt>
<rscale>  0 0.21762016E+04</rscale>
<asrwt>0</asrwt>
<pdfrwt beam="1">  1        1 0.13991926E+00 0.21762016E+04</pdfrwt>
<pdfrwt beam="2">  1       -1 0.20027837E+00 0.21762016E+04</pdfrwt>
<totfact> 0.24467587E+00</totfact>
</mgrwt>
</event>
<event>
 6    1  0.5040916E-004  0.1397500E+04  0.7818608E-02  0.8955630E-01
         -2   -1    0    0    0  501 -0.00000000000E+00  0.00000000000E+00  0.45128358355E+03  0.45128358355E+03  0.00000000000E+00 0. -1.
          2   -1    0    0  501    0  0.00000000000E+00 -0.00000000000E+00 -0.10819179161E+04  0.10819179161E+04  0.00000000000E+00 0.  1.
         23    2    1    2    0    0  0.23507734320E+03 -0.62249148268E+03 -0.53948938416E+03  0.86158821442E+03  0.92349620008E+02 0.  0.
         11    1    3    3    0    0  0.18073962703E+03 -0.36976279594E+03 -0.36089097473E+03  0.54738801017E+03  0.00000000000E+00 0. -1.
        -11    1    3    3    0    0  0.54337716175E+02 -0.25272868674E+03 -0.17859840943E+03  0.31420020425E+03  0.00000000000E+00 0.  1.
         22    1    1    2    0    0 -0.23507734320E+03  0.62249148268E+03 -0.91144948401E+02  0.67161328525E+03  0.00000000000E+00 0.  1.
<mgrwt>
<rscale>  0 0.13975003E+04</rscale>
<asrwt>0</asrwt>
<pdfrwt beam="1">  1        2 0.16644891E+00 0.13975003E+04</pdfrwt>
<pdfrwt beam="2">  1       -2 0.69428245E-01 0.13975003E+04</pdfrwt>
<totfact> 0.41194123E+01</totfact>
</mgrwt>
</event>
<event>
 6    1  0.5040916E-004  0.4432857E+04  0.7818608E-02  0.7922498E-01
          1   -1    0    0  501    0  0.00000000000E+00  0.00000000000E+00  0.23355312107E+04  0.23355312107E+04  0.00000000000E+00 0.  1.
         -1   -1    0    0    0  501 -0.00000000000E+00 -0.00000000000E+00 -0.21033994281E+04  0.21033994281E+04  0.00000000000E+00 0. -1.
         23    2    1    2    0    0  0.17916023151E+04  0.12888391116E+04  0.31049860250E+03  0.22305179805E+04  0.88633898548E+02 0.  0.
         11    1    3    3    0    0  0.65486184887E+03  0.42342440917E+03  0.12704969631E+03  0.79011005355E+03  0.00000000000E+00 0. -1.
        -11    1    3    3    0    0  0.11367404662E+04  0.86541470245E+03  0.18344890619E+03  0.14404079269E+04  0.00000000000E+00 0.  1.
         22    1    1    2    0    0 -0.17916023151E+04 -0.12888391116E+04 -0.78366819874E+02  0.22084126584E+04  0.00000000000E+00 0. -1.
<mgrwt>
<rscale>  0 0.44328569E+04</rscale>
<asrwt>0</asrwt>
<pdfrwt beam="1">  1        1 0.35931249E+00 0.44328569E+04</pdfrwt>
<pdfrwt beam="2">  1       -1 0.32359991E+00 0.44328569E+04</pdfrwt>
<totfact> 0.30822610E-02</totfact>
</mgrwt>
</event>
<event>
 6    1  0.5040916E-004  0.2465047E+04  0.7818608E-02  0.8415544E-01
          2   -1    0    0  501    0  0.00000000000E+00  0.00000000000E+00  0.10529079571E+04  0.10529079571E+04  0.00000000000E+00 0.  1.
         -2   -1    0    0    0  501 -0.00000000000E+00 -0.00000000000E+00 -0.14427802170E+04  0.14427802170E+04  0.00000000000E+00 0. -1.
         23    2    1    2    0    0  0.79618690465E+03 -0.69415309527E+03  0.44435985221E+03  0.11496921401E+04  0.92597148365E+02 0.  0.
         11    1    3    3    0    0  0.14980064947E+03 -0.85889913249E+02  0.66870390574E+02  0.18517278665E+03  0.00000000000E+00 0. -1.
        -11    1    3    3    0    0  0.64638625517E+03 -0.60826318202E+03  0.37748946163E+03  0.96451935342E+03  0.00000000000E+00 0.  1.
         22    1    1    2    0    0 -0.79618690465E+03  0.69415309527E+03 -0.83423211211E+03  0.13459960340E+04  0.00000000000E+00 0. -1.
<mgrwt>
<rscale>  0 0.24650475E+04</rscale>
<asrwt>0</asrwt>
<pdfrwt beam="1">  1        2 0.16198584E+00 0.24650475E+04</pdfrwt>
<pdfrwt beam="2">  1       -2 0.22196619E+00 0.24650475E+04</pdfrwt>
<totfact> 0.20021471E+00</totfact>
</mgrwt>
</event>
<event>
 6    1  0.5040916E-004  0.2272870E+04  0.7818608E-02  0.8488696E-01
         -2   -1    0    0    0  501 -0.00000000000E+00  0.00000000000E+00  0.48693868022E+03  0.48693868022E+03  0.00000000000E+00 0. -1.
          2   -1    0    0  501    0  0.00000000000E+00 -0.00000000000E+00 -0.26522527757E+04  0.26522527757E+04  0.00000000000E+00 0.  1.
         23    2    1    2    0    0  0.52079094651E+03 -0.10060517314E+04 -0.11723379559E+04  0.16327503154E+04  0.90188764957E+02 0.  0.
         11    1    3    3    0    0  0.26297322818E+03 -0.60474319340E+03 -0.68277442354E+03  0.94923662074E+03  0.00000000000E+00 0. -1.
        -11    1    3    3    0    0  0.25781771832E+03 -0.40130853796E+03 -0.48956353239E+03  0.68351369465E+03  0.00000000000E+00 0.  1.
         22    1    1    2    0    0 -0.52079094651E+03  0.10060517314E+04 -0.99297613953E+03  0.15064411405E+04  0.00000000000E+00 0.  1.
<mgrwt>
<rscale>  0 0.22728700E+04</rscale>
<asrwt>0</asrwt>
<pdfrwt beam="1">  1        2 0.40803889E+00 0.22728700E+04</pdfrwt>
<pdfrwt beam="2">  1       -2 0.74913643E-01 0.22728700E+04</pdfrwt>
<totfact> 0.41241892E+00</totfact>
</mgrwt>
</event>
<event>
 6    1  0.5040916E-004  0.2335066E+04  0.7818608E-02  0.8464222E-01
         -2   -1    0    0    0  501 -0.00000000000E+00  0.00000000000E+00  0.14555988821E+04  0.14555988821E+04  0.00000000000E+00 0. -1.
          2   -1    0    0  501    0  0.00000000000E+00 -0.00000000000E+00 -0.93647566400E+03  0.93647566400E+03  0.00000000000E+00 0.  1.
         23    2    1    2    0    0  0.13323393176E+03 -0.11531882989E+04  0.37039214381E+03  0.12217261084E+04  0.88486216493E+02 0.  0.
         11    1    3    3    0    0  0.67995446530E+02 -0.60706920807E+03  0.14853891031E+03  0.62866542136E+03  0.00000000000E+00 0. -1.
        -11    1    3    3    0    0  0.65238485232E+02 -0.54611909079E+03  0.22185323350E+03  0.59306068702E+03  0.00000000000E+00 0.  1.
         22    1    1    2    0    0 -0.13323393176E+03  0.11531882989E+04  0.14873107428E+03  0.11703484377E+04  0.00000000000E+00 0.  1.
<mgrwt>
<rscale>  0 0.23350657E+04</rscale>
<asrwt>0</asrwt>
<pdfrwt beam="1">  1        2 0.14407318E+00 0.23350657E+04</pdfrwt>
<pdfrwt beam="2">  1       -2 0.22393829E+00 0.23350657E+04</pdfrwt>
<totfact> 0.23378058E+00</totfact>
</mgrwt>
</event>
<event>
 6    1  0.5040916E-004  0.1827168E+04  0.7818608E-02  0.8691984E-01
         -2   -1    0    0    0  501 -0.00000000000E+00  0.00000000000E+00  0.55044624210E+03  0.55044624210E+03  0.00000000000E+00 0. -1.
          2   -1    0    0  501    0  0.00000000000E+00 -0.00000000000E+00 -0.15162900535E+04  0.15162900535E+04  0.00000000000E+00 0.  1.
         23    2    1    2    0    0 -0.21829599120E+03 -0.76246525950E+03  0.23679011110E+02  0.79860308966E+03  0.90552678198E+02 0.  0.
         11    1    3    3    0    0 -0.83011070992E+02 -0.38798359175E+03 -0.24552718512E+02  0.39752351045E+03  0.00000000000E+00 0. -1.
        -11    1    3    3    0    0 -0.13528492021E+03 -0.37448166775E+03  0.48231729622E+02  0.40107957921E+03  0.00000000000E+00 0.  1.
         22    1    1    2    0    0  0.21829599120E+03  0.76246525950E+03 -0.98952282248E+03  0.12681332059E+04  0.00000000000E+00 0. -1.
<mgrwt>
<rscale>  0 0.18271685E+04</rscale>
<asrwt>0</asrwt>
<pdfrwt beam="1">  1        2 0.23327539E+00 0.18271685E+04</pdfrwt>
<pdfrwt beam="2">  1       -2 0.84684040E-01 0.18271685E+04</pdfrwt>
<totfact> 0.14226508E+01</totfact>
</mgrwt>
</event>
<event>
 6    1  0.5040916E-004  0.1527162E+04  0.7818608E-02  0.8866589E-01
         -2   -1    0    0    0  501 -0.00000000000E+00  0.00000000000E+00  0.57826698472E+03  0.57826698472E+03  0.00000000000E+00 0. -1.
          2   -1    0    0  501    0  0.00000000000E+00 -0.00000000000E+00 -0.10082811978E+04  0.10082811978E+04  0.00000000000E+00 0.  1.
         23    2    1    2    0    0 -0.25456225328E+03 -0.51204375102E+03  0.30575467063E+03  0.65469701737E+03  0.90285780670E+02 0.  0.
         13    1    3    3    0    0 -0.17598493511E+03 -0.28658946417E+03  0.14131756101E+03  0.36479428643E+03  0.00000000000E+00 0. -1.
        -13    1    3    3    0    0 -0.78577318169E+02 -0.22545428684E+03  0.16443710963E+03  0.28990273094E+03  0.00000000000E+00 0.  1.
         22    1    1    2    0    0  0.25456225328E+03  0.51204375102E+03 -0.73576888376E+03  0.93185116519E+03  0.00000000000E+00 0.  1.
<mgrwt>
<rscale>  0 0.15271617E+04</rscale>
<asrwt>0</asrwt>
<pdfrwt beam="1">  1        2 0.15512018E+00 0.15271617E+04</pdfrwt>
<pdfrwt beam="2">  1       -2 0.88964152E-01 0.15271617E+04</pdfrwt>
<totfact> 0.26046882E+01</totfact>
</mgrwt>
</event>
<event>
 6    1  0.5040916E-004  0.3053917E+04  0.7818608E-02  0.8228500E-01
         -2   -1    0    0    0  501 -0.00000000000E+00  0.00000000000E+00  0.86118714909E+03  0.86118714909E+03  0.00000000000E+00 0. -1.
          2   -1    0    0  501    0  0.00000000000E+00 -0.00000000000E+00 -0.27074275499E+04  0.27074275499E+04  0.00000000000E+00 0.  1.
         23    2    1    2    0    0 -0.12253049475E+04  0.76486651836E+03 -0.14977016977E+04  0.20827236422E+04  0.90743534387E+02 0.  0.
         11    1    3    3    0    0 -0.64293322358E+03  0.41910002497E+03 -0.85688461810E+03  0.11503300438E+04  0.00000000000E+00 0.  1.
        -11    1    3    3    0    0 -0.58237172388E+03  0.34576649339E+03 -0.64081707964E+03  0.93239359837E+03  0.00000000000E+00 0. -1.
         22    1    1    2    0    0  0.12253049475E+04 -0.76486651836E+03 -0.34853870305E+03  0.14858910568E+04  0.00000000000E+00 0.  1.
<mgrwt>
<rscale>  0 0.30539167E+04</rscale>
<asrwt>0</asrwt>
<pdfrwt beam="1">  1        2 0.41652732E+00 0.30539167E+04</pdfrwt>
<pdfrwt beam="2">  1       -2 0.13249033E+00 0.30539167E+04</pdfrwt>
<totfact> 0.92676651E-01</totfact>
</mgrwt>
</event>
<event>
 6    1  0.5040916E-004  0.2487652E+04  0.7818608E-02  0.8407398E-01
         -2   -1    0    0    0  501 -0.00000000000E+00  0.00000000000E+00  0.56030768550E+03  0.56030768550E+03  0.00000000000E+00 0. -1.
          2   -1    0    0  501    0  0.00000000000E+00 -0.00000000000E+00 -0.27611667759E+04  0.27611667759E+04  0.00000000000E+00 0.  1.
         23    2    1    2    0    0 -0.64703934377E+03 -0.69222472791E+03 -0.21741507947E+04  0.23735565750E+04  0.94890200303E+02 0.  0.
         11    1    3    3    0    0 -0.28835485579E+03 -0.33640284009E+03 -0.11244303887E+04  0.12085773011E+04  0.00000000000E+00 0. -1.
        -11    1    3    3    0    0 -0.35868448797E+03 -0.35582188782E+03 -0.10497204060E+04  0.11649792739E+04  0.00000000000E+00 0.  1.
         22    1    1    2    0    0  0.64703934377E+03  0.69222472791E+03 -0.26708295672E+02  0.94791788641E+03  0.00000000000E+00 0. -1.
<mgrwt>
<rscale>  0 0.24876519E+04</rscale>
<asrwt>0</asrwt>
<pdfrwt beam="1">  1        2 0.42479489E+00 0.24876519E+04</pdfrwt>
<pdfrwt beam="2">  1       -2 0.86201182E-01 0.24876519E+04</pdfrwt>
<totfact> 0.25425623E+00</totfact>
</mgrwt>
</event>
<event>
 6    1  0.5040916E-004  0.2540895E+04  0.7818608E-02  0.8388560E-01
          1   -1    0    0  501    0  0.00000000000E+00  0.00000000000E+00  0.16695834399E+04  0.16695834399E+04  0.00000000000E+00 0.  1.
         -1   -1    0    0    0  501 -0.00000000000E+00 -0.00000000000E+00 -0.96673019853E+03  0.96673019853E+03  0.00000000000E+00 0. -1.
         23    2    1    2    0    0  0.44851508190E+03 -0.24225104000E+03  0.15573124136E+04  0.16413504119E+04  0.94646056965E+02 0.  0.
         13    1    3    3    0    0  0.35431890840E+03 -0.14967176378E+03  0.10976886507E+04  0.11631267771E+04  0.00000000000E+00 0. -1.
        -13    1    3    3    0    0  0.94196173504E+02 -0.92579276217E+02  0.45962376282E+03  0.47822363475E+03  0.00000000000E+00 0.  1.
         22    1    1    2    0    0 -0.44851508190E+03  0.24225104000E+03 -0.85445917223E+03  0.99496322650E+03  0.00000000000E+00 0. -1.
<mgrwt>
<rscale>  0 0.25408949E+04</rscale>
<asrwt>0</asrwt>
<pdfrwt beam="1">  1        1 0.25685899E+00 0.25408949E+04</pdfrwt>
<pdfrwt beam="2">  1       -1 0.14872772E+00 0.25408949E+04</pdfrwt>
<totfact> 0.15800910E+00</totfact>
</mgrwt>
</event>
<event>
 6    1  0.5040916E-004  0.2900059E+04  0.7818608E-02  0.8272860E-01
         -2   -1    0    0    0  501 -0.00000000000E+00  0.00000000000E+00  0.93465087194E+03  0.93465087194E+03  0.00000000000E+00 0. -1.
          2   -1    0    0  501    0  0.00000000000E+00 -0.00000000000E+00 -0.22495953285E+04  0.22495953285E+04  0.00000000000E+00 0.  1.
         23    2    1    2    0    0  0.10703378061E+04 -0.92606050193E+03 -0.99699036527E+03  0.17336236180E+04  0.90829445454E+02 0.  0.
         11    1    3    3    0    0  0.62312781622E+03 -0.52830138910E+03 -0.62904795898E+03  0.10310635130E+04  0.00000000000E+00 0. -1.
        -11    1    3    3    0    0  0.44720998989E+03 -0.39775911282E+03 -0.36794240630E+03  0.70256010507E+03  0.00000000000E+00 0.  1.
         22    1    1    2    0    0 -0.10703378061E+04  0.92606050193E+03 -0.31795409128E+03  0.14506225824E+04  0.00000000000E+00 0.  1.
<mgrwt>
<rscale>  0 0.29000595E+04</rscale>
<asrwt>0</asrwt>
<pdfrwt beam="1">  1        2 0.34609159E+00 0.29000595E+04</pdfrwt>
<pdfrwt beam="2">  1       -2 0.14379244E+00 0.29000595E+04</pdfrwt>
<totfact> 0.13995467E+00</totfact>
</mgrwt>
</event>
<event>
 6    1  0.5040916E-004  0.5008636E+04  0.7818608E-02  0.7827176E-01
         -2   -1    0    0    0  501 -0.00000000000E+00  0.00000000000E+00  0.39664491396E+04  0.39664491396E+04  0.00000000000E+00 0. -1.
          2   -1    0    0  501    0  0.00000000000E+00 -0.00000000000E+00 -0.15811642417E+04  0.15811642417E+04  0.00000000000E+00 0.  1.
         23    2    1    2    0    0  0.17967411662E+04  0.83460558580E+01  0.31241441487E+04  0.36048675237E+04  0.80279052192E+02 0.  0.
         13    1    3    3    0    0  0.10743256999E+04  0.40461561478E+01  0.19462773643E+04  0.22231031599E+04  0.00000000000E+00 0. -1.
        -13    1    3    3    0    0  0.72241546627E+03  0.42998997102E+01  0.11778667844E+04  0.13817643638E+04  0.00000000000E+00 0.  1.
         22    1    1    2    0    0 -0.17967411662E+04 -0.83460558580E+01 -0.73885925073E+03  0.19427458576E+04  0.00000000000E+00 0. -1.
<mgrwt>
<rscale>  0 0.50086356E+04</rscale>
<asrwt>0</asrwt>
<pdfrwt beam="1">  1        2 0.24325604E+00 0.50086356E+04</pdfrwt>
<pdfrwt beam="2">  1       -2 0.61022294E+00 0.50086356E+04</pdfrwt>
<totfact> 0.38955191E-03</totfact>
</mgrwt>
</event>
<event>
 6    1  0.5040916E-004  0.1638268E+04  0.7818608E-02  0.8797378E-01
          2   -1    0    0  501    0  0.00000000000E+00  0.00000000000E+00  0.12369755941E+04  0.12369755941E+04  0.00000000000E+00 0.  1.
         -2   -1    0    0    0  501 -0.00000000000E+00 -0.00000000000E+00 -0.54243618448E+03  0.54243618448E+03  0.00000000000E+00 0. -1.
         23    2    1    2    0    0 -0.70316108160E+03 -0.39361010352E+03  0.20264917754E+03  0.83531410316E+03  0.85548474583E+02 0.  0.
         11    1    3    3    0    0 -0.36902980341E+03 -0.23249249411E+03  0.72191391033E+02  0.44209428017E+03  0.00000000000E+00 0.  1.
        -11    1    3    3    0    0 -0.33413127820E+03 -0.16111760942E+03  0.13045778650E+03  0.39321982299E+03  0.00000000000E+00 0. -1.
         22    1    1    2    0    0  0.70316108160E+03  0.39361010352E+03  0.49189023206E+03  0.94409767539E+03  0.00000000000E+00 0.  1.
<mgrwt>
<rscale>  0 0.16382678E+04</rscale>
<asrwt>0</asrwt>
<pdfrwt beam="1">  1        2 0.19030394E+00 0.16382678E+04</pdfrwt>
<pdfrwt beam="2">  1       -2 0.83451721E-01 0.16382678E+04</pdfrwt>
<totfact> 0.21630175E+01</totfact>
</mgrwt>
</event>
<event>
 6    1  0.5040916E-004  0.2344113E+04  0.7818608E-02  0.8460728E-01
         -2   -1    0    0    0  501 -0.00000000000E+00  0.00000000000E+00  0.76802465371E+03  0.76802465371E+03  0.00000000000E+00 0. -1.
          2   -1    0    0  501    0  0.00000000000E+00 -0.00000000000E+00 -0.17886363645E+04  0.17886363645E+04  0.00000000000E+00 0.  1.
         23    2    1    2    0    0 -0.26977297199E+03  0.67101014564E+03 -0.15144980245E+04  0.16809009124E+04  0.93228424576E+02 0.  0.
         13    1    3    3    0    0 -0.23762270347E+03  0.49464727099E+03 -0.10994625123E+04  0.12288036002E+04  0.00000000000E+00 0.  1.
        -13    1    3    3    0    0 -0.32150268523E+02  0.17636287465E+03 -0.41503551224E+03  0.45209731225E+03  0.00000000000E+00 0. -1.
         22    1    1    2    0    0  0.26977297199E+03 -0.67101014564E+03  0.49388631374E+03  0.87576010577E+03  0.00000000000E+00 0. -1.
<mgrwt>
<rscale>  0 0.23441133E+04</rscale>
<asrwt>0</asrwt>
<pdfrwt beam="1">  1        2 0.27517482E+00 0.23441133E+04</pdfrwt>
<pdfrwt beam="2">  1       -2 0.11815764E+00 0.23441133E+04</pdfrwt>
<totfact> 0.43643342E+00</totfact>
</mgrwt>
</event>
<event>
 6    1  0.5040916E-004  0.2230106E+04  0.7818608E-02  0.8506001E-01
          2   -1    0    0  501    0  0.00000000000E+00  0.00000000000E+00  0.27040492966E+04  0.27040492966E+04  0.00000000000E+00 0.  1.
         -2   -1    0    0    0  501 -0.00000000000E+00 -0.00000000000E+00 -0.45980787937E+03  0.45980787937E+03  0.00000000000E+00 0. -1.
         23    2    1    2    0    0 -0.10220358703E+04  0.43139229464E+03  0.99283192273E+03  0.14915287528E+04  0.91028355429E+02 0.  0.
         11    1    3    3    0    0 -0.42339569024E+03  0.18475526900E+03  0.47362748852E+03  0.66160518273E+03  0.00000000000E+00 0.  1.
        -11    1    3    3    0    0 -0.59864018008E+03  0.24663702563E+03  0.51920443421E+03  0.82992357005E+03  0.00000000000E+00 0. -1.
         22    1    1    2    0    0  0.10220358703E+04 -0.43139229464E+03  0.12514094945E+04  0.16723284232E+04  0.00000000000E+00 0.  1.
<mgrwt>
<rscale>  0 0.22301060E+04</rscale>
<asrwt>0</asrwt>
<pdfrwt beam="1">  1        2 0.41600757E+00 0.22301060E+04</pdfrwt>
<pdfrwt beam="2">  1       -2 0.70739675E-01 0.22301060E+04</pdfrwt>
<totfact> 0.43757026E+00</totfact>
</mgrwt>
</event>
<event>
 6    1  0.5040916E-004  0.1562490E+04  0.7818608E-02  0.8843929E-01
          2   -1    0    0  501    0  0.00000000000E+00  0.00000000000E+00  0.91425848976E+03  0.91425848976E+03  0.00000000000E+00 0.  1.
         -2   -1    0    0    0  501 -0.00000000000E+00 -0.00000000000E+00 -0.66758305956E+03  0.66758305956E+03  0.00000000000E+00 0. -1.
         23    2    1    2    0    0 -0.52367826335E+03  0.37810341544E+03 -0.31550535354E+03  0.72554233183E+03  0.98320551756E+02 0.  0.
         13    1    3    3    0    0 -0.12436716246E+03  0.51646216424E+02 -0.38353690567E+02  0.14001974271E+03  0.00000000000E+00 0. -1.
        -13    1    3    3    0    0 -0.39931110089E+03  0.32645719901E+03 -0.27715166297E+03  0.58552258912E+03  0.00000000000E+00 0.  1.
         22    1    1    2    0    0  0.52367826335E+03 -0.37810341544E+03  0.56218078374E+03  0.85629921749E+03  0.00000000000E+00 0.  1.
<mgrwt>
<rscale>  0 0.15624897E+04</rscale>
<asrwt>0</asrwt>
<pdfrwt beam="1">  1        2 0.14065515E+00 0.15624897E+04</pdfrwt>
<pdfrwt beam="2">  1       -2 0.10270509E+00 0.15624897E+04</pdfrwt>
<totfact> 0.21380199E+01</totfact>
</mgrwt>
</event>
<event>
 6    1  0.5040916E-004  0.5816383E+04  0.7818608E-02  0.7713594E-01
          2   -1    0    0  501    0  0.00000000000E+00  0.00000000000E+00  0.43395757524E+04  0.43395757524E+04  0.00000000000E+00 0.  1.
         -2   -1    0    0    0  501 -0.00000000000E+00 -0.00000000000E+00 -0.19489411374E+04  0.19489411374E+04  0.00000000000E+00 0. -1.
         23    2    1    2    0    0 -0.19204849588E+04 -0.21666686212E+04  0.14830644752E+04  0.32543120600E+04  0.91385748858E+02 0.  0.
         11    1    3    3    0    0 -0.16466897366E+04 -0.18952180673E+04  0.12645250120E+04  0.28111318214E+04  0.00000000000E+00 0. -1.
        -11    1    3    3    0    0 -0.27379522215E+03 -0.27145055394E+03  0.21853946317E+03  0.44318023858E+03  0.00000000000E+00 0.  1.
         22    1    1    2    0    0  0.19204849588E+04  0.21666686212E+04  0.90757013977E+03  0.30342048299E+04  0.00000000000E+00 0. -1.
<mgrwt>
<rscale>  0 0.58163830E+04</rscale>
<asrwt>0</asrwt>
<pdfrwt beam="1">  1        2 0.66762704E+00 0.58163830E+04</pdfrwt>
<pdfrwt beam="2">  1       -2 0.29983710E+00 0.58163830E+04</pdfrwt>
<totfact> 0.37629614E-03</totfact>
</mgrwt>
</event>
<event>
 6    1  0.5040916E-004  0.4471364E+04  0.7818608E-02  0.7915669E-01
         -2   -1    0    0    0  501 -0.00000000000E+00  0.00000000000E+00  0.17453426695E+04  0.17453426695E+04  0.00000000000E+00 0. -1.
          2   -1    0    0  501    0  0.00000000000E+00 -0.00000000000E+00 -0.28637775911E+04  0.28637775911E+04  0.00000000000E+00 0.  1.
         23    2    1    2    0    0 -0.19120604377E+04 -0.63922151152E+03  0.43459729788E+03  0.20642256984E+04  0.87026801550E+02 0.  0.
         11    1    3    3    0    0 -0.45868252325E+03 -0.12206336213E+03  0.12479890008E+03  0.49077885750E+03  0.00000000000E+00 0.  1.
        -11    1    3    3    0    0 -0.14533779145E+04 -0.51715814938E+03  0.30979839780E+03  0.15734468409E+04  0.00000000000E+00 0. -1.
         22    1    1    2    0    0  0.19120604377E+04  0.63922151152E+03 -0.15530322195E+04  0.25448945623E+04  0.00000000000E+00 0.  1.
<mgrwt>
<rscale>  0 0.44713637E+04</rscale>
<asrwt>0</asrwt>
<pdfrwt beam="1">  1        2 0.44058117E+00 0.44713637E+04</pdfrwt>
<pdfrwt beam="2">  1       -2 0.26851426E+00 0.44713637E+04</pdfrwt>
<totfact> 0.79456681E-02</totfact>
</mgrwt>
</event>
<event>
 6    1  0.5040916E-004  0.4901433E+03  0.7818608E-02  0.1016384E+00
          2   -1    0    0  501    0  0.00000000000E+00  0.00000000000E+00  0.14598858155E+04  0.14598858155E+04  0.00000000000E+00 0.  1.
         -2   -1    0    0    0  501 -0.00000000000E+00 -0.00000000000E+00 -0.41140274286E+02  0.41140274286E+02  0.00000000000E+00 0. -1.
         23    2    1    2    0    0 -0.22599333309E+03  0.21285144344E+02  0.53136471349E+03  0.58507260986E+03  0.91844739059E+02 0.  0.
         11    1    3    3    0    0 -0.19448742536E+03  0.15799573075E+02  0.34828699147E+03  0.39922276182E+03  0.00000000000E+00 0. -1.
        -11    1    3    3    0    0 -0.31505907736E+02  0.54855712688E+01  0.18307772202E+03  0.18584984804E+03  0.00000000000E+00 0.  1.
         22    1    1    2    0    0  0.22599333309E+03 -0.21285144344E+02  0.88738082769E+03  0.91595347989E+03  0.00000000000E+00 0. -1.
<mgrwt>
<rscale>  0 0.49014326E+03</rscale>
<asrwt>0</asrwt>
<pdfrwt beam="1">  1        2 0.22459778E+00 0.49014326E+03</pdfrwt>
<pdfrwt beam="2">  1       -2 0.63292741E-02 0.49014326E+03</pdfrwt>
<totfact> 0.19437237E+03</totfact>
</mgrwt>
</event>
<event>
 6    1  0.5040916E-004  0.2772006E+04  0.7818608E-02  0.8312013E-01
          2   -1    0    0  501    0  0.00000000000E+00  0.00000000000E+00  0.19165230919E+04  0.19165230919E+04  0.00000000000E+00 0.  1.
         -2   -1    0    0    0  501 -0.00000000000E+00 -0.00000000000E+00 -0.10023379698E+04  0.10023379698E+04  0.00000000000E+00 0. -1.
         23    2    1    2    0    0 -0.12189323077E+04  0.37393888831E+03 -0.11071479316E+03  0.12829985677E+04  0.90561009415E+02 0.  0.
         13    1    3    3    0    0 -0.85860818908E+03  0.30157243078E+03 -0.60123499743E+02  0.91201359014E+03  0.00000000000E+00 0.  1.
        -13    1    3    3    0    0 -0.36032411860E+03  0.72366457531E+02 -0.50591293418E+02  0.37098497758E+03  0.00000000000E+00 0. -1.
         22    1    1    2    0    0  0.12189323077E+04 -0.37393888831E+03  0.10248999152E+04  0.16358624939E+04  0.00000000000E+00 0.  1.
<mgrwt>
<rscale>  0 0.27720057E+04</rscale>
<asrwt>0</asrwt>
<pdfrwt beam="1">  1        2 0.29484971E+00 0.27720057E+04</pdfrwt>
<pdfrwt beam="2">  1       -2 0.15420584E+00 0.27720057E+04</pdfrwt>
<totfact> 0.18049312E+00</totfact>
</mgrwt>
</event>
<event>
 6    1  0.5040916E-004  0.2961787E+04  0.7818608E-02  0.8254728E-01
          2   -1    0    0  501    0  0.00000000000E+00  0.00000000000E+00  0.70999055843E+03  0.70999055843E+03  0.00000000000E+00 0.  1.
         -2   -1    0    0    0  501 -0.00000000000E+00 -0.00000000000E+00 -0.30888375738E+04  0.30888375738E+04  0.00000000000E+00 0. -1.
         23    2    1    2    0    0 -0.99229050919E+03 -0.15880666491E+03 -0.25832404432E+04  0.27733347462E+04  0.91621042578E+02 0.  0.
         13    1    3    3    0    0 -0.82030157914E+03 -0.96190931383E+02 -0.20971689476E+04  0.22539443141E+04  0.00000000000E+00 0.  1.
        -13    1    3    3    0    0 -0.17198893005E+03 -0.62615733532E+02 -0.48607149561E+03  0.51939043213E+03  0.00000000000E+00 0. -1.
         22    1    1    2    0    0  0.99229050919E+03  0.15880666491E+03  0.20439342786E+03  0.10254933860E+04  0.00000000000E+00 0.  1.
<mgrwt>
<rscale>  0 0.29617870E+04</rscale>
<asrwt>0</asrwt>
<pdfrwt beam="1">  1        2 0.10922932E+00 0.29617870E+04</pdfrwt>
<pdfrwt beam="2">  1       -2 0.47520578E+00 0.29617870E+04</pdfrwt>
<totfact> 0.81771545E-02</totfact>
</mgrwt>
</event>
<event>
 6    1  0.5040916E-004  0.5051010E+04  0.7818608E-02  0.7820686E-01
          2   -1    0    0  501    0  0.00000000000E+00  0.00000000000E+00  0.21512956978E+04  0.21512956978E+04  0.00000000000E+00 0.  1.
         -2   -1    0    0    0  501 -0.00000000000E+00 -0.00000000000E+00 -0.29648059338E+04  0.29648059338E+04  0.00000000000E+00 0. -1.
         23    2    1    2    0    0  0.23109492638E+04 -0.81821170009E+03 -0.10179928360E+04  0.26560670750E+04  0.91793282127E+02 0.  0.
         13    1    3    3    0    0  0.13346507919E+04 -0.47518548293E+03 -0.63719139448E+03  0.15534177972E+04  0.00000000000E+00 0. -1.
        -13    1    3    3    0    0  0.97629847197E+03 -0.34302621717E+03 -0.38080144150E+03  0.11026492778E+04  0.00000000000E+00 0.  1.
         22    1    1    2    0    0 -0.23109492638E+04  0.81821170009E+03  0.20448259993E+03  0.24600345566E+04  0.00000000000E+00 0.  1.
<mgrwt>
<rscale>  0 0.50510095E+04</rscale>
<asrwt>0</asrwt>
<pdfrwt beam="1">  1        2 0.33096857E+00 0.50510095E+04</pdfrwt>
<pdfrwt beam="2">  1       -2 0.45612399E+00 0.50510095E+04</pdfrwt>
<totfact> 0.12651749E-02</totfact>
</mgrwt>
</event>
<event>
 6    1  0.5040916E-004  0.1773259E+04  0.7818608E-02  0.8720651E-01
          2   -1    0    0  501    0  0.00000000000E+00  0.00000000000E+00  0.13968438266E+04  0.13968438266E+04  0.00000000000E+00 0.  1.
         -2   -1    0    0    0  501 -0.00000000000E+00 -0.00000000000E+00 -0.56277700974E+03  0.56277700974E+03  0.00000000000E+00 0. -1.
         23    2    1    2    0    0 -0.47277594974E+03 -0.61678546706E+03  0.88447852317E+03  0.11808508118E+04  0.90360227359E+02 0.  0.
         11    1    3    3    0    0 -0.31545328278E+03 -0.39092948103E+03  0.63225998023E+03  0.80752047364E+03  0.00000000000E+00 0.  1.
        -11    1    3    3    0    0 -0.15732266696E+03 -0.22585598603E+03  0.25221854294E+03  0.37333033813E+03  0.00000000000E+00 0. -1.
         22    1    1    2    0    0  0.47277594974E+03  0.61678546706E+03 -0.50411706305E+02  0.77877002456E+03  0.00000000000E+00 0.  1.
<mgrwt>
<rscale>  0 0.17732587E+04</rscale>
<asrwt>0</asrwt>
<pdfrwt beam="1">  1        2 0.21489905E+00 0.17732587E+04</pdfrwt>
<pdfrwt beam="2">  1       -2 0.86581079E-01 0.17732587E+04</pdfrwt>
<totfact> 0.15882668E+01</totfact>
</mgrwt>
</event>
<event>
 6    1  0.5040916E-004  0.1151748E+04  0.7818608E-02  0.9156173E-01
          2   -1    0    0  501    0  0.00000000000E+00  0.00000000000E+00  0.11603502411E+04  0.11603502411E+04  0.00000000000E+00 0.  1.
         -2   -1    0    0    0  501 -0.00000000000E+00 -0.00000000000E+00 -0.28580223847E+03  0.28580223847E+03  0.00000000000E+00 0. -1.
         23    2    1    2    0    0 -0.20266003020E+03 -0.98868624948E+00  0.11119650564E+04  0.11340003968E+04  0.91752645350E+02 0.  0.
         13    1    3    3    0    0 -0.35395690285E+02 -0.20686356519E+02  0.41303434908E+03  0.41506403573E+03  0.00000000000E+00 0.  1.
        -13    1    3    3    0    0 -0.16726433992E+03  0.19697670270E+02  0.69893070729E+03  0.71893636103E+03  0.00000000000E+00 0. -1.
         22    1    1    2    0    0  0.20266003020E+03  0.98868624948E+00 -0.23741705379E+03  0.31215208276E+03  0.00000000000E+00 0. -1.
<mgrwt>
<rscale>  0 0.11517477E+04</rscale>
<asrwt>0</asrwt>
<pdfrwt beam="1">  1        2 0.17851542E+00 0.11517477E+04</pdfrwt>
<pdfrwt beam="2">  1       -2 0.43969576E-01 0.11517477E+04</pdfrwt>
<totfact> 0.97098873E+01</totfact>
</mgrwt>
</event>
<event>
 6    1  0.5040916E-004  0.2175725E+04  0.7818608E-02  0.8528600E-01
         -2   -1    0    0    0  501 -0.00000000000E+00  0.00000000000E+00  0.79809975425E+03  0.79809975425E+03  0.00000000000E+00 0. -1.
          2   -1    0    0  501    0  0.00000000000E+00 -0.00000000000E+00 -0.14828279594E+04  0.14828279594E+04  0.00000000000E+00 0.  1.
         23    2    1    2    0    0  0.58308299112E+03  0.21595693435E+03 -0.12762166550E+04  0.14227425598E+04  0.94043973561E+02 0.  0.
         11    1    3    3    0    0  0.22331308872E+03  0.11850110844E+03 -0.44540326683E+03  0.51214775055E+03  0.00000000000E+00 0. -1.
        -11    1    3    3    0    0  0.35976990241E+03  0.97455825910E+02 -0.83081338819E+03  0.91059480928E+03  0.00000000000E+00 0.  1.
         22    1    1    2    0    0 -0.58308299112E+03 -0.21595693435E+03  0.59148844983E+03  0.85818515387E+03  0.00000000000E+00 0. -1.
<mgrwt>
<rscale>  0 0.21757248E+04</rscale>
<asrwt>0</asrwt>
<pdfrwt beam="1">  1        2 0.22812738E+00 0.21757248E+04</pdfrwt>
<pdfrwt beam="2">  1       -2 0.12278458E+00 0.21757248E+04</pdfrwt>
<totfact> 0.59628649E+00</totfact>
</mgrwt>
</event>
<event>
 6    1  0.5040916E-004  0.1946977E+04  0.7818608E-02  0.8631820E-01
         -2   -1    0    0    0  501 -0.00000000000E+00  0.00000000000E+00  0.67329345322E+03  0.67329345322E+03  0.00000000000E+00 0. -1.
          2   -1    0    0  501    0  0.00000000000E+00 -0.00000000000E+00 -0.14075283376E+04  0.14075283376E+04  0.00000000000E+00 0.  1.
         23    2    1    2    0    0 -0.96279473838E+03  0.69641186400E+02 -0.48481733045E+03  0.10838098955E+04  0.88161457802E+02 0.  0.
         13    1    3    3    0    0 -0.49886471940E+03  0.65207505721E+02 -0.28919681962E+03  0.58030408196E+03  0.00000000000E+00 0. -1.
        -13    1    3    3    0    0 -0.46393001898E+03  0.44336806792E+01 -0.19562051083E+03  0.50350581357E+03  0.00000000000E+00 0.  1.
         22    1    1    2    0    0  0.96279473838E+03 -0.69641186400E+02 -0.24941755390E+03  0.99701189526E+03  0.00000000000E+00 0. -1.
<mgrwt>
<rscale>  0 0.19469767E+04</rscale>
<asrwt>0</asrwt>
<pdfrwt beam="1">  1        2 0.21654282E+00 0.19469767E+04</pdfrwt>
<pdfrwt beam="2">  1       -2 0.10358361E+00 0.19469767E+04</pdfrwt>
<totfact> 0.10153816E+01</totfact>
</mgrwt>
</event>
<event>
 6    1  0.5040916E-004  0.1337027E+04  0.7818608E-02  0.9000707E-01
         -2   -1    0    0    0  501 -0.00000000000E+00  0.00000000000E+00  0.74058165436E+03  0.74058165436E+03  0.00000000000E+00 0. -1.
          2   -1    0    0  501    0  0.00000000000E+00 -0.00000000000E+00 -0.60345843198E+03  0.60345843198E+03  0.00000000000E+00 0.  1.
         23    2    1    2    0    0 -0.19341299406E+03 -0.62653268457E+03 -0.45668336974E+02  0.66333123134E+03  0.89280089452E+02 0.  0.
         11    1    3    3    0    0 -0.50087481681E+02 -0.25942862825E+03  0.14773954125E+02  0.26463227070E+03  0.00000000000E+00 0. -1.
        -11    1    3    3    0    0 -0.14332551238E+03 -0.36710405632E+03 -0.60442291099E+02  0.39869896064E+03  0.00000000000E+00 0.  1.
         22    1    1    2    0    0  0.19341299406E+03  0.62653268457E+03  0.18279155935E+03  0.68070885500E+03  0.00000000000E+00 0.  1.
<mgrwt>
<rscale>  0 0.13370269E+04</rscale>
<asrwt>0</asrwt>
<pdfrwt beam="1">  1        2 0.92839759E-01 0.13370269E+04</pdfrwt>
<pdfrwt beam="2">  1       -2 0.11393564E+00 0.13370269E+04</pdfrwt>
<totfact> 0.29042713E+01</totfact>
</mgrwt>
</event>
<event>
 6    1  0.5040916E-004  0.2866934E+04  0.7818608E-02  0.8282784E-01
          1   -1    0    0  501    0  0.00000000000E+00  0.00000000000E+00  0.14085319441E+04  0.14085319441E+04  0.00000000000E+00 0.  1.
         -1   -1    0    0    0  501 -0.00000000000E+00 -0.00000000000E+00 -0.14588430565E+04  0.14588430565E+04  0.00000000000E+00 0. -1.
         23    2    1    2    0    0 -0.71083444840E+03 -0.21537270044E+03  0.11993284476E+04  0.14136659365E+04  0.91605904502E+02 0.  0.
         13    1    3    3    0    0 -0.43874870106E+03 -0.15341745059E+03  0.67242120704E+03  0.81742743807E+03  0.00000000000E+00 0. -1.
        -13    1    3    3    0    0 -0.27208574734E+03 -0.61955249847E+02  0.52690724053E+03  0.59623849843E+03  0.00000000000E+00 0.  1.
         22    1    1    2    0    0  0.71083444840E+03  0.21537270044E+03 -0.12496395600E+04  0.14537090641E+04  0.00000000000E+00 0. -1.
<mgrwt>
<rscale>  0 0.28669336E+04</rscale>
<asrwt>0</asrwt>
<pdfrwt beam="1">  1        1 0.21669722E+00 0.28669336E+04</pdfrwt>
<pdfrwt beam="2">  1       -1 0.22443739E+00 0.28669336E+04</pdfrwt>
<totfact> 0.67043475E-01</totfact>
</mgrwt>
</event>
<event>
 6    1  0.5040916E-004  0.8704781E+03  0.7818608E-02  0.9463257E-01
          2   -1    0    0  501    0  0.00000000000E+00  0.00000000000E+00  0.19537531536E+04  0.19537531536E+04  0.00000000000E+00 0.  1.
         -2   -1    0    0    0  501 -0.00000000000E+00 -0.00000000000E+00 -0.96958532278E+02  0.96958532278E+02  0.00000000000E+00 0. -1.
         23    2    1    2    0    0  0.23037847723E+03  0.23597105725E+03  0.15893021233E+04  0.16260838263E+04  0.97523271361E+02 0.  0.
         13    1    3    3    0    0  0.36246720195E+02  0.98638245546E+02  0.54651572212E+03  0.55652741418E+03  0.00000000000E+00 0. -1.
        -13    1    3    3    0    0  0.19413175704E+03  0.13733281170E+03  0.10427864012E+04  0.10695564121E+04  0.00000000000E+00 0.  1.
         22    1    1    2    0    0 -0.23037847723E+03 -0.23597105725E+03  0.26749249808E+03  0.42462785961E+03  0.00000000000E+00 0. -1.
<mgrwt>
<rscale>  0 0.87047812E+03</rscale>
<asrwt>0</asrwt>
<pdfrwt beam="1">  1        2 0.30057738E+00 0.87047812E+03</pdfrwt>
<pdfrwt beam="2">  1       -2 0.14916699E-01 0.87047812E+03</pdfrwt>
<totfact> 0.25401336E+02</totfact>
</mgrwt>
</event>
<event>
 6    1  0.5040916E-004  0.3033764E+04  0.7818608E-02  0.8234154E-01
         -2   -1    0    0    0  501 -0.00000000000E+00  0.00000000000E+00  0.13086546411E+04  0.13086546411E+04  0.00000000000E+00 0. -1.
          2   -1    0    0  501    0  0.00000000000E+00 -0.00000000000E+00 -0.17582419077E+04  0.17582419077E+04  0.00000000000E+00 0.  1.
         23    2    1    2    0    0 -0.14883649691E+04  0.89288790211E+02 -0.49868051853E+03  0.15750477238E+04  0.94288404991E+02 0.  0.
         13    1    3    3    0    0 -0.41917239560E+03 -0.11449679510E+02 -0.16276287454E+03  0.44980923259E+03  0.00000000000E+00 0.  1.
        -13    1    3    3    0    0 -0.10691925735E+04  0.10073846972E+03 -0.33591764399E+03  0.11252384912E+04  0.00000000000E+00 0. -1.
         22    1    1    2    0    0  0.14883649691E+04 -0.89288790211E+02  0.49093251925E+02  0.14918488250E+04  0.00000000000E+00 0. -1.
<mgrwt>
<rscale>  0 0.30337643E+04</rscale>
<asrwt>0</asrwt>
<pdfrwt beam="1">  1        2 0.27049875E+00 0.30337643E+04</pdfrwt>
<pdfrwt beam="2">  1       -2 0.20133148E+00 0.30337643E+04</pdfrwt>
<totfact> 0.10129391E+00</totfact>
</mgrwt>
</event>
<event>
 6    1  0.5040916E-004  0.1854750E+04  0.7818608E-02  0.8677714E-01
         -2   -1    0    0    0  501 -0.00000000000E+00  0.00000000000E+00  0.10707167847E+04  0.10707167847E+04  0.00000000000E+00 0.  1.
          2   -1    0    0  501    0  0.00000000000E+00 -0.00000000000E+00 -0.80322320972E+03  0.80322320972E+03  0.00000000000E+00 0. -1.
         23    2    1    2    0    0  0.10711039810E+03 -0.81182623451E+03 -0.30103545708E+03  0.87706501092E+03  0.89923381529E+02 0.  0.
         11    1    3    3    0    0  0.94098413718E+02 -0.73765931151E+03 -0.24414126549E+03  0.78268814277E+03  0.00000000000E+00 0.  1.
        -11    1    3    3    0    0  0.13011984382E+02 -0.74166923000E+02 -0.56894191596E+02  0.94376868152E+02  0.00000000000E+00 0. -1.
         22    1    1    2    0    0 -0.10711039810E+03  0.81182623451E+03  0.56852903203E+03  0.99687498347E+03  0.00000000000E+00 0.  1.
<mgrwt>
<rscale>  0 0.18547502E+04</rscale>
<asrwt>0</asrwt>
<pdfrwt beam="1">  1        2 0.12357280E+00 0.18547502E+04</pdfrwt>
<pdfrwt beam="2">  1       -2 0.16472566E+00 0.18547502E+04</pdfrwt>
<totfact> 0.74866530E+00</totfact>
</mgrwt>
</event>
<event>
 6    1  0.5040916E-004  0.1353948E+04  0.7818608E-02  0.8987845E-01
         -2   -1    0    0    0  501 -0.00000000000E+00  0.00000000000E+00  0.50500580419E+03  0.50500580419E+03  0.00000000000E+00 0. -1.
          2   -1    0    0  501    0  0.00000000000E+00 -0.00000000000E+00 -0.90750251137E+03  0.90750251137E+03  0.00000000000E+00 0.  1.
         23    2    1    2    0    0  0.35627030917E+02 -0.66734182789E+03 -0.11408198400E+03  0.68463644968E+03  0.95383272001E+02 0.  0.
         11    1    3    3    0    0 -0.10235493878E+02 -0.48124692166E+03 -0.57390258951E+02  0.48476489845E+03  0.00000000000E+00 0. -1.
        -11    1    3    3    0    0  0.45862524795E+02 -0.18609490623E+03 -0.56691725045E+02  0.19987155123E+03  0.00000000000E+00 0.  1.
         22    1    1    2    0    0 -0.35627030917E+02  0.66734182789E+03 -0.28841472318E+03  0.72787186587E+03  0.00000000000E+00 0. -1.
<mgrwt>
<rscale>  0 0.13539484E+04</rscale>
<asrwt>0</asrwt>
<pdfrwt beam="1">  1        2 0.13961577E+00 0.13539484E+04</pdfrwt>
<pdfrwt beam="2">  1       -2 0.77693201E-01 0.13539484E+04</pdfrwt>
<totfact> 0.41787557E+01</totfact>
</mgrwt>
</event>
<event>
 6    1  0.5040916E-004  0.2652405E+04  0.7818608E-02  0.8350615E-01
         -2   -1    0    0    0  501 -0.00000000000E+00  0.00000000000E+00  0.10117320497E+04  0.10117320497E+04  0.00000000000E+00 0. -1.
          2   -1    0    0  501    0  0.00000000000E+00 -0.00000000000E+00 -0.17384176223E+04  0.17384176223E+04  0.00000000000E+00 0.  1.
         23    2    1    2    0    0  0.53264999807E+03  0.23844892331E+03 -0.15967760889E+04  0.17024706105E+04  0.90213036299E+02 0.  0.
         11    1    3    3    0    0  0.41975977324E+03  0.22414753984E+03 -0.12507232352E+04  0.13381887004E+04  0.00000000000E+00 0. -1.
        -11    1    3    3    0    0  0.11289022483E+03  0.14301383467E+02 -0.34605285367E+03  0.36428191001E+03  0.00000000000E+00 0.  1.
         22    1    1    2    0    0 -0.53264999807E+03 -0.23844892331E+03  0.87009051629E+03  0.10476790615E+04  0.00000000000E+00 0. -1.
<mgrwt>
<rscale>  0 0.26524048E+04</rscale>
<asrwt>0</asrwt>
<pdfrwt beam="1">  1        2 0.26744886E+00 0.26524048E+04</pdfrwt>
<pdfrwt beam="2">  1       -2 0.15565109E+00 0.26524048E+04</pdfrwt>
<totfact> 0.22322966E+00</totfact>
</mgrwt>
</event>
<event>
 6    1  0.5040916E-004  0.1557501E+04  0.7818608E-02  0.8847091E-01
          2   -1    0    0  501    0  0.00000000000E+00  0.00000000000E+00  0.32142907180E+04  0.32142907180E+04  0.00000000000E+00 0.  1.
         -2   -1    0    0    0  501 -0.00000000000E+00 -0.00000000000E+00 -0.18867375139E+03  0.18867375139E+03  0.00000000000E+00 0. -1.
         23    2    1    2    0    0 -0.64887217809E+03 -0.36937262299E+03  0.19808343284E+04  0.21188141669E+04  0.90540595839E+02 0.  0.
         13    1    3    3    0    0 -0.10574095932E+03 -0.90402234210E+02  0.43750922619E+03  0.45909480222E+03  0.00000000000E+00 0.  1.
        -13    1    3    3    0    0 -0.54313121877E+03 -0.27897038878E+03  0.15433251022E+04  0.16597193647E+04  0.00000000000E+00 0. -1.
         22    1    1    2    0    0  0.64887217809E+03  0.36937262299E+03  0.10447826382E+04  0.12841503024E+04  0.00000000000E+00 0. -1.
<mgrwt>
<rscale>  0 0.15575009E+04</rscale>
<asrwt>0</asrwt>
<pdfrwt beam="1">  1        2 0.49450622E+00 0.15575009E+04</pdfrwt>
<pdfrwt beam="2">  1       -2 0.29026733E-01 0.15575009E+04</pdfrwt>
<totfact> 0.13433151E+01</totfact>
</mgrwt>
</event>
<event>
 6    1  0.5040916E-004  0.1755129E+04  0.7818608E-02  0.8730532E-01
          1   -1    0    0  501    0  0.00000000000E+00  0.00000000000E+00  0.12222338580E+04  0.12222338580E+04  0.00000000000E+00 0.  1.
         -1   -1    0    0    0  501 -0.00000000000E+00 -0.00000000000E+00 -0.63009199626E+03  0.63009199626E+03  0.00000000000E+00 0. -1.
         23    2    1    2    0    0  0.72217566623E+03 -0.27116939305E+03  0.73303134142E+03  0.10681572639E+04  0.92490325898E+02 0.  0.
         13    1    3    3    0    0  0.36156649118E+03 -0.18142171064E+03  0.35791187190E+03  0.54013430985E+03  0.00000000000E+00 0.  1.
        -13    1    3    3    0    0  0.36060917505E+03 -0.89747682407E+02  0.37511946952E+03  0.52802295409E+03  0.00000000000E+00 0. -1.
         22    1    1    2    0    0 -0.72217566623E+03  0.27116939305E+03 -0.14088947964E+03  0.78416859035E+03  0.00000000000E+00 0. -1.
<mgrwt>
<rscale>  0 0.17551294E+04</rscale>
<asrwt>0</asrwt>
<pdfrwt beam="1">  1        1 0.18803598E+00 0.17551294E+04</pdfrwt>
<pdfrwt beam="2">  1       -1 0.96937230E-01 0.17551294E+04</pdfrwt>
<totfact> 0.99760526E+00</totfact>
</mgrwt>
</event>
<event>
 6    1  0.5040916E-004  0.3457887E+04  0.7818608E-02  0.8123843E-01
         -2   -1    0    0    0  501 -0.00000000000E+00  0.00000000000E+00  0.12412107154E+04  0.12412107154E+04  0.00000000000E+00 0. -1.
          2   -1    0    0  501    0  0.00000000000E+00 -0.00000000000E+00 -0.24083302747E+04  0.24083302747E+04  0.00000000000E+00 0.  1.
         23    2    1    2    0    0  0.25948887483E+02 -0.12380335188E+04  0.68765097206E+03  0.14193898601E+04  0.91669936150E+02 0.  0.
         13    1    3    3    0    0  0.23719823268E+02 -0.64183348864E+03  0.30552205613E+03  0.71123595518E+03  0.00000000000E+00 0. -1.
        -13    1    3    3    0    0  0.22290642154E+01 -0.59620003013E+03  0.38212891593E+03  0.70815390491E+03  0.00000000000E+00 0.  1.
         22    1    1    2    0    0 -0.25948887483E+02  0.12380335188E+04 -0.18547705314E+04  0.22301511300E+04  0.00000000000E+00 0.  1.
<mgrwt>
<rscale>  0 0.34578868E+04</rscale>
<asrwt>0</asrwt>
<pdfrwt beam="1">  1        2 0.37051235E+00 0.34578868E+04</pdfrwt>
<pdfrwt beam="2">  1       -2 0.19095549E+00 0.34578868E+04</pdfrwt>
<totfact> 0.49513008E-01</totfact>
</mgrwt>
</event>
<event>
 6    1  0.5040916E-004  0.3527612E+04  0.7818608E-02  0.8107277E-01
          2   -1    0    0  501    0  0.00000000000E+00  0.00000000000E+00  0.26911300110E+04  0.26911300110E+04  0.00000000000E+00 0.  1.
         -2   -1    0    0    0  501 -0.00000000000E+00 -0.00000000000E+00 -0.11560243503E+04  0.11560243503E+04  0.00000000000E+00 0. -1.
         23    2    1    2    0    0  0.87751902650E+03  0.85438130570E+03 -0.61413422807E+03  0.13734447670E+04  0.95825990438E+02 0.  0.
         13    1    3    3    0    0  0.54639923619E+03  0.58807400295E+03 -0.42549264416E+03  0.90853021330E+03  0.00000000000E+00 0.  1.
        -13    1    3    3    0    0  0.33111979031E+03  0.26630730276E+03 -0.18864158390E+03  0.46491455367E+03  0.00000000000E+00 0. -1.
         22    1    1    2    0    0 -0.87751902650E+03 -0.85438130570E+03  0.21492398888E+04  0.24737095943E+04  0.00000000000E+00 0.  1.
<mgrwt>
<rscale>  0 0.35276121E+04</rscale>
<asrwt>0</asrwt>
<pdfrwt beam="1">  1        2 0.41402000E+00 0.35276121E+04</pdfrwt>
<pdfrwt beam="2">  1       -2 0.17784990E+00 0.35276121E+04</pdfrwt>
<totfact> 0.41345932E-01</totfact>
</mgrwt>
</event>
<event>
 6    1  0.5040916E-004  0.8637227E+03  0.7818608E-02  0.9472102E-01
          1   -1    0    0  501    0  0.00000000000E+00  0.00000000000E+00  0.20249960491E+04  0.20249960491E+04  0.00000000000E+00 0.  1.
         -1   -1    0    0    0  501 -0.00000000000E+00 -0.00000000000E+00 -0.92101026161E+02  0.92101026161E+02  0.00000000000E+00 0. -1.
         23    2    1    2    0    0  0.38571647972E+03  0.92200223334E+02  0.59422286376E+03  0.72091612937E+03  0.96649727640E+02 0.  0.
         11    1    3    3    0    0  0.17530944263E+03  0.12226822629E+02  0.19418310952E+03  0.26189688026E+03  0.00000000000E+00 0.  1.
        -11    1    3    3    0    0  0.21040703709E+03  0.79973400706E+02  0.40003975424E+03  0.45901924910E+03  0.00000000000E+00 0. -1.
         22    1    1    2    0    0 -0.38571647972E+03 -0.92200223334E+02  0.13386721591E+04  0.13961809459E+04  0.00000000000E+00 0.  1.
<mgrwt>
<rscale>  0 0.86372267E+03</rscale>
<asrwt>0</asrwt>
<pdfrwt beam="1">  1        1 0.31153782E+00 0.86372267E+03</pdfrwt>
<pdfrwt beam="2">  1       -1 0.14169390E-01 0.86372267E+03</pdfrwt>
<totfact> 0.10548055E+02</totfact>
</mgrwt>
</event>
<event>
 6    1  0.5040916E-004  0.2389642E+04  0.7818608E-02  0.8443391E-01
         -2   -1    0    0    0  501 -0.00000000000E+00  0.00000000000E+00  0.11488908771E+04  0.11488908771E+04  0.00000000000E+00 0. -1.
          2   -1    0    0  501    0  0.00000000000E+00 -0.00000000000E+00 -0.12425876827E+04  0.12425876827E+04  0.00000000000E+00 0.  1.
         23    2    1    2    0    0 -0.81138792666E+03  0.80952769572E+03 -0.37841556784E+03  0.12104831190E+04  0.91572821770E+02 0.  0.
         13    1    3    3    0    0 -0.27846974661E+03  0.24781793686E+03 -0.16252954166E+03  0.40666322863E+03  0.00000000000E+00 0.  1.
        -13    1    3    3    0    0 -0.53291818005E+03  0.56170975886E+03 -0.21588602618E+03  0.80381989035E+03  0.00000000000E+00 0. -1.
         22    1    1    2    0    0  0.81138792666E+03 -0.80952769572E+03  0.28471876225E+03  0.11809954408E+04  0.00000000000E+00 0. -1.
<mgrwt>
<rscale>  0 0.23896424E+04</rscale>
<asrwt>0</asrwt>
<pdfrwt beam="1">  1        2 0.19116734E+00 0.23896424E+04</pdfrwt>
<pdfrwt beam="2">  1       -2 0.17675244E+00 0.23896424E+04</pdfrwt>
<totfact> 0.30714803E+00</totfact>
</mgrwt>
</event>
<event>
 6    1  0.5040916E-004  0.2039796E+04  0.7818608E-02  0.8588237E-01
         -2   -1    0    0    0  501 -0.00000000000E+00  0.00000000000E+00  0.36862161471E+03  0.36862161471E+03  0.00000000000E+00 0. -1.
          2   -1    0    0  501    0  0.00000000000E+00 -0.00000000000E+00 -0.28218430025E+04  0.28218430025E+04  0.00000000000E+00 0.  1.
         23    2    1    2    0    0 -0.48879206617E+03 -0.56286498739E+03 -0.14527981942E+03  0.76511331050E+03  0.92506615937E+02 0.  0.
         11    1    3    3    0    0 -0.40169108063E+03 -0.47479635694E+03 -0.86159143693E+02  0.62786200942E+03  0.00000000000E+00 0. -1.
        -11    1    3    3    0    0 -0.87100985539E+02 -0.88068630449E+02 -0.59120675731E+02  0.13725130109E+03  0.00000000000E+00 0.  1.
         22    1    1    2    0    0  0.48879206617E+03  0.56286498739E+03 -0.23079415684E+04  0.24253513067E+04  0.00000000000E+00 0. -1.
<mgrwt>
<rscale>  0 0.20397964E+04</rscale>
<asrwt>0</asrwt>
<pdfrwt beam="1">  1        2 0.43412971E+00 0.20397964E+04</pdfrwt>
<pdfrwt beam="2">  1       -2 0.56711016E-01 0.20397964E+04</pdfrwt>
<totfact> 0.60660127E+00</totfact>
</mgrwt>
</event>
<event>
 6    1  0.5040916E-004  0.3503891E+04  0.7818608E-02  0.8112868E-01
          2   -1    0    0  501    0  0.00000000000E+00  0.00000000000E+00  0.40528552955E+04  0.40528552955E+04  0.00000000000E+00 0.  1.
         -2   -1    0    0    0  501 -0.00000000000E+00 -0.00000000000E+00 -0.75732134124E+03  0.75732134124E+03  0.00000000000E+00 0. -1.
         23    2    1    2    0    0 -0.48552104652E+03  0.44159820272E+03  0.38770592007E+04  0.39333007780E+04  0.92343412128E+02 0.  0.
         13    1    3    3    0    0 -0.37895114446E+03  0.30819584668E+03  0.26838047307E+04  0.27278923150E+04  0.00000000000E+00 0. -1.
        -13    1    3    3    0    0 -0.10656990206E+03  0.13340235603E+03  0.11932544700E+04  0.12054084631E+04  0.00000000000E+00 0.  1.
         22    1    1    2    0    0  0.48552104652E+03 -0.44159820272E+03 -0.58152524644E+03  0.87687585866E+03  0.00000000000E+00 0. -1.
<mgrwt>
<rscale>  0 0.35038914E+04</rscale>
<asrwt>0</asrwt>
<pdfrwt beam="1">  1        2 0.62351619E+00 0.35038914E+04</pdfrwt>
<pdfrwt beam="2">  1       -2 0.11651098E+00 0.35038914E+04</pdfrwt>
<totfact> 0.14489123E-01</totfact>
</mgrwt>
</event>
<event>
 6    1  0.5040916E-004  0.1402114E+04  0.7818608E-02  0.8952290E-01
          2   -1    0    0  501    0  0.00000000000E+00  0.00000000000E+00  0.81085771908E+03  0.81085771908E+03  0.00000000000E+00 0.  1.
         -2   -1    0    0    0  501 -0.00000000000E+00 -0.00000000000E+00 -0.60612488522E+03  0.60612488522E+03  0.00000000000E+00 0. -1.
         23    2    1    2    0    0  0.20387333240E+03 -0.48904058269E+03 -0.35505471300E+03  0.64621212951E+03  0.10392901381E+03 0.  0.
         11    1    3    3    0    0  0.21329654721E+03 -0.42857842748E+03 -0.31315484670E+03  0.57204968627E+03  0.00000000000E+00 0.  1.
        -11    1    3    3    0    0 -0.94232148069E+01 -0.60462155213E+02 -0.41899866305E+02  0.74162443236E+02  0.00000000000E+00 0. -1.
         22    1    1    2    0    0 -0.20387333240E+03  0.48904058269E+03  0.55978754687E+03  0.77077047479E+03  0.00000000000E+00 0.  1.
<mgrwt>
<rscale>  0 0.14021142E+04</rscale>
<asrwt>0</asrwt>
<pdfrwt beam="1">  1        2 0.12474734E+00 0.14021142E+04</pdfrwt>
<pdfrwt beam="2">  1       -2 0.93249982E-01 0.14021142E+04</pdfrwt>
<totfact> 0.32054845E+01</totfact>
</mgrwt>
</event>
<event>
 6    1  0.5040916E-004  0.2727308E+04  0.7818608E-02  0.8326199E-01
          2   -1    0    0  501    0  0.00000000000E+00  0.00000000000E+00  0.18433447946E+04  0.18433447946E+04  0.00000000000E+00 0.  1.
         -2   -1    0    0    0  501 -0.00000000000E+00 -0.00000000000E+00 -0.10087920926E+04  0.10087920926E+04  0.00000000000E+00 0. -1.
         23    2    1    2    0    0  0.90232469387E+03  0.59055176676E+03 -0.45257762577E+03  0.11729568127E+04  0.89777138576E+02 0.  0.
         13    1    3    3    0    0  0.73535326880E+03  0.44527679199E+03 -0.33786454029E+03  0.92367109893E+03  0.00000000000E+00 0.  1.
        -13    1    3    3    0    0  0.16697142507E+03  0.14527497477E+03 -0.11471308548E+03  0.24928571372E+03  0.00000000000E+00 0. -1.
         22    1    1    2    0    0 -0.90232469387E+03 -0.59055176676E+03  0.12871303278E+04  0.16791800746E+04  0.00000000000E+00 0.  1.
<mgrwt>
<rscale>  0 0.27273076E+04</rscale>
<asrwt>0</asrwt>
<pdfrwt beam="1">  1        2 0.28359151E+00 0.27273076E+04</pdfrwt>
<pdfrwt beam="2">  1       -2 0.15519878E+00 0.27273076E+04</pdfrwt>
<totfact> 0.19552775E+00</totfact>
</mgrwt>
</event>
<event>
 6    1  0.5040916E-004  0.3513010E+04  0.7818608E-02  0.8110714E-01
          2   -1    0    0  501    0  0.00000000000E+00  0.00000000000E+00  0.13242633141E+04  0.13242633141E+04  0.00000000000E+00 0.  1.
         -2   -1    0    0    0  501 -0.00000000000E+00 -0.00000000000E+00 -0.23298304193E+04  0.23298304193E+04  0.00000000000E+00 0. -1.
         23    2    1    2    0    0  0.17524514873E+04  0.53727695702E+02 -0.41429282900E+03  0.18038023644E+04  0.89952993599E+02 0.  0.
         11    1    3    3    0    0  0.68300953726E+03  0.60719996370E+02 -0.18096192567E+03  0.70917992392E+03  0.00000000000E+00 0. -1.
        -11    1    3    3    0    0  0.10694419500E+04 -0.69923006677E+01 -0.23333090333E+03  0.10946224405E+04  0.00000000000E+00 0.  1.
         22    1    1    2    0    0 -0.17524514873E+04 -0.53727695702E+02 -0.59127427620E+03  0.18502913690E+04  0.00000000000E+00 0. -1.
<mgrwt>
<rscale>  0 0.35130095E+04</rscale>
<asrwt>0</asrwt>
<pdfrwt beam="1">  1        2 0.20373282E+00 0.35130095E+04</pdfrwt>
<pdfrwt beam="2">  1       -2 0.35843544E+00 0.35130095E+04</pdfrwt>
<totfact> 0.18063622E-01</totfact>
</mgrwt>
</event>
<event>
 6    1  0.7177991E-004  0.2245271E+04  0.7818608E-02  0.8499818E-01
          2   -1    0    0  501    0  0.00000000000E+00  0.00000000000E+00  0.14417483359E+04  0.14417483359E+04  0.00000000000E+00 0.  1.
         -2   -1    0    0    0  501 -0.00000000000E+00 -0.00000000000E+00 -0.87415409475E+03  0.87415409475E+03  0.00000000000E+00 0. -1.
         23    2    1    2    0    0 -0.35787637215E+03 -0.26864359058E+03  0.13442201229E+04  0.14195807044E+04  0.89647983604E+02 0.  0.
         11    1    3    3    0    0 -0.14040527949E+03 -0.16111138800E+03  0.64177719897E+03  0.67642331049E+03  0.00000000000E+00 0. -1.
        -11    1    3    3    0    0 -0.21747109265E+03 -0.10753220258E+03  0.70244292396E+03  0.74315739393E+03  0.00000000000E+00 0.  1.
         22    1    1    2    0    0  0.35787637215E+03  0.26864359058E+03 -0.77662588183E+03  0.89632172619E+03  0.00000000000E+00 0. -1.
<mgrwt>
<rscale>  0 0.22452708E+04</rscale>
<asrwt>0</asrwt>
<pdfrwt beam="1">  1        2 0.22180744E+00 0.22452708E+04</pdfrwt>
<pdfrwt beam="2">  1       -2 0.13448525E+00 0.22452708E+04</pdfrwt>
<totfact> 0.49702774E+00</totfact>
</mgrwt>
</event>
<event>
 6    1  0.5040916E-004  0.2784253E+04  0.7818608E-02  0.8308174E-01
          2   -1    0    0  501    0  0.00000000000E+00  0.00000000000E+00  0.16501466650E+04  0.16501466650E+04  0.00000000000E+00 0.  1.
         -2   -1    0    0    0  501 -0.00000000000E+00 -0.00000000000E+00 -0.11744506817E+04  0.11744506817E+04  0.00000000000E+00 0. -1.
         23    2    1    2    0    0  0.63407887641E+02  0.92607699803E+03  0.12886031667E+04  0.15907183999E+04  0.90817068988E+02 0.  0.
         11    1    3    3    0    0  0.47828481403E+02  0.28036518223E+03  0.34307021811E+03  0.44563367646E+03  0.00000000000E+00 0. -1.
        -11    1    3    3    0    0  0.15579406237E+02  0.64571181580E+03  0.94553294858E+03  0.11450847234E+04  0.00000000000E+00 0.  1.
         22    1    1    2    0    0 -0.63407887641E+02 -0.92607699803E+03 -0.81290718343E+03  0.12338789468E+04  0.00000000000E+00 0. -1.
<mgrwt>
<rscale>  0 0.27842528E+04</rscale>
<asrwt>0</asrwt>
<pdfrwt beam="1">  1        2 0.25386872E+00 0.27842528E+04</pdfrwt>
<pdfrwt beam="2">  1       -2 0.18068472E+00 0.27842528E+04</pdfrwt>
<totfact> 0.16340834E+00</totfact>
</mgrwt>
</event>
<event>
 6    1  0.5040916E-004  0.3276783E+04  0.7818608E-02  0.8168828E-01
         -2   -1    0    0    0  501 -0.00000000000E+00  0.00000000000E+00  0.96007421881E+03  0.96007421881E+03  0.00000000000E+00 0. -1.
          2   -1    0    0  501    0  0.00000000000E+00 -0.00000000000E+00 -0.27959579374E+04  0.27959579374E+04  0.00000000000E+00 0.  1.
         23    2    1    2    0    0  0.14482487891E+04 -0.66875605219E+03 -0.49678142801E+03  0.16732805731E+04  0.91743537184E+02 0.  0.
         13    1    3    3    0    0  0.95814414455E+03 -0.47893805557E+03 -0.30427049319E+03  0.11135539483E+04  0.00000000000E+00 0.  1.
        -13    1    3    3    0    0  0.49010464453E+03 -0.18981799662E+03 -0.19251093482E+03  0.55972662475E+03  0.00000000000E+00 0. -1.
         22    1    1    2    0    0 -0.14482487891E+04  0.66875605219E+03 -0.13391022906E+04  0.20827515831E+04  0.00000000000E+00 0. -1.
<mgrwt>
<rscale>  0 0.32767833E+04</rscale>
<asrwt>0</asrwt>
<pdfrwt beam="1">  1        2 0.43014737E+00 0.32767833E+04</pdfrwt>
<pdfrwt beam="2">  1       -2 0.14770373E+00 0.32767833E+04</pdfrwt>
<totfact> 0.60705432E-01</totfact>
</mgrwt>
</event>
<event>
 6    1  0.5040916E-004  0.1488661E+04  0.7818608E-02  0.8892028E-01
          2   -1    0    0  501    0  0.00000000000E+00  0.00000000000E+00  0.13937110986E+04  0.13937110986E+04  0.00000000000E+00 0. -1.
         -2   -1    0    0    0  501 -0.00000000000E+00 -0.00000000000E+00 -0.39751987260E+03  0.39751987260E+03  0.00000000000E+00 0.  1.
         23    2    1    2    0    0  0.70544183076E+03 -0.22796391128E+03  0.48975703037E+03  0.89340508835E+03  0.93246885559E+02 0.  0.
         13    1    3    3    0    0  0.12001841641E+03 -0.52905103187E+02  0.12822141326E+03  0.18342328380E+03  0.00000000000E+00 0.  1.
        -13    1    3    3    0    0  0.58542341435E+03 -0.17505880809E+03  0.36153561711E+03  0.70998180455E+03  0.00000000000E+00 0. -1.
         22    1    1    2    0    0 -0.70544183076E+03  0.22796391128E+03  0.50643419567E+03  0.89782588288E+03  0.00000000000E+00 0. -1.
<mgrwt>
<rscale>  0 0.14886610E+04</rscale>
<asrwt>0</asrwt>
<pdfrwt beam="1">  1        2 0.21441709E+00 0.14886610E+04</pdfrwt>
<pdfrwt beam="2">  1       -2 0.61156904E-01 0.14886610E+04</pdfrwt>
<totfact> 0.35089695E+01</totfact>
</mgrwt>
</event>
<event>
 6    1  0.5040916E-004  0.2664849E+04  0.7818608E-02  0.8346501E-01
          2   -1    0    0  501    0  0.00000000000E+00  0.00000000000E+00  0.26346809571E+04  0.26346809571E+04  0.00000000000E+00 0.  1.
         -2   -1    0    0    0  501 -0.00000000000E+00 -0.00000000000E+00 -0.67384045941E+03  0.67384045941E+03  0.00000000000E+00 0. -1.
         23    2    1    2    0    0 -0.14469805940E+03  0.12253218902E+04  0.36234430744E+03  0.12892291313E+04  0.92016807204E+02 0.  0.
         11    1    3    3    0    0 -0.76385868339E+02  0.36533082875E+03  0.13703466444E+03  0.39759264905E+03  0.00000000000E+00 0. -1.
        -11    1    3    3    0    0 -0.68312191059E+02  0.85999106144E+03  0.22530964300E+03  0.89163648223E+03  0.00000000000E+00 0.  1.
         22    1    1    2    0    0  0.14469805940E+03 -0.12253218902E+04  0.15984961902E+04  0.20192922852E+04  0.00000000000E+00 0.  1.
<mgrwt>
<rscale>  0 0.26648487E+04</rscale>
<asrwt>0</asrwt>
<pdfrwt beam="1">  1        2 0.40533553E+00 0.26648487E+04</pdfrwt>
<pdfrwt beam="2">  1       -2 0.10366776E+00 0.26648487E+04</pdfrwt>
<totfact> 0.19356650E+00</totfact>
</mgrwt>
</event>
<event>
 6    1  0.5040916E-004  0.3059872E+04  0.7818608E-02  0.8226838E-01
          2   -1    0    0  501    0  0.00000000000E+00  0.00000000000E+00  0.27369967062E+04  0.27369967062E+04  0.00000000000E+00 0.  1.
         -2   -1    0    0    0  501 -0.00000000000E+00 -0.00000000000E+00 -0.85520904003E+03  0.85520904003E+03  0.00000000000E+00 0. -1.
         23    2    1    2    0    0 -0.85223385484E+03 -0.30545091794E+03  0.23876841798E+04  0.25551261499E+04  0.89616364658E+02 0.  0.
         11    1    3    3    0    0 -0.65533845441E+03 -0.19379375618E+03  0.17943162561E+04  0.19200508683E+04  0.00000000000E+00 0. -1.
        -11    1    3    3    0    0 -0.19689540043E+03 -0.11165716176E+03  0.59336792368E+03  0.63507528163E+03  0.00000000000E+00 0.  1.
         22    1    1    2    0    0  0.85223385484E+03  0.30545091794E+03 -0.50589651364E+03  0.10370795963E+04  0.00000000000E+00 0. -1.
<mgrwt>
<rscale>  0 0.30598721E+04</rscale>
<asrwt>0</asrwt>
<pdfrwt beam="1">  1        2 0.42107641E+00 0.30598721E+04</pdfrwt>
<pdfrwt beam="2">  1       -2 0.13157062E+00 0.30598721E+04</pdfrwt>
<totfact> 0.90521832E-01</totfact>
</mgrwt>
</event>
<event>
 6    1  0.5040916E-004  0.3204301E+04  0.7818608E-02  0.8187682E-01
         -2   -1    0    0    0  501 -0.00000000000E+00  0.00000000000E+00  0.72718604331E+03  0.72718604331E+03  0.00000000000E+00 0.  1.
          2   -1    0    0  501    0  0.00000000000E+00 -0.00000000000E+00 -0.35298896918E+04  0.35298896918E+04  0.00000000000E+00 0. -1.
         23    2    1    2    0    0 -0.91619755055E+03 -0.10156608101E+04 -0.29752631729E+03  0.14027985422E+04  0.91307216173E+02 0.  0.
         11    1    3    3    0    0 -0.35381080793E+03 -0.35747803134E+03 -0.14770118628E+03  0.52420250965E+03  0.00000000000E+00 0.  1.
        -11    1    3    3    0    0 -0.56238674262E+03 -0.65818277881E+03 -0.14982513101E+03  0.87859603259E+03  0.00000000000E+00 0. -1.
         22    1    1    2    0    0  0.91619755055E+03  0.10156608101E+04 -0.25051773312E+04  0.28542771928E+04  0.00000000000E+00 0. -1.
<mgrwt>
<rscale>  0 0.32043012E+04</rscale>
<asrwt>0</asrwt>
<pdfrwt beam="1">  1        2 0.54305996E+00 0.32043012E+04</pdfrwt>
<pdfrwt beam="2">  1       -2 0.11187477E+00 0.32043012E+04</pdfrwt>
<totfact> 0.41061320E-01</totfact>
</mgrwt>
</event>
<event>
 6    1  0.5040916E-004  0.3675697E+04  0.7818608E-02  0.8073369E-01
         -2   -1    0    0    0  501 -0.00000000000E+00  0.00000000000E+00  0.16324096798E+04  0.16324096798E+04  0.00000000000E+00 0. -1.
          2   -1    0    0  501    0  0.00000000000E+00 -0.00000000000E+00 -0.20691419552E+04  0.20691419552E+04  0.00000000000E+00 0.  1.
         23    2    1    2    0    0 -0.41791430288E+03 -0.17202008455E+04  0.27494435195E+03  0.17936137598E+04  0.87821462046E+02 0.  0.
         13    1    3    3    0    0 -0.19536690742E+03 -0.66628852168E+03  0.79557564013E+02  0.69888341563E+03  0.00000000000E+00 0. -1.
        -13    1    3    3    0    0 -0.22254739546E+03 -0.10539123238E+04  0.19538678794E+03  0.10947303442E+04  0.00000000000E+00 0.  1.
         22    1    1    2    0    0  0.41791430288E+03  0.17202008455E+04 -0.71167662734E+03  0.19079378751E+04  0.00000000000E+00 0. -1.
<mgrwt>
<rscale>  0 0.36756971E+04</rscale>
<asrwt>0</asrwt>
<pdfrwt beam="1">  1        2 0.31832953E+00 0.36756971E+04</pdfrwt>
<pdfrwt beam="2">  1       -2 0.25113995E+00 0.36756971E+04</pdfrwt>
<totfact> 0.31316301E-01</totfact>
</mgrwt>
</event>
<event>
 6    1  0.5040916E-004  0.8993669E+03  0.7818608E-02  0.9426373E-01
         -2   -1    0    0    0  501 -0.00000000000E+00  0.00000000000E+00  0.11355770741E+03  0.11355770741E+03  0.00000000000E+00 0. -1.
          2   -1    0    0  501    0  0.00000000000E+00 -0.00000000000E+00 -0.17807263655E+04  0.17807263655E+04  0.00000000000E+00 0.  1.
         23    2    1    2    0    0 -0.31449728043E+03  0.18372415947E+03 -0.13810399407E+04  0.14311072718E+04  0.90186469909E+02 0.  0.
         11    1    3    3    0    0 -0.23266897382E+03  0.10931798841E+03 -0.82306737194E+03  0.86227905734E+03  0.00000000000E+00 0.  1.
        -11    1    3    3    0    0 -0.81828306605E+02  0.74406171065E+02 -0.55797256879E+03  0.56882821447E+03  0.00000000000E+00 0. -1.
         22    1    1    2    0    0  0.31449728043E+03 -0.18372415947E+03 -0.28612871731E+03  0.46317680106E+03  0.00000000000E+00 0. -1.
<mgrwt>
<rscale>  0 0.89936690E+03</rscale>
<asrwt>0</asrwt>
<pdfrwt beam="1">  1        2 0.27395787E+00 0.89936690E+03</pdfrwt>
<pdfrwt beam="2">  1       -2 0.17470418E-01 0.89936690E+03</pdfrwt>
<totfact> 0.24069156E+02</totfact>
</mgrwt>
</event>
<event>
 6    1  0.5040916E-004  0.1869155E+04  0.7818608E-02  0.8670364E-01
         -2   -1    0    0    0  501 -0.00000000000E+00  0.00000000000E+00  0.57890868077E+03  0.57890868077E+03  0.00000000000E+00 0. -1.
          2   -1    0    0  501    0  0.00000000000E+00 -0.00000000000E+00 -0.15087613307E+04  0.15087613307E+04  0.00000000000E+00 0.  1.
         23    2    1    2    0    0 -0.55837643166E+03  0.49964790599E+03  0.15380586284E+03  0.77019210210E+03  0.90040886797E+02 0.  0.
         11    1    3    3    0    0 -0.38898769807E+03  0.34441147592E+03  0.14855438051E+03  0.54036940880E+03  0.00000000000E+00 0. -1.
        -11    1    3    3    0    0 -0.16938873359E+03  0.15523643007E+03  0.52514823214E+01  0.22982269330E+03  0.00000000000E+00 0.  1.
         22    1    1    2    0    0  0.55837643166E+03 -0.49964790599E+03 -0.10836585128E+04  0.13174779094E+04  0.00000000000E+00 0.  1.
<mgrwt>
<rscale>  0 0.18691549E+04</rscale>
<asrwt>0</asrwt>
<pdfrwt beam="1">  1        2 0.23211713E+00 0.18691549E+04</pdfrwt>
<pdfrwt beam="2">  1       -2 0.89062874E-01 0.18691549E+04</pdfrwt>
<totfact> 0.12757069E+01</totfact>
</mgrwt>
</event>
<event>
 6    1  0.5040916E-004  0.1174065E+04  0.7818608E-02  0.9135865E-01
          2   -1    0    0  501    0  0.00000000000E+00  0.00000000000E+00  0.14190856589E+04  0.14190856589E+04  0.00000000000E+00 0.  1.
         -2   -1    0    0    0  501 -0.00000000000E+00 -0.00000000000E+00 -0.24283738088E+03  0.24283738088E+03  0.00000000000E+00 0. -1.
         23    2    1    2    0    0  0.56307174626E+03  0.15039117357E+03  0.54952440299E+03  0.80609004669E+03  0.90204198149E+02 0.  0.
         13    1    3    3    0    0  0.32506792079E+03  0.60912396418E+02  0.25944740198E+03  0.42034798388E+03  0.00000000000E+00 0. -1.
        -13    1    3    3    0    0  0.23800382547E+03  0.89478777152E+02  0.29007700101E+03  0.38574206280E+03  0.00000000000E+00 0.  1.
         22    1    1    2    0    0 -0.56307174626E+03 -0.15039117357E+03  0.62672387498E+03  0.85583299305E+03  0.00000000000E+00 0.  1.
<mgrwt>
<rscale>  0 0.11740648E+04</rscale>
<asrwt>0</asrwt>
<pdfrwt beam="1">  1        2 0.21832087E+00 0.11740648E+04</pdfrwt>
<pdfrwt beam="2">  1       -2 0.37359598E-01 0.11740648E+04</pdfrwt>
<totfact> 0.94164716E+01</totfact>
</mgrwt>
</event>
<event>
 6    1  0.5040916E-004  0.4113692E+04  0.7818608E-02  0.7981996E-01
         -2   -1    0    0    0  501 -0.00000000000E+00  0.00000000000E+00  0.17381986387E+04  0.17381986387E+04  0.00000000000E+00 0. -1.
          2   -1    0    0  501    0  0.00000000000E+00 -0.00000000000E+00 -0.24339082581E+04  0.24339082581E+04  0.00000000000E+00 0.  1.
         23    2    1    2    0    0 -0.19085365439E+04  0.75018635027E+02 -0.11192388495E+04  0.22157029141E+04  0.92218579676E+02 0.  0.
         13    1    3    3    0    0 -0.10252573320E+04  0.19411846167E+02 -0.64815158862E+03  0.12131075379E+04  0.00000000000E+00 0. -1.
        -13    1    3    3    0    0 -0.88327921186E+03  0.55606788860E+02 -0.47108726086E+03  0.10025953762E+04  0.00000000000E+00 0.  1.
         22    1    1    2    0    0  0.19085365439E+04 -0.75018635027E+02  0.42352923009E+03  0.19564039827E+04  0.00000000000E+00 0. -1.
<mgrwt>
<rscale>  0 0.41136923E+04</rscale>
<asrwt>0</asrwt>
<pdfrwt beam="1">  1        2 0.37444742E+00 0.41136923E+04</pdfrwt>
<pdfrwt beam="2">  1       -2 0.26741518E+00 0.41136923E+04</pdfrwt>
<totfact> 0.14934717E-01</totfact>
</mgrwt>
</event>
<event>
 6    1  0.5040916E-004  0.3069048E+04  0.7818608E-02  0.8224284E-01
         -2   -1    0    0    0  501 -0.00000000000E+00  0.00000000000E+00  0.12090908805E+04  0.12090908805E+04  0.00000000000E+00 0. -1.
          2   -1    0    0  501    0  0.00000000000E+00 -0.00000000000E+00 -0.19475492087E+04  0.19475492087E+04  0.00000000000E+00 0.  1.
         23    2    1    2    0    0  0.48332173843E+03 -0.14267358237E+04 -0.66324752349E+03  0.16483855753E+04  0.90015075460E+02 0.  0.
         11    1    3    3    0    0  0.21239464788E+03 -0.76178661014E+03 -0.36100314907E+03  0.86934089946E+03  0.00000000000E+00 0. -1.
        -11    1    3    3    0    0  0.27092709055E+03 -0.66494921359E+03 -0.30224437443E+03  0.77904467582E+03  0.00000000000E+00 0.  1.
         22    1    1    2    0    0 -0.48332173843E+03  0.14267358237E+04 -0.75210804732E+02  0.15082545139E+04  0.00000000000E+00 0. -1.
<mgrwt>
<rscale>  0 0.30690481E+04</rscale>
<asrwt>0</asrwt>
<pdfrwt beam="1">  1        2 0.29962295E+00 0.30690481E+04</pdfrwt>
<pdfrwt beam="2">  1       -2 0.18601398E+00 0.30690481E+04</pdfrwt>
<totfact> 0.10030941E+00</totfact>
</mgrwt>
</event>
<event>
 6    1  0.5040916E-004  0.1270555E+04  0.7818608E-02  0.9053247E-01
         -2   -1    0    0    0  501 -0.00000000000E+00  0.00000000000E+00  0.56503792495E+03  0.56503792495E+03  0.00000000000E+00 0. -1.
          2   -1    0    0  501    0  0.00000000000E+00 -0.00000000000E+00 -0.71424799321E+03  0.71424799321E+03  0.00000000000E+00 0.  1.
         23    2    1    2    0    0 -0.48984806295E+03 -0.28492775521E+03  0.20659133678E+03  0.61015992831E+03  0.92088040569E+02 0.  0.
         13    1    3    3    0    0 -0.18762879717E+03 -0.92663204724E+02  0.12157690239E+03  0.24201648339E+03  0.00000000000E+00 0. -1.
        -13    1    3    3    0    0 -0.30221926578E+03 -0.19226455048E+03  0.85014434385E+02  0.36814344492E+03  0.00000000000E+00 0.  1.
         22    1    1    2    0    0  0.48984806295E+03  0.28492775521E+03 -0.35580140504E+03  0.66912598985E+03  0.00000000000E+00 0.  1.
<mgrwt>
<rscale>  0 0.12705545E+04</rscale>
<asrwt>0</asrwt>
<pdfrwt beam="1">  1        2 0.10988431E+00 0.12705545E+04</pdfrwt>
<pdfrwt beam="2">  1       -2 0.86928912E-01 0.12705545E+04</pdfrwt>
<totfact> 0.44915946E+01</totfact>
</mgrwt>
</event>
<event>
 6    1  0.5040916E-004  0.1727338E+04  0.7818608E-02  0.8745925E-01
         -2   -1    0    0    0  501 -0.00000000000E+00  0.00000000000E+00  0.88019160536E+03  0.88019160536E+03  0.00000000000E+00 0. -1.
          2   -1    0    0  501    0  0.00000000000E+00 -0.00000000000E+00 -0.84745608796E+03  0.84745608796E+03  0.00000000000E+00 0.  1.
         23    2    1    2    0    0  0.45020585110E+03 -0.15294000394E+03 -0.70179998487E+03  0.85265148917E+03  0.91735435083E+02 0.  0.
         11    1    3    3    0    0  0.40888741983E+03 -0.13803700568E+03 -0.57833135113E+03  0.72160258365E+03  0.00000000000E+00 0. -1.
        -11    1    3    3    0    0  0.41318431265E+02 -0.14902998269E+02 -0.12346863374E+03  0.13104890552E+03  0.00000000000E+00 0.  1.
         22    1    1    2    0    0 -0.45020585110E+03  0.15294000394E+03  0.73453550228E+03  0.87499620415E+03  0.00000000000E+00 0. -1.
<mgrwt>
<rscale>  0 0.17273375E+04</rscale>
<asrwt>0</asrwt>
<pdfrwt beam="1">  1        2 0.13037786E+00 0.17273375E+04</pdfrwt>
<pdfrwt beam="2">  1       -2 0.13541409E+00 0.17273375E+04</pdfrwt>
<totfact> 0.11842512E+01</totfact>
</mgrwt>
</event>
<event>
 6    1  0.5040916E-004  0.3933311E+03  0.7818608E-02  0.1046114E+00
         -2   -1    0    0    0  501 -0.00000000000E+00  0.00000000000E+00  0.12651502480E+03  0.12651502480E+03  0.00000000000E+00 0. -1.
          2   -1    0    0  501    0  0.00000000000E+00 -0.00000000000E+00 -0.30571335415E+03  0.30571335415E+03  0.00000000000E+00 0.  1.
         23    2    1    2    0    0 -0.14364060370E+02  0.17262988681E+03 -0.19651492605E+02  0.19672339564E+03  0.91140052561E+02 0.  0.
         11    1    3    3    0    0  0.28842028827E+02  0.35242958666E+02  0.16150616368E+02  0.48319469900E+02  0.00000000000E+00 0. -1.
        -11    1    3    3    0    0 -0.43206089197E+02  0.13738692814E+03 -0.35802108974E+02  0.14840392574E+03  0.00000000000E+00 0.  1.
         22    1    1    2    0    0  0.14364060370E+02 -0.17262988681E+03 -0.15954683675E+03  0.23550498331E+03  0.00000000000E+00 0.  1.
<mgrwt>
<rscale>  0 0.39333107E+03</rscale>
<asrwt>0</asrwt>
<pdfrwt beam="1">  1        2 0.47032824E-01 0.39333107E+03</pdfrwt>
<pdfrwt beam="2">  1       -2 0.19463850E-01 0.39333107E+03</pdfrwt>
<totfact> 0.23739335E+03</totfact>
</mgrwt>
</event>
<event>
 6    1  0.5040916E-004  0.3500701E+04  0.7818608E-02  0.8113624E-01
         -2   -1    0    0    0  501 -0.00000000000E+00  0.00000000000E+00  0.91802560602E+03  0.91802560602E+03  0.00000000000E+00 0. -1.
          2   -1    0    0  501    0  0.00000000000E+00 -0.00000000000E+00 -0.33373001198E+04  0.33373001198E+04  0.00000000000E+00 0.  1.
         23    2    1    2    0    0  0.10459309126E+04 -0.13937123147E+04 -0.13964145255E+04  0.22347693555E+04  0.88402801032E+02 0.  0.
         11    1    3    3    0    0  0.62521007878E+03 -0.78345985434E+03 -0.76167731504E+03  0.12589079864E+04  0.00000000000E+00 0. -1.
        -11    1    3    3    0    0  0.42072083382E+03 -0.61025246035E+03 -0.63473721048E+03  0.97586136912E+03  0.00000000000E+00 0.  1.
         22    1    1    2    0    0 -0.10459309126E+04  0.13937123147E+04 -0.10228599883E+04  0.20205563703E+04  0.00000000000E+00 0. -1.
<mgrwt>
<rscale>  0 0.35007011E+04</rscale>
<asrwt>0</asrwt>
<pdfrwt beam="1">  1        2 0.51343079E+00 0.35007011E+04</pdfrwt>
<pdfrwt beam="2">  1       -2 0.14123471E+00 0.35007011E+04</pdfrwt>
<totfact> 0.30290466E-01</totfact>
</mgrwt>
</event>
<event>
 6    1  0.5040916E-004  0.3347830E+04  0.7818608E-02  0.8150831E-01
         -1   -1    0    0    0  501 -0.00000000000E+00  0.00000000000E+00  0.10844016388E+04  0.10844016388E+04  0.00000000000E+00 0. -1.
          1   -1    0    0  501    0  0.00000000000E+00 -0.00000000000E+00 -0.25839058366E+04  0.25839058366E+04  0.00000000000E+00 0.  1.
         23    2    1    2    0    0  0.16279971370E+04 -0.93518127307E+02 -0.11583169763E+04  0.20023155672E+04  0.91918957632E+02 0.  0.
         13    1    3    3    0    0  0.10024382082E+04 -0.13924941810E+02 -0.72345241844E+03  0.12363088882E+04  0.00000000000E+00 0. -1.
        -13    1    3    3    0    0  0.62555892880E+03 -0.79593185497E+02 -0.43486455784E+03  0.76600667898E+03  0.00000000000E+00 0.  1.
         22    1    1    2    0    0 -0.16279971370E+04  0.93518127307E+02 -0.34118722154E+03  0.16659919082E+04  0.00000000000E+00 0.  1.
<mgrwt>
<rscale>  0 0.33478302E+04</rscale>
<asrwt>0</asrwt>
<pdfrwt beam="1">  1        1 0.39752397E+00 0.33478302E+04</pdfrwt>
<pdfrwt beam="2">  1       -1 0.16683102E+00 0.33478302E+04</pdfrwt>
<totfact> 0.25402390E-01</totfact>
</mgrwt>
</event>
<event>
 6    1  0.5040916E-004  0.1471359E+04  0.7818608E-02  0.8903725E-01
          1   -1    0    0  501    0  0.00000000000E+00  0.00000000000E+00  0.10137049011E+04  0.10137049011E+04  0.00000000000E+00 0.  1.
         -1   -1    0    0    0  501 -0.00000000000E+00 -0.00000000000E+00 -0.53390744371E+03  0.53390744371E+03  0.00000000000E+00 0. -1.
         23    2    1    2    0    0 -0.59363849948E+02 -0.24672966597E+03  0.96390918633E+03  0.10010194790E+04  0.92301046176E+02 0.  0.
         13    1    3    3    0    0  0.42681080151E+01 -0.17115259051E+03  0.60373149211E+03  0.62753736187E+03  0.00000000000E+00 0.  1.
        -13    1    3    3    0    0 -0.63631957963E+02 -0.75577075463E+02  0.36017769422E+03  0.37348211714E+03  0.00000000000E+00 0. -1.
         22    1    1    2    0    0  0.59363849948E+02  0.24672966597E+03 -0.48411172898E+03  0.54659286575E+03  0.00000000000E+00 0. -1.
<mgrwt>
<rscale>  0 0.14713594E+04</rscale>
<asrwt>0</asrwt>
<pdfrwt beam="1">  1        1 0.15595460E+00 0.14713594E+04</pdfrwt>
<pdfrwt beam="2">  1       -1 0.82139607E-01 0.14713594E+04</pdfrwt>
<totfact> 0.21105902E+01</totfact>
</mgrwt>
</event>
<event>
 6    1  0.5040916E-004  0.6171236E+04  0.7818608E-02  0.7669526E-01
          2   -1    0    0  501    0  0.00000000000E+00  0.00000000000E+00  0.32245475466E+04  0.32245475466E+04  0.00000000000E+00 0.  1.
         -2   -1    0    0    0  501 -0.00000000000E+00 -0.00000000000E+00 -0.29526742741E+04  0.29526742741E+04  0.00000000000E+00 0. -1.
         23    2    1    2    0    0 -0.28480873508E+04 -0.62727173894E+03  0.11426576148E+04  0.31336487950E+04  0.94957639524E+02 0.  0.
         11    1    3    3    0    0 -0.36301246085E+03 -0.11264989659E+03  0.14960855259E+03  0.40847370166E+03  0.00000000000E+00 0.  1.
        -11    1    3    3    0    0 -0.24850748899E+04 -0.51462184234E+03  0.99304906218E+03  0.27251750933E+04  0.00000000000E+00 0. -1.
         22    1    1    2    0    0  0.28480873508E+04  0.62727173894E+03 -0.87078434223E+03  0.30435730257E+04  0.00000000000E+00 0. -1.
<mgrwt>
<rscale>  0 0.61712360E+04</rscale>
<asrwt>0</asrwt>
<pdfrwt beam="1">  1        2 0.49608424E+00 0.61712360E+04</pdfrwt>
<pdfrwt beam="2">  1       -2 0.45425758E+00 0.61712360E+04</pdfrwt>
<totfact> 0.27127570E-03</totfact>
</mgrwt>
</event>
<event>
 6    1  0.5040916E-004  0.5028076E+04  0.7818608E-02  0.7824191E-01
         -2   -1    0    0    0  501 -0.00000000000E+00  0.00000000000E+00  0.11640552381E+04  0.11640552381E+04  0.00000000000E+00 0. -1.
          2   -1    0    0  501    0  0.00000000000E+00 -0.00000000000E+00 -0.54296278420E+04  0.54296278420E+04  0.00000000000E+00 0.  1.
         23    2    1    2    0    0 -0.16647487701E+04  0.19130278278E+03  0.32272082588E+03  0.17089700055E+04  0.91894101865E+02 0.  0.
         13    1    3    3    0    0 -0.93497930776E+03  0.64549278346E+02  0.16363364263E+03  0.95138261718E+03  0.00000000000E+00 0.  1.
        -13    1    3    3    0    0 -0.72976946238E+03  0.12675350443E+03  0.15908718325E+03  0.75758738834E+03  0.00000000000E+00 0. -1.
         22    1    1    2    0    0  0.16647487701E+04 -0.19130278278E+03 -0.45882934298E+04  0.48847130745E+04  0.00000000000E+00 0.  1.
<mgrwt>
<rscale>  0 0.50280759E+04</rscale>
<asrwt>0</asrwt>
<pdfrwt beam="1">  1        2 0.83532735E+00 0.50280759E+04</pdfrwt>
<pdfrwt beam="2">  1       -2 0.17908542E+00 0.50280759E+04</pdfrwt>
<totfact> 0.10399487E-03</totfact>
</mgrwt>
</event>
<event>
 6    1  0.5040916E-004  0.2751885E+04  0.7818608E-02  0.8318364E-01
          2   -1    0    0  501    0  0.00000000000E+00  0.00000000000E+00  0.12064781362E+04  0.12064781362E+04  0.00000000000E+00 0.  1.
         -2   -1    0    0    0  501 -0.00000000000E+00 -0.00000000000E+00 -0.15692099087E+04  0.15692099087E+04  0.00000000000E+00 0. -1.
         23    2    1    2    0    0 -0.55428422609E+03 -0.12308139940E+04 -0.44238718402E+03  0.14234753856E+04  0.91878516223E+02 0.  0.
         13    1    3    3    0    0 -0.18096294750E+03 -0.35200547307E+03 -0.16834705498E+03  0.43011181379E+03  0.00000000000E+00 0.  1.
        -13    1    3    3    0    0 -0.37332127859E+03 -0.87880852094E+03 -0.27404012904E+03  0.99336357183E+03  0.00000000000E+00 0. -1.
         22    1    1    2    0    0  0.55428422609E+03  0.12308139940E+04  0.79655411497E+02  0.13522126592E+04  0.00000000000E+00 0.  1.
<mgrwt>
<rscale>  0 0.27518848E+04</rscale>
<asrwt>0</asrwt>
<pdfrwt beam="1">  1        2 0.18561202E+00 0.27518848E+04</pdfrwt>
<pdfrwt beam="2">  1       -2 0.24141691E+00 0.27518848E+04</pdfrwt>
<totfact> 0.11904838E+00</totfact>
</mgrwt>
</event>
<event>
 6    1  0.5040916E-004  0.1412820E+04  0.7818608E-02  0.8944591E-01
         -2   -1    0    0    0  501 -0.00000000000E+00  0.00000000000E+00  0.31895748669E+03  0.31895748669E+03  0.00000000000E+00 0.  1.
          2   -1    0    0  501    0  0.00000000000E+00 -0.00000000000E+00 -0.15645190866E+04  0.15645190866E+04  0.00000000000E+00 0. -1.
         23    2    1    2    0    0  0.62029222895E+03  0.32542520785E+03 -0.53950816254E+03  0.88890356360E+03  0.91741335997E+02 0.  0.
         13    1    3    3    0    0  0.43783700699E+03  0.27396846784E+03 -0.40770028548E+03  0.65801176953E+03  0.00000000000E+00 0. -1.
        -13    1    3    3    0    0  0.18245522196E+03  0.51456740013E+02 -0.13180787706E+03  0.23089179407E+03  0.00000000000E+00 0.  1.
         22    1    1    2    0    0 -0.62029222895E+03 -0.32542520785E+03 -0.70605343737E+03  0.99457300970E+03  0.00000000000E+00 0.  1.
<mgrwt>
<rscale>  0 0.14128200E+04</rscale>
<asrwt>0</asrwt>
<pdfrwt beam="1">  1        2 0.24069524E+00 0.14128200E+04</pdfrwt>
<pdfrwt beam="2">  1       -2 0.49070383E-01 0.14128200E+04</pdfrwt>
<totfact> 0.44627697E+01</totfact>
</mgrwt>
</event>
<event>
 6    1  0.5040916E-004  0.8926862E+03  0.7818608E-02  0.9434771E-01
          2   -1    0    0  501    0  0.00000000000E+00  0.00000000000E+00  0.13426429775E+04  0.13426429775E+04  0.00000000000E+00 0.  1.
         -2   -1    0    0    0  501 -0.00000000000E+00 -0.00000000000E+00 -0.14838058719E+03  0.14838058719E+03  0.00000000000E+00 0. -1.
         23    2    1    2    0    0 -0.16407699763E+03 -0.21333143243E+03  0.11277885764E+02  0.27781134121E+03  0.67973446173E+02 0.  0.
         11    1    3    3    0    0 -0.92680531120E+02 -0.97130187166E+02  0.36476652128E+02  0.13912045234E+03  0.00000000000E+00 0. -1.
        -11    1    3    3    0    0 -0.71396466509E+02 -0.11620124526E+03 -0.25198766364E+02  0.13869088888E+03  0.00000000000E+00 0.  1.
         22    1    1    2    0    0  0.16407699763E+03  0.21333143243E+03  0.11829845045E+04  0.12132122234E+04  0.00000000000E+00 0.  1.
<mgrwt>
<rscale>  0 0.89268618E+03</rscale>
<asrwt>0</asrwt>
<pdfrwt beam="1">  1        2 0.20656045E+00 0.89268618E+03</pdfrwt>
<pdfrwt beam="2">  1       -2 0.22827784E-01 0.89268618E+03</pdfrwt>
<totfact> 0.26440299E+02</totfact>
</mgrwt>
</event>
<event>
 6    1  0.5040916E-004  0.1742002E+04  0.7818608E-02  0.8737765E-01
          2   -1    0    0  501    0  0.00000000000E+00  0.00000000000E+00  0.25259744396E+04  0.25259744396E+04  0.00000000000E+00 0.  1.
         -2   -1    0    0    0  501 -0.00000000000E+00 -0.00000000000E+00 -0.30033672983E+03  0.30033672983E+03  0.00000000000E+00 0. -1.
         23    2    1    2    0    0 -0.31469471303E+03 -0.54050396800E+03  0.20938199928E+04  0.21871294954E+04  0.90972334741E+02 0.  0.
         11    1    3    3    0    0 -0.18153459268E+03 -0.24354045984E+03  0.11141992004E+04  0.11548621658E+04  0.00000000000E+00 0.  1.
        -11    1    3    3    0    0 -0.13316012035E+03 -0.29696350816E+03  0.97962079240E+03  0.10322673296E+04  0.00000000000E+00 0. -1.
         22    1    1    2    0    0  0.31469471303E+03  0.54050396800E+03  0.13181771693E+03  0.63918167397E+03  0.00000000000E+00 0. -1.
<mgrwt>
<rscale>  0 0.17420022E+04</rscale>
<asrwt>0</asrwt>
<pdfrwt beam="1">  1        2 0.38861144E+00 0.17420022E+04</pdfrwt>
<pdfrwt beam="2">  1       -2 0.46205652E-01 0.17420022E+04</pdfrwt>
<totfact> 0.14183560E+01</totfact>
</mgrwt>
</event>
<event>
 6    1  0.5040916E-004  0.2083236E+04  0.7818608E-02  0.8568664E-01
         -2   -1    0    0    0  501 -0.00000000000E+00  0.00000000000E+00  0.39750383880E+03  0.39750383880E+03  0.00000000000E+00 0. -1.
          2   -1    0    0  501    0  0.00000000000E+00 -0.00000000000E+00 -0.27294518160E+04  0.27294518160E+04  0.00000000000E+00 0.  1.
         23    2    1    2    0    0 -0.21986160413E+03 -0.38666084268E+03  0.24211754886E+03  0.51474221317E+03  0.92156965637E+02 0.  0.
         13    1    3    3    0    0 -0.14271510150E+03 -0.32215477997E+03  0.20436114923E+03  0.40732638236E+03  0.00000000000E+00 0. -1.
        -13    1    3    3    0    0 -0.77146502627E+02 -0.64506062711E+02  0.37756399632E+02  0.10741583080E+03  0.00000000000E+00 0.  1.
         22    1    1    2    0    0  0.21986160413E+03  0.38666084268E+03 -0.25740655261E+04  0.26122134417E+04  0.00000000000E+00 0.  1.
<mgrwt>
<rscale>  0 0.20832355E+04</rscale>
<asrwt>0</asrwt>
<pdfrwt beam="1">  1        2 0.41991564E+00 0.20832355E+04</pdfrwt>
<pdfrwt beam="2">  1       -2 0.61154440E-01 0.20832355E+04</pdfrwt>
<totfact> 0.58585229E+00</totfact>
</mgrwt>
</event>
<event>
 6    1  0.5040916E-004  0.9137420E+03  0.7818608E-02  0.9408564E-01
          2   -1    0    0  501    0  0.00000000000E+00  0.00000000000E+00  0.21133989187E+04  0.21133989187E+04  0.00000000000E+00 0.  1.
         -2   -1    0    0    0  501 -0.00000000000E+00 -0.00000000000E+00 -0.98765592694E+02  0.98765592694E+02  0.00000000000E+00 0. -1.
         23    2    1    2    0    0  0.75817805939E+02 -0.40886459075E+03  0.58456419952E+03  0.72286390379E+03  0.88872531114E+02 0.  0.
         11    1    3    3    0    0  0.87404664806E+02 -0.23894999004E+03  0.36691301550E+03  0.44649953428E+03  0.00000000000E+00 0. -1.
        -11    1    3    3    0    0 -0.11586858867E+02 -0.16991460071E+03  0.21765118402E+03  0.27636436952E+03  0.00000000000E+00 0.  1.
         22    1    1    2    0    0 -0.75817805939E+02  0.40886459075E+03  0.14300691265E+04  0.14893006076E+04  0.00000000000E+00 0. -1.
<mgrwt>
<rscale>  0 0.91374197E+03</rscale>
<asrwt>0</asrwt>
<pdfrwt beam="1">  1        2 0.32513826E+00 0.91374197E+03</pdfrwt>
<pdfrwt beam="2">  1       -2 0.15194708E-01 0.91374197E+03</pdfrwt>
<totfact> 0.20051054E+02</totfact>
</mgrwt>
</event>
<event>
 6    1  0.5040916E-004  0.1252172E+04  0.7818608E-02  0.9068378E-01
          4   -1    0    0  501    0  0.00000000000E+00  0.00000000000E+00  0.46436593169E+03  0.46436593169E+03  0.00000000000E+00 0.  1.
         -4   -1    0    0    0  501 -0.00000000000E+00 -0.00000000000E+00 -0.84412630186E+03  0.84412630186E+03  0.00000000000E+00 0. -1.
         23    2    1    2    0    0 -0.11789572896E+03  0.61105310234E+03 -0.16203425762E+03  0.64918202063E+03  0.88864495059E+02 0.  0.
         13    1    3    3    0    0 -0.10127471294E+03  0.44568671619E+03 -0.15577199487E+03  0.48286450569E+03  0.00000000000E+00 0. -1.
        -13    1    3    3    0    0 -0.16621016012E+02  0.16536638615E+03 -0.62622627559E+01  0.16631751494E+03  0.00000000000E+00 0.  1.
         22    1    1    2    0    0  0.11789572896E+03 -0.61105310234E+03 -0.21772611255E+03  0.65931021293E+03  0.00000000000E+00 0.  1.
<mgrwt>
<rscale>  0 0.12521717E+04</rscale>
<asrwt>0</asrwt>
<pdfrwt beam="1">  1        4 0.71440912E-01 0.12521717E+04</pdfrwt>
<pdfrwt beam="2">  1       -4 0.12986559E+00 0.12521717E+04</pdfrwt>
<totfact> 0.15229481E+00</totfact>
</mgrwt>
</event>
<event>
 6    1  0.5040916E-004  0.1995043E+04  0.7818608E-02  0.8608942E-01
          2   -1    0    0  501    0  0.00000000000E+00  0.00000000000E+00  0.34556425183E+04  0.34556425183E+04  0.00000000000E+00 0.  1.
         -2   -1    0    0    0  501 -0.00000000000E+00 -0.00000000000E+00 -0.28794901033E+03  0.28794901033E+03  0.00000000000E+00 0. -1.
         23    2    1    2    0    0 -0.97444386012E+03 -0.74033630209E+02  0.19419860690E+04  0.21759880900E+04  0.92695526625E+02 0.  0.
         11    1    3    3    0    0 -0.68968834320E+03 -0.41518674481E+02  0.12787994506E+04  0.14535205007E+04  0.00000000000E+00 0. -1.
        -11    1    3    3    0    0 -0.28475551691E+03 -0.32514955728E+02  0.66318661834E+03  0.72246758924E+03  0.00000000000E+00 0.  1.
         22    1    1    2    0    0  0.97444386012E+03  0.74033630209E+02  0.12257074390E+04  0.15676034387E+04  0.00000000000E+00 0.  1.
<mgrwt>
<rscale>  0 0.19950427E+04</rscale>
<asrwt>0</asrwt>
<pdfrwt beam="1">  1        2 0.53163728E+00 0.19950427E+04</pdfrwt>
<pdfrwt beam="2">  1       -2 0.44299850E-01 0.19950427E+04</pdfrwt>
<totfact> 0.39417253E+00</totfact>
</mgrwt>
</event>
<event>
 6    1  0.5040916E-004  0.5592586E+04  0.7818608E-02  0.7743076E-01
          2   -1    0    0  501    0  0.00000000000E+00  0.00000000000E+00  0.38514750541E+04  0.38514750541E+04  0.00000000000E+00 0.  1.
         -2   -1    0    0    0  501 -0.00000000000E+00 -0.00000000000E+00 -0.20301971559E+04  0.20301971559E+04  0.00000000000E+00 0. -1.
         23    2    1    2    0    0 -0.19622111605E+04 -0.16723866218E+04  0.20478856444E+04  0.32935260160E+04  0.79550954695E+02 0.  0.
         13    1    3    3    0    0 -0.12623346291E+04 -0.10890611825E+04  0.13707916906E+04  0.21583819945E+04  0.00000000000E+00 0.  1.
        -13    1    3    3    0    0 -0.69987653143E+03 -0.58332543924E+03  0.67709395377E+03  0.11351440215E+04  0.00000000000E+00 0. -1.
         22    1    1    2    0    0  0.19622111605E+04  0.16723866218E+04 -0.22660774624E+03  0.25881461940E+04  0.00000000000E+00 0. -1.
<mgrwt>
<rscale>  0 0.55925857E+04</rscale>
<asrwt>0</asrwt>
<pdfrwt beam="1">  1        2 0.59253462E+00 0.55925857E+04</pdfrwt>
<pdfrwt beam="2">  1       -2 0.31233802E+00 0.55925857E+04</pdfrwt>
<totfact> 0.82832003E-03</totfact>
</mgrwt>
</event>
<event>
 6    1  0.5040916E-004  0.3603078E+04  0.7818608E-02  0.8089787E-01
         -2   -1    0    0    0  501 -0.00000000000E+00  0.00000000000E+00  0.12319905478E+04  0.12319905478E+04  0.00000000000E+00 0. -1.
          2   -1    0    0  501    0  0.00000000000E+00 -0.00000000000E+00 -0.26343896593E+04  0.26343896593E+04  0.00000000000E+00 0.  1.
         23    2    1    2    0    0 -0.13678935955E+03 -0.17949085648E+04 -0.73915341250E+03  0.19479686396E+04  0.88464505871E+02 0.  0.
         13    1    3    3    0    0 -0.65816384984E+02 -0.90781818706E+03 -0.42139611002E+03  0.10030156224E+04  0.00000000000E+00 0.  1.
        -13    1    3    3    0    0 -0.70972974566E+02 -0.88709037776E+03 -0.31775730247E+03  0.94495301720E+03  0.00000000000E+00 0. -1.
         22    1    1    2    0    0  0.13678935955E+03  0.17949085648E+04 -0.66324569908E+03  0.19184115675E+04  0.00000000000E+00 0. -1.
<mgrwt>
<rscale>  0 0.36030782E+04</rscale>
<asrwt>0</asrwt>
<pdfrwt beam="1">  1        2 0.40529071E+00 0.36030782E+04</pdfrwt>
<pdfrwt beam="2">  1       -2 0.18953701E+00 0.36030782E+04</pdfrwt>
<totfact> 0.36940217E-01</totfact>
</mgrwt>
</event>
<event>
 6    1  0.5040916E-004  0.1541501E+04  0.7818608E-02  0.8857314E-01
         -2   -1    0    0    0  501 -0.00000000000E+00  0.00000000000E+00  0.41080506472E+03  0.41080506472E+03  0.00000000000E+00 0. -1.
          2   -1    0    0  501    0  0.00000000000E+00 -0.00000000000E+00 -0.14460793137E+04  0.14460793137E+04  0.00000000000E+00 0.  1.
         23    2    1    2    0    0  0.99887107586E+02  0.10249797776E+03 -0.14285577934E+04  0.14383688876E+04  0.87432363612E+02 0.  0.
         11    1    3    3    0    0  0.17908405976E+02  0.48231288668E+02 -0.84688547438E+03  0.84844680147E+03  0.00000000000E+00 0.  1.
        -11    1    3    3    0    0  0.81978701609E+02  0.54266689092E+02 -0.58167231899E+03  0.58992208616E+03  0.00000000000E+00 0. -1.
         22    1    1    2    0    0 -0.99887107586E+02 -0.10249797776E+03  0.39328354441E+03  0.41851549077E+03  0.00000000000E+00 0. -1.
<mgrwt>
<rscale>  0 0.15415015E+04</rscale>
<asrwt>0</asrwt>
<pdfrwt beam="1">  1        2 0.22247374E+00 0.15415015E+04</pdfrwt>
<pdfrwt beam="2">  1       -2 0.63200780E-01 0.15415015E+04</pdfrwt>
<totfact> 0.30415252E+01</totfact>
</mgrwt>
</event>
<event>
 6    1  0.5040916E-004  0.4069554E+04  0.7818608E-02  0.7990660E-01
          2   -1    0    0  501    0  0.00000000000E+00  0.00000000000E+00  0.21769585095E+04  0.21769585095E+04  0.00000000000E+00 0.  1.
         -2   -1    0    0    0  501 -0.00000000000E+00 -0.00000000000E+00 -0.19018814130E+04  0.19018814130E+04  0.00000000000E+00 0. -1.
         23    2    1    2    0    0  0.12404458594E+04  0.86922033913E+03  0.14978709136E+04  0.21321826216E+04  0.91299124497E+02 0.  0.
         11    1    3    3    0    0  0.57924854981E+03  0.44647433341E+03  0.76650208668E+03  0.10594308197E+04  0.00000000000E+00 0.  1.
        -11    1    3    3    0    0  0.66119730955E+03  0.42274600573E+03  0.73136882691E+03  0.10727518019E+04  0.00000000000E+00 0. -1.
         22    1    1    2    0    0 -0.12404458594E+04 -0.86922033913E+03 -0.12227938171E+04  0.19466573009E+04  0.00000000000E+00 0. -1.
<mgrwt>
<rscale>  0 0.40695537E+04</rscale>
<asrwt>0</asrwt>
<pdfrwt beam="1">  1        2 0.33491670E+00 0.40695537E+04</pdfrwt>
<pdfrwt beam="2">  1       -2 0.29259714E+00 0.40695537E+04</pdfrwt>
<totfact> 0.14723711E-01</totfact>
</mgrwt>
</event>
<event>
 6    1  0.5040916E-004  0.1533169E+04  0.7818608E-02  0.8862690E-01
          2   -1    0    0  501    0  0.00000000000E+00  0.00000000000E+00  0.42937197769E+03  0.42937197769E+03  0.00000000000E+00 0.  1.
         -2   -1    0    0    0  501 -0.00000000000E+00 -0.00000000000E+00 -0.13686316040E+04  0.13686316040E+04  0.00000000000E+00 0. -1.
         23    2    1    2    0    0 -0.48716128877E+03 -0.52422976097E+03 -0.78450199698E+03  0.10658199385E+04  0.91573983525E+02 0.  0.
         11    1    3    3    0    0 -0.12178504061E+03 -0.11280747957E+03 -0.13065272898E+03  0.21125164887E+03  0.00000000000E+00 0. -1.
        -11    1    3    3    0    0 -0.36537624817E+03 -0.41142228140E+03 -0.65384926800E+03  0.85456828962E+03  0.00000000000E+00 0.  1.
         22    1    1    2    0    0  0.48716128877E+03  0.52422976097E+03 -0.15475762936E+03  0.73218364323E+03  0.00000000000E+00 0. -1.
<mgrwt>
<rscale>  0 0.15331693E+04</rscale>
<asrwt>0</asrwt>
<pdfrwt beam="1">  1        2 0.66057227E-01 0.15331693E+04</pdfrwt>
<pdfrwt beam="2">  1       -2 0.21055871E+00 0.15331693E+04</pdfrwt>
<totfact> 0.80245132E+00</totfact>
</mgrwt>
</event>
<event>
 6    1  0.5040916E-004  0.6854228E+03  0.7818608E-02  0.9742491E-01
         -1   -1    0    0    0  501 -0.00000000000E+00  0.00000000000E+00  0.10198087481E+03  0.10198087481E+03  0.00000000000E+00 0. -1.
          1   -1    0    0  501    0  0.00000000000E+00 -0.00000000000E+00 -0.11516974332E+04  0.11516974332E+04  0.00000000000E+00 0.  1.
         23    2    1    2    0    0  0.17653198950E+03 -0.27627111328E+03 -0.39477972280E+03  0.52126344611E+03  0.91516552400E+02 0.  0.
         11    1    3    3    0    0  0.10622778050E+03 -0.89975542016E+02 -0.13469552543E+03  0.19370808988E+03  0.00000000000E+00 0. -1.
        -11    1    3    3    0    0  0.70304208996E+02 -0.18629557126E+03 -0.26008419737E+03  0.32755535623E+03  0.00000000000E+00 0.  1.
         22    1    1    2    0    0 -0.17653198950E+03  0.27627111328E+03 -0.65493683563E+03  0.73241486196E+03  0.00000000000E+00 0. -1.
<mgrwt>
<rscale>  0 0.68542282E+03</rscale>
<asrwt>0</asrwt>
<pdfrwt beam="1">  1        1 0.17718421E+00 0.68542282E+03</pdfrwt>
<pdfrwt beam="2">  1       -1 0.15689366E-01 0.68542282E+03</pdfrwt>
<totfact> 0.35993955E+02</totfact>
</mgrwt>
</event>
<event>
 6    1  0.5040916E-004  0.8649287E+03  0.7818608E-02  0.9470516E-01
          1   -1    0    0  501    0  0.00000000000E+00  0.00000000000E+00  0.43429173964E+03  0.43429173964E+03  0.00000000000E+00 0.  1.
         -1   -1    0    0    0  501 -0.00000000000E+00 -0.00000000000E+00 -0.43064462346E+03  0.43064462346E+03  0.00000000000E+00 0. -1.
         23    2    1    2    0    0 -0.38400042380E+01  0.36599864804E+03 -0.21939026220E+03  0.43631598543E+03  0.90938418686E+02 0.  0.
         11    1    3    3    0    0  0.34790435443E+02  0.13699902851E+03 -0.54470803605E+02  0.15147995464E+03  0.00000000000E+00 0. -1.
        -11    1    3    3    0    0 -0.38630439681E+02  0.22899961952E+03 -0.16491945859E+03  0.28483603079E+03  0.00000000000E+00 0.  1.
         22    1    1    2    0    0  0.38400042380E+01 -0.36599864804E+03  0.22303737838E+03  0.42862037767E+03  0.00000000000E+00 0.  1.
<mgrwt>
<rscale>  0 0.86492867E+03</rscale>
<asrwt>0</asrwt>
<pdfrwt beam="1">  1        1 0.66814114E-01 0.86492867E+03</pdfrwt>
<pdfrwt beam="2">  1       -1 0.66253019E-01 0.86492867E+03</pdfrwt>
<totfact> 0.12526269E+02</totfact>
</mgrwt>
</event>
<event>
 6    1  0.5040916E-004  0.6484726E+03  0.7818608E-02  0.9809649E-01
          4   -1    0    0  501    0  0.00000000000E+00  0.00000000000E+00  0.17723582522E+03  0.17723582522E+03  0.00000000000E+00 0.  1.
         -4   -1    0    0    0  501 -0.00000000000E+00 -0.00000000000E+00 -0.59315993237E+03  0.59315993237E+03  0.00000000000E+00 0. -1.
         23    2    1    2    0    0  0.10718131838E+03  0.17822865621E+03 -0.49960129210E+03  0.54621913039E+03  0.74166019341E+02 0.  0.
         11    1    3    3    0    0  0.13425511589E+02  0.76121876639E+02 -0.12707693350E+03  0.14873913907E+03  0.00000000000E+00 0.  1.
        -11    1    3    3    0    0  0.93755806792E+02  0.10210677957E+03 -0.37252435861E+03  0.39747999131E+03  0.00000000000E+00 0. -1.
         22    1    1    2    0    0 -0.10718131838E+03 -0.17822865621E+03  0.83677184956E+02  0.22417662721E+03  0.00000000000E+00 0.  1.
<mgrwt>
<rscale>  0 0.64847264E+03</rscale>
<asrwt>0</asrwt>
<pdfrwt beam="1">  1        4 0.27267050E-01 0.64847264E+03</pdfrwt>
<pdfrwt beam="2">  1       -4 0.91255373E-01 0.64847264E+03</pdfrwt>
<totfact> 0.26222291E+01</totfact>
</mgrwt>
</event>
<event>
 6    1  0.5040916E-004  0.3195222E+04  0.7818608E-02  0.8190080E-01
         -2   -1    0    0    0  501 -0.00000000000E+00  0.00000000000E+00  0.10423375607E+04  0.10423375607E+04  0.00000000000E+00 0.  1.
          2   -1    0    0  501    0  0.00000000000E+00 -0.00000000000E+00 -0.24486887556E+04  0.24486887556E+04  0.00000000000E+00 0. -1.
         23    2    1    2    0    0  0.71940538539E+02  0.96417412096E+03 -0.20906984876E+04  0.23064848888E+04  0.11851244471E+03 0.  0.
         11    1    3    3    0    0 -0.11888757545E+02  0.33835745161E+03 -0.63138500558E+03  0.71643152700E+03  0.00000000000E+00 0.  1.
        -11    1    3    3    0    0  0.83829296084E+02  0.62581666935E+03 -0.14593134820E+04  0.15900533618E+04  0.00000000000E+00 0. -1.
         22    1    1    2    0    0 -0.71940538539E+02 -0.96417412096E+03  0.68434729266E+03  0.11845414276E+04  0.00000000000E+00 0.  1.
<mgrwt>
<rscale>  0 0.31952216E+04</rscale>
<asrwt>0</asrwt>
<pdfrwt beam="1">  1        2 0.37672135E+00 0.31952216E+04</pdfrwt>
<pdfrwt beam="2">  1       -2 0.16035962E+00 0.31952216E+04</pdfrwt>
<totfact> 0.78595481E-01</totfact>
</mgrwt>
</event>
<event>
 6    1  0.5040916E-004  0.1197844E+04  0.7818608E-02  0.9114746E-01
         -2   -1    0    0    0  501 -0.00000000000E+00  0.00000000000E+00  0.34158000655E+03  0.34158000655E+03  0.00000000000E+00 0. -1.
          2   -1    0    0  501    0  0.00000000000E+00 -0.00000000000E+00 -0.10501416705E+04  0.10501416705E+04  0.00000000000E+00 0.  1.
         23    2    1    2    0    0 -0.13210331064E+03  0.15122353166E+03 -0.10075871629E+04  0.10315327124E+04  0.92238846217E+02 0.  0.
         11    1    3    3    0    0 -0.12708124703E+03  0.83013115478E+02 -0.73343451503E+03  0.74897730842E+03  0.00000000000E+00 0. -1.
        -11    1    3    3    0    0 -0.50220636048E+01  0.68210416182E+02 -0.27415264784E+03  0.28255540397E+03  0.00000000000E+00 0.  1.
         22    1    1    2    0    0  0.13210331064E+03 -0.15122353166E+03  0.29902549896E+03  0.36018896462E+03  0.00000000000E+00 0. -1.
<mgrwt>
<rscale>  0 0.11978437E+04</rscale>
<asrwt>0</asrwt>
<pdfrwt beam="1">  1        2 0.16156025E+00 0.11978437E+04</pdfrwt>
<pdfrwt beam="2">  1       -2 0.52550771E-01 0.11978437E+04</pdfrwt>
<totfact> 0.78905996E+01</totfact>
</mgrwt>
</event>
<event>
 6    1  0.5040916E-004  0.9122793E+03  0.7818608E-02  0.9410361E-01
         -2   -1    0    0    0  501 -0.00000000000E+00  0.00000000000E+00  0.28158286742E+03  0.28158286742E+03  0.00000000000E+00 0. -1.
          2   -1    0    0  501    0  0.00000000000E+00 -0.00000000000E+00 -0.73890642472E+03  0.73890642472E+03  0.00000000000E+00 0.  1.
         23    2    1    2    0    0 -0.27998076218E+03 -0.14229595752E+03  0.13240951935E+03  0.35234075445E+03  0.89299270513E+02 0.  0.
         13    1    3    3    0    0 -0.17043652326E+03 -0.66046600873E+02  0.11920273794E+03  0.21822019769E+03  0.00000000000E+00 0.  1.
        -13    1    3    3    0    0 -0.10954423892E+03 -0.76249356649E+02  0.13206781408E+02  0.13412055676E+03  0.00000000000E+00 0. -1.
         22    1    1    2    0    0  0.27998076218E+03  0.14229595752E+03 -0.58973307666E+03  0.66814853769E+03  0.00000000000E+00 0.  1.
<mgrwt>
<rscale>  0 0.91227932E+03</rscale>
<asrwt>0</asrwt>
<pdfrwt beam="1">  1        2 0.11367791E+00 0.91227932E+03</pdfrwt>
<pdfrwt beam="2">  1       -2 0.43320441E-01 0.91227932E+03</pdfrwt>
<totfact> 0.19357723E+02</totfact>
</mgrwt>
</event>
<event>
 6    1  0.5040916E-004  0.1607574E+04  0.7818608E-02  0.8815908E-01
          2   -1    0    0  501    0  0.00000000000E+00  0.00000000000E+00  0.16988746337E+04  0.16988746337E+04  0.00000000000E+00 0.  1.
         -2   -1    0    0    0  501 -0.00000000000E+00 -0.00000000000E+00 -0.38029513824E+03  0.38029513824E+03  0.00000000000E+00 0. -1.
         23    2    1    2    0    0 -0.67989792791E+03 -0.18876876856E+03  0.17060123107E+03  0.73167248592E+03  0.91351005745E+02 0.  0.
         11    1    3    3    0    0 -0.38806384273E+02 -0.23966007797E+02 -0.74355856891E+01  0.46212475855E+02  0.00000000000E+00 0. -1.
        -11    1    3    3    0    0 -0.64109154363E+03 -0.16480276076E+03  0.17803681676E+03  0.68546001006E+03  0.00000000000E+00 0.  1.
         22    1    1    2    0    0  0.67989792791E+03  0.18876876856E+03  0.11479782644E+04  0.13474972861E+04  0.00000000000E+00 0.  1.
<mgrwt>
<rscale>  0 0.16075743E+04</rscale>
<asrwt>0</asrwt>
<pdfrwt beam="1">  1        2 0.26136532E+00 0.16075743E+04</pdfrwt>
<pdfrwt beam="2">  1       -2 0.58506945E-01 0.16075743E+04</pdfrwt>
<totfact> 0.25706642E+01</totfact>
</mgrwt>
</event>
<event>
 6    1  0.5040916E-004  0.1518564E+04  0.7818608E-02  0.8872201E-01
          2   -1    0    0  501    0  0.00000000000E+00  0.00000000000E+00  0.10629634658E+04  0.10629634658E+04  0.00000000000E+00 0.  1.
         -2   -1    0    0    0  501 -0.00000000000E+00 -0.00000000000E+00 -0.54236016648E+03  0.54236016648E+03  0.00000000000E+00 0. -1.
         23    2    1    2    0    0  0.23778146563E+02  0.52498992683E+03 -0.31308174537E+03  0.61982346625E+03  0.99905587954E+02 0.  0.
         11    1    3    3    0    0  0.44957478091E+02  0.19284841777E+03 -0.80316086602E+02  0.21368753085E+03  0.00000000000E+00 0.  1.
        -11    1    3    3    0    0 -0.21179331528E+02  0.33214150906E+03 -0.23276565876E+03  0.40613593540E+03  0.00000000000E+00 0. -1.
         22    1    1    2    0    0 -0.23778146563E+02 -0.52498992683E+03  0.83368504471E+03  0.98550016606E+03  0.00000000000E+00 0.  1.
<mgrwt>
<rscale>  0 0.15185639E+04</rscale>
<asrwt>0</asrwt>
<pdfrwt beam="1">  1        2 0.16353284E+00 0.15185639E+04</pdfrwt>
<pdfrwt beam="2">  1       -2 0.83440026E-01 0.15185639E+04</pdfrwt>
<totfact> 0.27863352E+01</totfact>
</mgrwt>
</event>
<event>
 6    1  0.5040916E-004  0.6646963E+03  0.7818608E-02  0.9779587E-01
          2   -1    0    0  501    0  0.00000000000E+00  0.00000000000E+00  0.96908485581E+03  0.96908485581E+03  0.00000000000E+00 0.  1.
         -2   -1    0    0    0  501 -0.00000000000E+00 -0.00000000000E+00 -0.11397897091E+03  0.11397897091E+03  0.00000000000E+00 0. -1.
         23    2    1    2    0    0 -0.20702057870E+03  0.94620382873E+02  0.56248041506E+02  0.25241083612E+03  0.93471124726E+02 0.  0.
         11    1    3    3    0    0 -0.83042991532E+02  0.89283435769E+02  0.30104576325E+02  0.12559441015E+03  0.00000000000E+00 0.  1.
        -11    1    3    3    0    0 -0.12397758716E+03  0.53369471039E+01  0.26143465181E+02  0.12681642597E+03  0.00000000000E+00 0. -1.
         22    1    1    2    0    0  0.20702057870E+03 -0.94620382873E+02  0.79885784339E+03  0.83065299060E+03  0.00000000000E+00 0.  1.
<mgrwt>
<rscale>  0 0.66469631E+03</rscale>
<asrwt>0</asrwt>
<pdfrwt beam="1">  1        2 0.14908997E+00 0.66469631E+03</pdfrwt>
<pdfrwt beam="2">  1       -2 0.17535227E-01 0.66469631E+03</pdfrwt>
<totfact> 0.71277375E+02</totfact>
</mgrwt>
</event>
<event>
 6    1  0.5040916E-004  0.4407478E+03  0.7818608E-02  0.1030518E+00
         -2   -1    0    0    0  501 -0.00000000000E+00  0.00000000000E+00  0.79554449524E+02  0.79554449524E+02  0.00000000000E+00 0. -1.
          2   -1    0    0  501    0  0.00000000000E+00 -0.00000000000E+00 -0.61045804765E+03  0.61045804765E+03  0.00000000000E+00 0.  1.
         23    2    1    2    0    0 -0.92568870686E+02 -0.83816280338E+02 -0.54429339696E+03  0.56442009540E+03  0.81979128138E+02 0.  0.
         11    1    3    3    0    0 -0.75611430913E+02 -0.93801642624E+02 -0.51649504166E+03  0.53036116440E+03  0.00000000000E+00 0. -1.
        -11    1    3    3    0    0 -0.16957439773E+02  0.99853622867E+01 -0.27798355297E+02  0.34058931000E+02  0.00000000000E+00 0.  1.
         22    1    1    2    0    0  0.92568870686E+02  0.83816280338E+02  0.13389798834E+02  0.12559240177E+03  0.00000000000E+00 0. -1.
<mgrwt>
<rscale>  0 0.44074779E+03</rscale>
<asrwt>0</asrwt>
<pdfrwt beam="1">  1        2 0.93916624E-01 0.44074779E+03</pdfrwt>
<pdfrwt beam="2">  1       -2 0.12239146E-01 0.44074779E+03</pdfrwt>
<totfact> 0.23801952E+03</totfact>
</mgrwt>
</event>
<event>
 6    1  0.5040916E-004  0.2665636E+04  0.7818608E-02  0.8346242E-01
         -2   -1    0    0    0  501 -0.00000000000E+00  0.00000000000E+00  0.10951522361E+04  0.10951522361E+04  0.00000000000E+00 0. -1.
          2   -1    0    0  501    0  0.00000000000E+00 -0.00000000000E+00 -0.16220608483E+04  0.16220608483E+04  0.00000000000E+00 0.  1.
         23    2    1    2    0    0  0.36089315019E+03  0.11885552763E+04 -0.75183576345E+03  0.14548740910E+04  0.92163412748E+02 0.  0.
         13    1    3    3    0    0  0.31613157134E+03  0.93189340263E+03 -0.61737817424E+03  0.11616885530E+04  0.00000000000E+00 0. -1.
        -13    1    3    3    0    0  0.44761578851E+02  0.25666187372E+03 -0.13445758921E+03  0.29318553794E+03  0.00000000000E+00 0.  1.
         22    1    1    2    0    0 -0.36089315019E+03 -0.11885552763E+04  0.22492715128E+03  0.12623389934E+04  0.00000000000E+00 0. -1.
<mgrwt>
<rscale>  0 0.26656358E+04</rscale>
<asrwt>0</asrwt>
<pdfrwt beam="1">  1        2 0.24954782E+00 0.26656358E+04</pdfrwt>
<pdfrwt beam="2">  1       -2 0.16848496E+00 0.26656358E+04</pdfrwt>
<totfact> 0.20841091E+00</totfact>
</mgrwt>
</event>
<event>
 6    1  0.5040916E-004  0.1037318E+04  0.7818608E-02  0.9268536E-01
         -2   -1    0    0    0  501 -0.00000000000E+00  0.00000000000E+00  0.36606537192E+03  0.36606537192E+03  0.00000000000E+00 0. -1.
          2   -1    0    0  501    0  0.00000000000E+00 -0.00000000000E+00 -0.73486088890E+03  0.73486088890E+03  0.00000000000E+00 0.  1.
         23    2    1    2    0    0  0.38393909122E+02 -0.23775385326E+03 -0.66848731992E+03  0.71645758362E+03  0.91843264474E+02 0.  0.
         11    1    3    3    0    0  0.35819772031E+01 -0.64945190471E+02 -0.31271252259E+03  0.31940543218E+03  0.00000000000E+00 0. -1.
        -11    1    3    3    0    0  0.34811931919E+02 -0.17280866279E+03 -0.35577479733E+03  0.39705215143E+03  0.00000000000E+00 0.  1.
         22    1    1    2    0    0 -0.38393909122E+02  0.23775385326E+03  0.29969180295E+03  0.38446867721E+03  0.00000000000E+00 0. -1.
<mgrwt>
<rscale>  0 0.10373179E+04</rscale>
<asrwt>0</asrwt>
<pdfrwt beam="1">  1        2 0.11305552E+00 0.10373179E+04</pdfrwt>
<pdfrwt beam="2">  1       -2 0.56317750E-01 0.10373179E+04</pdfrwt>
<totfact> 0.11356541E+02</totfact>
</mgrwt>
</event>
<event>
 6    1  0.5040916E-004  0.8425585E+03  0.7818608E-02  0.9500379E-01
         -2   -1    0    0    0  501 -0.00000000000E+00  0.00000000000E+00  0.62799028013E+03  0.62799028013E+03  0.00000000000E+00 0. -1.
          2   -1    0    0  501    0  0.00000000000E+00 -0.00000000000E+00 -0.28260979220E+03  0.28260979220E+03  0.00000000000E+00 0.  1.
         23    2    1    2    0    0  0.33805278810E+03 -0.22193233338E+03  0.28000198329E+03  0.50095632832E+03  0.94986757496E+02 0.  0.
         13    1    3    3    0    0  0.40629205847E+02 -0.26127386833E+01  0.54557331239E+02  0.68073938942E+02  0.00000000000E+00 0. -1.
        -13    1    3    3    0    0  0.29742358225E+03 -0.21931959470E+03  0.22544465206E+03  0.43288238938E+03  0.00000000000E+00 0.  1.
         22    1    1    2    0    0 -0.33805278810E+03  0.22193233338E+03  0.65378504634E+02  0.40964374401E+03  0.00000000000E+00 0. -1.
<mgrwt>
<rscale>  0 0.84255849E+03</rscale>
<asrwt>0</asrwt>
<pdfrwt beam="1">  1        2 0.43478430E-01 0.84255849E+03</pdfrwt>
<pdfrwt beam="2">  1       -2 0.96613889E-01 0.84255849E+03</pdfrwt>
<totfact> 0.10574850E+02</totfact>
</mgrwt>
</event>
<event>
 6    1  0.5040916E-004  0.2095207E+04  0.7818608E-02  0.8563358E-01
         -2   -1    0    0    0  501 -0.00000000000E+00  0.00000000000E+00  0.50236697347E+03  0.50236697347E+03  0.00000000000E+00 0. -1.
          2   -1    0    0  501    0  0.00000000000E+00 -0.00000000000E+00 -0.21846048704E+04  0.21846048704E+04  0.00000000000E+00 0.  1.
         23    2    1    2    0    0 -0.76148228479E+03  0.48250085068E+02 -0.17595371477E+04  0.19200569106E+04  0.92001222367E+02 0.  0.
         11    1    3    3    0    0 -0.65329945870E+03  0.72755821648E+02 -0.14870161709E+04  0.16258261546E+04  0.00000000000E+00 0. -1.
        -11    1    3    3    0    0 -0.10818282610E+03 -0.24505736580E+02 -0.27252097677E+03  0.29423075598E+03  0.00000000000E+00 0.  1.
         22    1    1    2    0    0  0.76148228479E+03 -0.48250085068E+02  0.77299250762E+02  0.76691493331E+03  0.00000000000E+00 0. -1.
<mgrwt>
<rscale>  0 0.20952072E+04</rscale>
<asrwt>0</asrwt>
<pdfrwt beam="1">  1        2 0.33609306E+00 0.20952072E+04</pdfrwt>
<pdfrwt beam="2">  1       -2 0.77287226E-01 0.20952072E+04</pdfrwt>
<totfact> 0.72526265E+00</totfact>
</mgrwt>
</event>
<event>
 6    1  0.5040916E-004  0.1623100E+04  0.7818608E-02  0.8806481E-01
          2   -1    0    0  501    0  0.00000000000E+00  0.00000000000E+00  0.28716136005E+04  0.28716136005E+04  0.00000000000E+00 0.  1.
         -2   -1    0    0    0  501 -0.00000000000E+00 -0.00000000000E+00 -0.22935315029E+03  0.22935315029E+03  0.00000000000E+00 0. -1.
         23    2    1    2    0    0 -0.73677960362E+03 -0.32840828373E+03  0.14427972856E+04  0.16554882597E+04  0.91001018249E+02 0.  0.
         13    1    3    3    0    0 -0.57763131690E+03 -0.22035071818E+03  0.11372094108E+04  0.12943946930E+04  0.00000000000E+00 0.  1.
        -13    1    3    3    0    0 -0.15914828672E+03 -0.10805756555E+03  0.30558787485E+03  0.36109356667E+03  0.00000000000E+00 0. -1.
         22    1    1    2    0    0  0.73677960362E+03  0.32840828373E+03  0.11994631646E+04  0.14454784912E+04  0.00000000000E+00 0.  1.
<mgrwt>
<rscale>  0 0.16231003E+04</rscale>
<asrwt>0</asrwt>
<pdfrwt beam="1">  1        2 0.44178668E+00 0.16231003E+04</pdfrwt>
<pdfrwt beam="2">  1       -2 0.35285102E-01 0.16231003E+04</pdfrwt>
<totfact> 0.15169177E+01</totfact>
</mgrwt>
</event>
<event>
 6    1  0.5040916E-004  0.1335477E+04  0.7818608E-02  0.9001896E-01
         -2   -1    0    0    0  501 -0.00000000000E+00  0.00000000000E+00  0.16381032762E+04  0.16381032762E+04  0.00000000000E+00 0. -1.
          2   -1    0    0  501    0  0.00000000000E+00 -0.00000000000E+00 -0.27218943120E+03  0.27218943120E+03  0.00000000000E+00 0.  1.
         23    2    1    2    0    0 -0.12242373189E+03 -0.87383160490E+02  0.16121781422E+04  0.16217281722E+04  0.90887377903E+02 0.  0.
         13    1    3    3    0    0 -0.58962501384E+01  0.13110950982E+02  0.33588891569E+03  0.33619641058E+03  0.00000000000E+00 0.  1.
        -13    1    3    3    0    0 -0.11652748175E+03 -0.10049411147E+03  0.12762892265E+04  0.12855317617E+04  0.00000000000E+00 0. -1.
         22    1    1    2    0    0  0.12242373189E+03  0.87383160490E+02 -0.24626429723E+03  0.28856453517E+03  0.00000000000E+00 0.  1.
<mgrwt>
<rscale>  0 0.13354765E+04</rscale>
<asrwt>0</asrwt>
<pdfrwt beam="1">  1        2 0.41875298E-01 0.13354765E+04</pdfrwt>
<pdfrwt beam="2">  1       -2 0.25201588E+00 0.13354765E+04</pdfrwt>
<totfact> 0.74858812E+00</totfact>
</mgrwt>
</event>
<event>
 6    1  0.5040916E-004  0.4135061E+04  0.7818608E-02  0.7977841E-01
         -2   -1    0    0    0  501 -0.00000000000E+00  0.00000000000E+00  0.15919216430E+04  0.15919216430E+04  0.00000000000E+00 0. -1.
          2   -1    0    0  501    0  0.00000000000E+00 -0.00000000000E+00 -0.26852342187E+04  0.26852342187E+04  0.00000000000E+00 0.  1.
         23    2    1    2    0    0 -0.69851452966E+03  0.16061047222E+04  0.58766687374E+03  0.18495671741E+04  0.89729872995E+02 0.  0.
         11    1    3    3    0    0 -0.39082916276E+03  0.90305385226E+03  0.37698947539E+03  0.10537432131E+04  0.00000000000E+00 0. -1.
        -11    1    3    3    0    0 -0.30768536690E+03  0.70305086996E+03  0.21067739835E+03  0.79582396102E+03  0.00000000000E+00 0.  1.
         22    1    1    2    0    0  0.69851452966E+03 -0.16061047222E+04 -0.16809794494E+04  0.24275886876E+04  0.00000000000E+00 0.  1.
<mgrwt>
<rscale>  0 0.41350610E+04</rscale>
<asrwt>0</asrwt>
<pdfrwt beam="1">  1        2 0.41311296E+00 0.41350610E+04</pdfrwt>
<pdfrwt beam="2">  1       -2 0.24491102E+00 0.41350610E+04</pdfrwt>
<totfact> 0.14604434E-01</totfact>
</mgrwt>
</event>
<event>
 6    1  0.5040916E-004  0.3195932E+04  0.7818608E-02  0.8189892E-01
         -2   -1    0    0    0  501 -0.00000000000E+00  0.00000000000E+00  0.14598373363E+04  0.14598373363E+04  0.00000000000E+00 0. -1.
          2   -1    0    0  501    0  0.00000000000E+00 -0.00000000000E+00 -0.17491648114E+04  0.17491648114E+04  0.00000000000E+00 0.  1.
         23    2    1    2    0    0 -0.15560473152E+04 -0.12492451430E+03 -0.48155860370E+03  0.16361568953E+04  0.90671472097E+02 0.  0.
         13    1    3    3    0    0 -0.10872533879E+04 -0.12495263734E+03 -0.35568048094E+03  0.11507570098E+04  0.00000000000E+00 0. -1.
        -13    1    3    3    0    0 -0.46879392723E+03  0.28123044799E-01 -0.12587812276E+03  0.48539988544E+03  0.00000000000E+00 0.  1.
         22    1    1    2    0    0  0.15560473152E+04  0.12492451430E+03  0.19223112855E+03  0.15728452524E+04  0.00000000000E+00 0. -1.
<mgrwt>
<rscale>  0 0.31959325E+04</rscale>
<asrwt>0</asrwt>
<pdfrwt beam="1">  1        2 0.26910228E+00 0.31959325E+04</pdfrwt>
<pdfrwt beam="2">  1       -2 0.22459036E+00 0.31959325E+04</pdfrwt>
<totfact> 0.71717103E-01</totfact>
</mgrwt>
</event>
<event>
 6    1  0.5040916E-004  0.1855005E+04  0.7818608E-02  0.8677583E-01
          2   -1    0    0  501    0  0.00000000000E+00  0.00000000000E+00  0.18690610211E+04  0.18690610211E+04  0.00000000000E+00 0.  1.
         -2   -1    0    0    0  501 -0.00000000000E+00 -0.00000000000E+00 -0.46026360937E+03  0.46026360937E+03  0.00000000000E+00 0. -1.
         23    2    1    2    0    0  0.40746724124E+03 -0.82233807021E+03  0.55782815164E+03  0.10777583573E+04  0.90118675357E+02 0.  0.
         13    1    3    3    0    0  0.38602722765E+03 -0.79688918652E+03  0.51797746234E+03  0.10258411415E+04  0.00000000000E+00 0.  1.
        -13    1    3    3    0    0  0.21440013589E+02 -0.25448883691E+02  0.39850689299E+02  0.51917215848E+02  0.00000000000E+00 0. -1.
         22    1    1    2    0    0 -0.40746724124E+03  0.82233807021E+03  0.85096926006E+03  0.12515662731E+04  0.00000000000E+00 0.  1.
<mgrwt>
<rscale>  0 0.18550049E+04</rscale>
<asrwt>0</asrwt>
<pdfrwt beam="1">  1        2 0.28754785E+00 0.18550049E+04</pdfrwt>
<pdfrwt beam="2">  1       -2 0.70809787E-01 0.18550049E+04</pdfrwt>
<totfact> 0.13458339E+01</totfact>
</mgrwt>
</event>
<event>
 6    1  0.5040916E-004  0.2320284E+04  0.7818608E-02  0.8469966E-01
         -2   -1    0    0    0  501 -0.00000000000E+00  0.00000000000E+00  0.65024666596E+03  0.65024666596E+03  0.00000000000E+00 0. -1.
          2   -1    0    0  501    0  0.00000000000E+00 -0.00000000000E+00 -0.20698747064E+04  0.20698747064E+04  0.00000000000E+00 0.  1.
         23    2    1    2    0    0  0.10486967131E+04 -0.40917658929E+03 -0.10301036409E+04  0.15289372829E+04  0.96671747058E+02 0.  0.
         11    1    3    3    0    0  0.83810388778E+03 -0.34790495172E+03 -0.87254677698E+03  0.12588859600E+04  0.00000000000E+00 0. -1.
        -11    1    3    3    0    0  0.21059282528E+03 -0.61271637570E+02 -0.15755686393E+03  0.27005132290E+03  0.00000000000E+00 0.  1.
         22    1    1    2    0    0 -0.10486967131E+04  0.40917658929E+03 -0.38952439951E+03  0.11911840895E+04  0.00000000000E+00 0.  1.
<mgrwt>
<rscale>  0 0.23202837E+04</rscale>
<asrwt>0</asrwt>
<pdfrwt beam="1">  1        2 0.31844226E+00 0.23202837E+04</pdfrwt>
<pdfrwt beam="2">  1       -2 0.10003795E+00 0.23202837E+04</pdfrwt>
<totfact> 0.45621370E+00</totfact>
</mgrwt>
</event>
<event>
 6    1  0.5040916E-004  0.1322677E+04  0.7818608E-02  0.9011773E-01
          2   -1    0    0  501    0  0.00000000000E+00  0.00000000000E+00  0.53880843712E+03  0.53880843712E+03  0.00000000000E+00 0.  1.
         -2   -1    0    0    0  501 -0.00000000000E+00 -0.00000000000E+00 -0.81173265392E+03  0.81173265392E+03  0.00000000000E+00 0. -1.
         23    2    1    2    0    0 -0.36472938553E+03 -0.41576064020E+03 -0.50059603356E+03  0.75244503624E+03  0.98451557318E+02 0.  0.
         11    1    3    3    0    0 -0.20912964970E+03 -0.30559123658E+03 -0.34936902307E+03  0.50909717004E+03  0.00000000000E+00 0.  1.
        -11    1    3    3    0    0 -0.15559973583E+03 -0.11016940362E+03 -0.15122701049E+03  0.24334786620E+03  0.00000000000E+00 0. -1.
         22    1    1    2    0    0  0.36472938553E+03  0.41576064020E+03  0.22767181677E+03  0.59809605480E+03  0.00000000000E+00 0.  1.
<mgrwt>
<rscale>  0 0.13226767E+04</rscale>
<asrwt>0</asrwt>
<pdfrwt beam="1">  1        2 0.82893606E-01 0.13226767E+04</pdfrwt>
<pdfrwt beam="2">  1       -2 0.12488195E+00 0.13226767E+04</pdfrwt>
<totfact> 0.26522369E+01</totfact>
</mgrwt>
</event>
<event>
 6    1  0.5040916E-004  0.1011301E+04  0.7818608E-02  0.9296236E-01
          1   -1    0    0  501    0  0.00000000000E+00  0.00000000000E+00  0.54888174828E+03  0.54888174828E+03  0.00000000000E+00 0.  1.
         -1   -1    0    0    0  501 -0.00000000000E+00 -0.00000000000E+00 -0.46582463517E+03  0.46582463517E+03  0.00000000000E+00 0. -1.
         23    2    1    2    0    0 -0.28985088715E+03 -0.32538476301E+03  0.29124435331E+03  0.53176673115E+03  0.89798676203E+02 0.  0.
         11    1    3    3    0    0 -0.17121969679E+03 -0.23965713919E+03  0.16006553195E+03  0.33522038042E+03  0.00000000000E+00 0. -1.
        -11    1    3    3    0    0 -0.11863119036E+03 -0.85727623816E+02  0.13117882135E+03  0.19654635073E+03  0.00000000000E+00 0.  1.
         22    1    1    2    0    0  0.28985088715E+03  0.32538476301E+03 -0.20818724020E+03  0.48293965230E+03  0.00000000000E+00 0. -1.
<mgrwt>
<rscale>  0 0.10113014E+04</rscale>
<asrwt>0</asrwt>
<pdfrwt beam="1">  1        1 0.84443346E-01 0.10113014E+04</pdfrwt>
<pdfrwt beam="2">  1       -1 0.71665328E-01 0.10113014E+04</pdfrwt>
<totfact> 0.76650892E+01</totfact>
</mgrwt>
</event>
<event>
 6    1  0.5040916E-004  0.2678504E+04  0.7818608E-02  0.8342014E-01
          1   -1    0    0  501    0  0.00000000000E+00  0.00000000000E+00  0.18268269836E+04  0.18268269836E+04  0.00000000000E+00 0.  1.
         -1   -1    0    0    0  501 -0.00000000000E+00 -0.00000000000E+00 -0.98180908133E+03  0.98180908133E+03  0.00000000000E+00 0. -1.
         23    2    1    2    0    0  0.39047573252E+03 -0.70681793945E+03 -0.69521162455E+03  0.10695645045E+04  0.92661367721E+02 0.  0.
         13    1    3    3    0    0  0.19959145471E+03 -0.29003010745E+03 -0.26229411687E+03  0.43903577960E+03  0.00000000000E+00 0. -1.
        -13    1    3    3    0    0  0.19088427781E+03 -0.41678783200E+03 -0.43291750768E+03  0.63052872486E+03  0.00000000000E+00 0.  1.
         22    1    1    2    0    0 -0.39047573252E+03  0.70681793945E+03  0.15402295268E+04  0.17390715605E+04  0.00000000000E+00 0.  1.
<mgrwt>
<rscale>  0 0.26785036E+04</rscale>
<asrwt>0</asrwt>
<pdfrwt beam="1">  1        1 0.28105030E+00 0.26785036E+04</pdfrwt>
<pdfrwt beam="2">  1       -1 0.15104755E+00 0.26785036E+04</pdfrwt>
<totfact> 0.11700068E+00</totfact>
</mgrwt>
</event>
<event>
 6    1  0.5040916E-004  0.2361849E+04  0.7818608E-02  0.8453926E-01
          2   -1    0    0  501    0  0.00000000000E+00  0.00000000000E+00  0.21715899742E+04  0.21715899742E+04  0.00000000000E+00 0.  1.
         -2   -1    0    0    0  501 -0.00000000000E+00 -0.00000000000E+00 -0.64219447045E+03  0.64219447045E+03  0.00000000000E+00 0. -1.
         23    2    1    2    0    0  0.20026675589E+03  0.16152258372E+03  0.21369176755E+04  0.21540272864E+04  0.84971056193E+02 0.  0.
         13    1    3    3    0    0  0.14630065494E+03  0.10106846759E+03  0.11357735490E+04  0.11496087471E+04  0.00000000000E+00 0. -1.
        -13    1    3    3    0    0  0.53966100944E+02  0.60454116124E+02  0.10011441264E+04  0.10044185393E+04  0.00000000000E+00 0.  1.
         22    1    1    2    0    0 -0.20026675589E+03 -0.16152258372E+03 -0.60752217177E+03  0.65975715817E+03  0.00000000000E+00 0. -1.
<mgrwt>
<rscale>  0 0.23618493E+04</rscale>
<asrwt>0</asrwt>
<pdfrwt beam="1">  1        2 0.33409076E+00 0.23618493E+04</pdfrwt>
<pdfrwt beam="2">  1       -2 0.98799150E-01 0.23618493E+04</pdfrwt>
<totfact> 0.41069658E+00</totfact>
</mgrwt>
</event>
<event>
 6    1  0.5040916E-004  0.3677914E+04  0.7818608E-02  0.8072874E-01
          1   -1    0    0  501    0  0.00000000000E+00  0.00000000000E+00  0.21048440302E+04  0.21048440302E+04  0.00000000000E+00 0.  1.
         -1   -1    0    0    0  501 -0.00000000000E+00 -0.00000000000E+00 -0.16066572492E+04  0.16066572492E+04  0.00000000000E+00 0. -1.
         23    2    1    2    0    0  0.75066164906E+03 -0.30031346266E+03  0.19148108358E+04  0.20803958873E+04  0.88687226350E+02 0.  0.
         13    1    3    3    0    0  0.25450972235E+03 -0.73635113742E+02  0.71111991514E+03  0.75887341662E+03  0.00000000000E+00 0. -1.
        -13    1    3    3    0    0  0.49615192671E+03 -0.22667834891E+03  0.12036909206E+04  0.13215224707E+04  0.00000000000E+00 0.  1.
         22    1    1    2    0    0 -0.75066164906E+03  0.30031346266E+03 -0.14166240547E+04  0.16311053920E+04  0.00000000000E+00 0. -1.
<mgrwt>
<rscale>  0 0.36779140E+04</rscale>
<asrwt>0</asrwt>
<pdfrwt beam="1">  1        1 0.32382216E+00 0.36779140E+04</pdfrwt>
<pdfrwt beam="2">  1       -1 0.24717804E+00 0.36779140E+04</pdfrwt>
<totfact> 0.14790562E-01</totfact>
</mgrwt>
</event>
<event>
 6    1  0.5040916E-004  0.1193703E+04  0.7818608E-02  0.9118386E-01
          2   -1    0    0  501    0  0.00000000000E+00  0.00000000000E+00  0.47685336722E+03  0.47685336722E+03  0.00000000000E+00 0.  1.
         -2   -1    0    0    0  501 -0.00000000000E+00 -0.00000000000E+00 -0.74704708150E+03  0.74704708150E+03  0.00000000000E+00 0. -1.
         23    2    1    2    0    0 -0.25356724259E+03 -0.17861084827E+03 -0.65452287662E+03  0.73003094505E+03  0.91360839978E+02 0.  0.
         11    1    3    3    0    0 -0.77788075931E+02 -0.38987888185E+02 -0.28179657164E+03  0.29492430889E+03  0.00000000000E+00 0. -1.
        -11    1    3    3    0    0 -0.17577916666E+03 -0.13962296009E+03 -0.37272630497E+03  0.43510663616E+03  0.00000000000E+00 0.  1.
         22    1    1    2    0    0  0.25356724259E+03  0.17861084827E+03  0.38432916233E+03  0.49386950367E+03  0.00000000000E+00 0.  1.
<mgrwt>
<rscale>  0 0.11937033E+04</rscale>
<asrwt>0</asrwt>
<pdfrwt beam="1">  1        2 0.73362057E-01 0.11937033E+04</pdfrwt>
<pdfrwt beam="2">  1       -2 0.11493032E+00 0.11937033E+04</pdfrwt>
<totfact> 0.37919443E+01</totfact>
</mgrwt>
</event>
<event>
 6    1  0.5040916E-004  0.2015629E+04  0.7818608E-02  0.8599348E-01
          2   -1    0    0  501    0  0.00000000000E+00  0.00000000000E+00  0.28469544434E+04  0.28469544434E+04  0.00000000000E+00 0. -1.
         -2   -1    0    0    0  501 -0.00000000000E+00 -0.00000000000E+00 -0.35676380201E+03  0.35676380201E+03  0.00000000000E+00 0.  1.
         23    2    1    2    0    0 -0.17718870775E+03  0.38681073780E+03  0.26961399274E+04  0.27310307234E+04  0.91323156599E+02 0.  0.
         11    1    3    3    0    0 -0.96277188124E+02  0.22490797552E+03  0.18218153070E+04  0.18381686286E+04  0.00000000000E+00 0.  1.
        -11    1    3    3    0    0 -0.80911519630E+02  0.16190276228E+03  0.87432462041E+03  0.89286209478E+03  0.00000000000E+00 0. -1.
         22    1    1    2    0    0  0.17718870775E+03 -0.38681073780E+03 -0.20594928604E+03  0.47268752200E+03  0.00000000000E+00 0.  1.
<mgrwt>
<rscale>  0 0.20156292E+04</rscale>
<asrwt>0</asrwt>
<pdfrwt beam="1">  1        2 0.43799298E+00 0.20156292E+04</pdfrwt>
<pdfrwt beam="2">  1       -2 0.54886741E-01 0.20156292E+04</pdfrwt>
<totfact> 0.62834285E+00</totfact>
</mgrwt>
</event>
<event>
 6    1  0.5040916E-004  0.2080316E+04  0.7818608E-02  0.8569964E-01
         -2   -1    0    0    0  501 -0.00000000000E+00  0.00000000000E+00  0.72723719848E+03  0.72723719848E+03  0.00000000000E+00 0. -1.
          2   -1    0    0  501    0  0.00000000000E+00 -0.00000000000E+00 -0.14877241703E+04  0.14877241703E+04  0.00000000000E+00 0.  1.
         23    2    1    2    0    0  0.86133978065E+02 -0.93818393888E+03 -0.84710760557E+03  0.12688581505E+04  0.69293184284E+02 0.  0.
         11    1    3    3    0    0  0.39765565575E+02 -0.44745970013E+03 -0.45047224221E+03  0.63618136129E+03  0.00000000000E+00 0. -1.
        -11    1    3    3    0    0  0.46368412490E+02 -0.49072423875E+03 -0.39663536336E+03  0.63267678924E+03  0.00000000000E+00 0.  1.
         22    1    1    2    0    0 -0.86133978065E+02  0.93818393888E+03  0.86620633766E+02  0.94610321823E+03  0.00000000000E+00 0. -1.
<mgrwt>
<rscale>  0 0.20803157E+04</rscale>
<asrwt>0</asrwt>
<pdfrwt beam="1">  1        2 0.22888064E+00 0.20803157E+04</pdfrwt>
<pdfrwt beam="2">  1       -2 0.11188265E+00 0.20803157E+04</pdfrwt>
<totfact> 0.75076260E+00</totfact>
</mgrwt>
</event>
<event>
 6    1  0.8580301E-004  0.3291085E+04  0.7818608E-02  0.8165168E-01
          2   -1    0    0  501    0  0.00000000000E+00  0.00000000000E+00  0.18054387696E+04  0.18054387696E+04  0.00000000000E+00 0.  1.
         -2   -1    0    0    0  501 -0.00000000000E+00 -0.00000000000E+00 -0.14998070610E+04  0.14998070610E+04  0.00000000000E+00 0. -1.
         23    2    1    2    0    0 -0.46034296200E+01  0.12683148058E+04 -0.89783194528E+03  0.15568270008E+04  0.94680886629E+02 0.  0.
         11    1    3    3    0    0 -0.49442459491E+02  0.66063469377E+03 -0.46167714664E+03  0.80748284387E+03  0.00000000000E+00 0. -1.
        -11    1    3    3    0    0  0.44839029871E+02  0.60768011203E+03 -0.43615479865E+03  0.74934415694E+03  0.00000000000E+00 0.  1.
         22    1    1    2    0    0  0.46034296200E+01 -0.12683148058E+04  0.12034636538E+04  0.17484188298E+04  0.00000000000E+00 0.  1.
<mgrwt>
<rscale>  0 0.32910848E+04</rscale>
<asrwt>0</asrwt>
<pdfrwt beam="1">  1        2 0.27775981E+00 0.32910848E+04</pdfrwt>
<pdfrwt beam="2">  1       -2 0.23073955E+00 0.32910848E+04</pdfrwt>
<totfact> 0.60590122E-01</totfact>
</mgrwt>
</event>
<event>
 6    1  0.5040916E-004  0.2528856E+04  0.7818608E-02  0.8392777E-01
          2   -1    0    0  501    0  0.00000000000E+00  0.00000000000E+00  0.11661159197E+04  0.11661159197E+04  0.00000000000E+00 0.  1.
         -2   -1    0    0    0  501 -0.00000000000E+00 -0.00000000000E+00 -0.13710284897E+04  0.13710284897E+04  0.00000000000E+00 0. -1.
         23    2    1    2    0    0  0.89663261870E+02 -0.47525421510E+03 -0.12732484353E+04  0.13644349012E+04  0.81332356373E+02 0.  0.
         11    1    3    3    0    0  0.65601588897E+02 -0.15858237870E+03 -0.49369898532E+03  0.52267640793E+03  0.00000000000E+00 0. -1.
        -11    1    3    3    0    0  0.24061672973E+02 -0.31667183639E+03 -0.77954944999E+03  0.84175849331E+03  0.00000000000E+00 0.  1.
         22    1    1    2    0    0 -0.89663261870E+02  0.47525421510E+03  0.10683358653E+04  0.11727095082E+04  0.00000000000E+00 0.  1.
<mgrwt>
<rscale>  0 0.25288560E+04</rscale>
<asrwt>0</asrwt>
<pdfrwt beam="1">  1        2 0.17940245E+00 0.25288560E+04</pdfrwt>
<pdfrwt beam="2">  1       -2 0.21092746E+00 0.25288560E+04</pdfrwt>
<totfact> 0.19947901E+00</totfact>
</mgrwt>
</event>
<event>
 6    1  0.5040916E-004  0.1797972E+04  0.7818608E-02  0.8707378E-01
         -2   -1    0    0    0  501 -0.00000000000E+00  0.00000000000E+00  0.24712224176E+04  0.24712224176E+04  0.00000000000E+00 0. -1.
          2   -1    0    0  501    0  0.00000000000E+00 -0.00000000000E+00 -0.32703498203E+03  0.32703498203E+03  0.00000000000E+00 0.  1.
         23    2    1    2    0    0 -0.23395854973E+03  0.78777793886E+03  0.16332310208E+04  0.18305760772E+04  0.90744273946E+02 0.  0.
         13    1    3    3    0    0 -0.15490431914E+03  0.47087381638E+03  0.88972704643E+03  0.10184948287E+04  0.00000000000E+00 0. -1.
        -13    1    3    3    0    0 -0.79054230590E+02  0.31690412249E+03  0.74350397440E+03  0.81208124850E+03  0.00000000000E+00 0.  1.
         22    1    1    2    0    0  0.23395854973E+03 -0.78777793886E+03  0.51095641478E+03  0.96768132242E+03  0.00000000000E+00 0.  1.
<mgrwt>
<rscale>  0 0.17979724E+04</rscale>
<asrwt>0</asrwt>
<pdfrwt beam="1">  1        2 0.50313076E-01 0.17979724E+04</pdfrwt>
<pdfrwt beam="2">  1       -2 0.38018805E+00 0.17979724E+04</pdfrwt>
<totfact> 0.94424083E-01</totfact>
</mgrwt>
</event>
<event>
 6    1  0.5040916E-004  0.1129867E+04  0.7818608E-02  0.9176560E-01
          2   -1    0    0  501    0  0.00000000000E+00  0.00000000000E+00  0.34959721884E+03  0.34959721884E+03  0.00000000000E+00 0.  1.
         -2   -1    0    0    0  501 -0.00000000000E+00 -0.00000000000E+00 -0.91290790448E+03  0.91290790448E+03  0.00000000000E+00 0. -1.
         23    2    1    2    0    0 -0.40819297457E+03  0.30406666450E+03 -0.19463580829E+02  0.51762411647E+03  0.92075262838E+02 0.  0.
         13    1    3    3    0    0 -0.13045223383E+03  0.54891380195E+02  0.17754019443E+02  0.14263959526E+03  0.00000000000E+00 0. -1.
        -13    1    3    3    0    0 -0.27774074074E+03  0.24917528430E+03 -0.37217600272E+02  0.37498452120E+03  0.00000000000E+00 0.  1.
         22    1    1    2    0    0  0.40819297457E+03 -0.30406666450E+03 -0.54384710481E+03  0.74488100684E+03  0.00000000000E+00 0. -1.
<mgrwt>
<rscale>  0 0.11298674E+04</rscale>
<asrwt>0</asrwt>
<pdfrwt beam="1">  1        2 0.53784188E-01 0.11298674E+04</pdfrwt>
<pdfrwt beam="2">  1       -2 0.14044737E+00 0.11298674E+04</pdfrwt>
<totfact> 0.32633898E+01</totfact>
</mgrwt>
</event>
<event>
 6    1  0.5040916E-004  0.2599886E+04  0.7818608E-02  0.8368240E-01
         -2   -1    0    0    0  501 -0.00000000000E+00  0.00000000000E+00  0.13069581960E+04  0.13069581960E+04  0.00000000000E+00 0. -1.
          2   -1    0    0  501    0  0.00000000000E+00 -0.00000000000E+00 -0.12929656296E+04  0.12929656296E+04  0.00000000000E+00 0.  1.
         23    2    1    2    0    0  0.51562969166E+03  0.69285489280E+03 -0.96243730914E+03  0.12963375480E+04  0.91014191065E+02 0.  0.
         13    1    3    3    0    0  0.24474169649E+03  0.30258607832E+03 -0.49726413707E+03  0.63144948714E+03  0.00000000000E+00 0.  1.
        -13    1    3    3    0    0  0.27088799517E+03  0.39026881448E+03 -0.46517317207E+03  0.66488806088E+03  0.00000000000E+00 0. -1.
         22    1    1    2    0    0 -0.51562969166E+03 -0.69285489280E+03  0.97642987556E+03  0.13035862777E+04  0.00000000000E+00 0. -1.
<mgrwt>
<rscale>  0 0.25998862E+04</rscale>
<asrwt>0</asrwt>
<pdfrwt beam="1">  1        2 0.19891779E+00 0.25998862E+04</pdfrwt>
<pdfrwt beam="2">  1       -2 0.20107049E+00 0.25998862E+04</pdfrwt>
<totfact> 0.19319305E+00</totfact>
</mgrwt>
</event>
<event>
 6    1  0.5040916E-004  0.2253126E+04  0.7818608E-02  0.8496636E-01
          2   -1    0    0  501    0  0.00000000000E+00  0.00000000000E+00  0.12233194577E+04  0.12233194577E+04  0.00000000000E+00 0.  1.
         -2   -1    0    0    0  501 -0.00000000000E+00 -0.00000000000E+00 -0.10374593384E+04  0.10374593384E+04  0.00000000000E+00 0. -1.
         23    2    1    2    0    0 -0.62844713830E+03 -0.86293675292E+03 -0.26210813306E+03  0.11030736521E+04  0.92006322453E+02 0.  0.
         13    1    3    3    0    0 -0.43011719346E+03 -0.51854802305E+03 -0.17846392708E+03  0.69695209705E+03  0.00000000000E+00 0. -1.
        -13    1    3    3    0    0 -0.19832994484E+03 -0.34438872987E+03 -0.83644205980E+02  0.40612155505E+03  0.00000000000E+00 0.  1.
         22    1    1    2    0    0  0.62844713830E+03  0.86293675292E+03  0.44796825235E+03  0.11577051439E+04  0.00000000000E+00 0.  1.
<mgrwt>
<rscale>  0 0.22531260E+04</rscale>
<asrwt>0</asrwt>
<pdfrwt beam="1">  1        2 0.18820299E+00 0.22531260E+04</pdfrwt>
<pdfrwt beam="2">  1       -2 0.15960913E+00 0.22531260E+04</pdfrwt>
<totfact> 0.42335614E+00</totfact>
</mgrwt>
</event>
<event>
 6    1  0.5040916E-004  0.5876977E+03  0.7818608E-02  0.9931263E-01
         -2   -1    0    0    0  501 -0.00000000000E+00  0.00000000000E+00  0.45862561780E+02  0.45862561780E+02  0.00000000000E+00 0. -1.
          2   -1    0    0  501    0  0.00000000000E+00 -0.00000000000E+00 -0.18827370711E+04  0.18827370711E+04  0.00000000000E+00 0.  1.
         23    2    1    2    0    0 -0.17421258940E+03 -0.12472762903E+03 -0.15677246155E+04  0.15845812132E+04  0.85030249659E+02 0.  0.
         13    1    3    3    0    0 -0.76767625402E+02 -0.77691431070E+02 -0.10503195666E+04  0.10559831527E+04  0.00000000000E+00 0.  1.
        -13    1    3    3    0    0 -0.97444963998E+02 -0.47036197959E+02 -0.51740504885E+03  0.52859806044E+03  0.00000000000E+00 0. -1.
         22    1    1    2    0    0  0.17421258940E+03  0.12472762903E+03 -0.26914989380E+03  0.34401841968E+03  0.00000000000E+00 0. -1.
<mgrwt>
<rscale>  0 0.58769770E+03</rscale>
<asrwt>0</asrwt>
<pdfrwt beam="1">  1        2 0.28965183E+00 0.58769770E+03</pdfrwt>
<pdfrwt beam="2">  1       -2 0.70557794E-02 0.58769770E+03</pdfrwt>
<totfact> 0.96110516E+02</totfact>
</mgrwt>
</event>
<event>
 6    1  0.5040916E-004  0.8295950E+03  0.7818608E-02  0.9518141E-01
          1   -1    0    0  501    0  0.00000000000E+00  0.00000000000E+00  0.83683527520E+03  0.83683527520E+03  0.00000000000E+00 0.  1.
         -1   -1    0    0    0  501 -0.00000000000E+00 -0.00000000000E+00 -0.20560432262E+03  0.20560432262E+03  0.00000000000E+00 0. -1.
         23    2    1    2    0    0  0.72323463399E+02 -0.90796401425E+01  0.82591007947E+03  0.83456202406E+03  0.95148249640E+02 0.  0.
         11    1    3    3    0    0  0.58360736680E+02 -0.42639730650E+02  0.69340259559E+03  0.69715943785E+03  0.00000000000E+00 0. -1.
        -11    1    3    3    0    0  0.13962726719E+02  0.33560090508E+02  0.13250748388E+03  0.13740258621E+03  0.00000000000E+00 0.  1.
         22    1    1    2    0    0 -0.72323463399E+02  0.90796401425E+01 -0.19467912690E+03  0.20787757376E+03  0.00000000000E+00 0. -1.
<mgrwt>
<rscale>  0 0.82959496E+03</rscale>
<asrwt>0</asrwt>
<pdfrwt beam="1">  1        1 0.12874389E+00 0.82959496E+03</pdfrwt>
<pdfrwt beam="2">  1       -1 0.31631435E-01 0.82959496E+03</pdfrwt>
<totfact> 0.19268154E+02</totfact>
</mgrwt>
</event>
<event>
 6    1  0.5040916E-004  0.4050411E+04  0.7818608E-02  0.7994454E-01
         -2   -1    0    0    0  501 -0.00000000000E+00  0.00000000000E+00  0.17480980130E+04  0.17480980130E+04  0.00000000000E+00 0. -1.
          2   -1    0    0  501    0  0.00000000000E+00 -0.00000000000E+00 -0.23462396164E+04  0.23462396164E+04  0.00000000000E+00 0.  1.
         23    2    1    2    0    0 -0.16407723008E+04  0.10433981696E+04  0.26937933125E+03  0.19651579621E+04  0.92016891055E+02 0.  0.
         13    1    3    3    0    0 -0.11708767715E+04  0.78983156482E+03  0.21067039243E+03  0.14279945130E+04  0.00000000000E+00 0. -1.
        -13    1    3    3    0    0 -0.46989552931E+03  0.25356660483E+03  0.58708938828E+02  0.53716344910E+03  0.00000000000E+00 0.  1.
         22    1    1    2    0    0  0.16407723008E+04 -0.10433981696E+04 -0.86752093462E+03  0.21291796673E+04  0.00000000000E+00 0. -1.
<mgrwt>
<rscale>  0 0.40504108E+04</rscale>
<asrwt>0</asrwt>
<pdfrwt beam="1">  1        2 0.36095994E+00 0.40504108E+04</pdfrwt>
<pdfrwt beam="2">  1       -2 0.26893815E+00 0.40504108E+04</pdfrwt>
<totfact> 0.16494492E-01</totfact>
</mgrwt>
</event>
<event>
 6    1  0.5040916E-004  0.2959635E+04  0.7818608E-02  0.8255352E-01
          2   -1    0    0  501    0  0.00000000000E+00  0.00000000000E+00  0.17745180683E+04  0.17745180683E+04  0.00000000000E+00 0.  1.
         -2   -1    0    0    0  501 -0.00000000000E+00 -0.00000000000E+00 -0.12340591859E+04  0.12340591859E+04  0.00000000000E+00 0. -1.
         23    2    1    2    0    0  0.83948217749E+03  0.12170404302E+04  0.27371313621E+03  0.15062220937E+04  0.88703887780E+02 0.  0.
         13    1    3    3    0    0  0.25624995285E+03  0.35015069522E+03  0.41306422376E+02  0.43586209772E+03  0.00000000000E+00 0.  1.
        -13    1    3    3    0    0  0.58323222464E+03  0.86688973497E+03  0.23240671383E+03  0.10703599960E+04  0.00000000000E+00 0. -1.
         22    1    1    2    0    0 -0.83948217749E+03 -0.12170404302E+04  0.26674574611E+03  0.15023551604E+04  0.00000000000E+00 0. -1.
<mgrwt>
<rscale>  0 0.29596353E+04</rscale>
<asrwt>0</asrwt>
<pdfrwt beam="1">  1        2 0.27300278E+00 0.29596353E+04</pdfrwt>
<pdfrwt beam="2">  1       -2 0.18985526E+00 0.29596353E+04</pdfrwt>
<totfact> 0.11895472E+00</totfact>
</mgrwt>
</event>
<event>
 6    1  0.5040916E-004  0.2821927E+04  0.7818608E-02  0.8296493E-01
         -2   -1    0    0    0  501 -0.00000000000E+00  0.00000000000E+00  0.15505185764E+04  0.15505185764E+04  0.00000000000E+00 0. -1.
          2   -1    0    0  501    0  0.00000000000E+00 -0.00000000000E+00 -0.12839692566E+04  0.12839692566E+04  0.00000000000E+00 0.  1.
         23    2    1    2    0    0 -0.64744672191E+03  0.14271274805E+03  0.13827865547E+04  0.15362044469E+04  0.90946471348E+02 0.  0.
         11    1    3    3    0    0 -0.18098158345E+03  0.11666416055E+02  0.44781923440E+03  0.48314853359E+03  0.00000000000E+00 0. -1.
        -11    1    3    3    0    0 -0.46646513846E+03  0.13104633199E+03  0.93496732025E+03  0.10530559133E+04  0.00000000000E+00 0.  1.
         22    1    1    2    0    0  0.64744672191E+03 -0.14271274805E+03 -0.11162372348E+04  0.12982833861E+04  0.00000000000E+00 0.  1.
<mgrwt>
<rscale>  0 0.28219271E+04</rscale>
<asrwt>0</asrwt>
<pdfrwt beam="1">  1        2 0.19753373E+00 0.28219271E+04</pdfrwt>
<pdfrwt beam="2">  1       -2 0.23854132E+00 0.28219271E+04</pdfrwt>
<totfact> 0.11097543E+00</totfact>
</mgrwt>
</event>
<event>
 6    1  0.5426096E-004  0.5335171E+04  0.7818608E-02  0.7778786E-01
          2   -1    0    0  501    0  0.00000000000E+00  0.00000000000E+00  0.27061372011E+04  0.27061372011E+04  0.00000000000E+00 0.  1.
         -2   -1    0    0    0  501 -0.00000000000E+00 -0.00000000000E+00 -0.26295825647E+04  0.26295825647E+04  0.00000000000E+00 0. -1.
         23    2    1    2    0    0 -0.76136030381E+03  0.16258542893E+03  0.25891618513E+04  0.27052638073E+04  0.92680317078E+02 0.  0.
         11    1    3    3    0    0 -0.11293473781E+03  0.27445538728E+02  0.51322409180E+03  0.52621904280E+03  0.00000000000E+00 0. -1.
        -11    1    3    3    0    0 -0.64842556600E+03  0.13513989020E+03  0.20759377594E+04  0.21790447645E+04  0.00000000000E+00 0.  1.
         22    1    1    2    0    0  0.76136030381E+03 -0.16258542893E+03 -0.25126072148E+04  0.26304559585E+04  0.00000000000E+00 0. -1.
<mgrwt>
<rscale>  0 0.53351706E+04</rscale>
<asrwt>0</asrwt>
<pdfrwt beam="1">  1        2 0.41632880E+00 0.53351706E+04</pdfrwt>
<pdfrwt beam="2">  1       -2 0.40455117E+00 0.53351706E+04</pdfrwt>
<totfact> 0.12950515E-02</totfact>
</mgrwt>
</event>
<event>
 6    1  0.5040916E-004  0.1972438E+04  0.7818608E-02  0.8619616E-01
          2   -1    0    0  501    0  0.00000000000E+00  0.00000000000E+00  0.27269868015E+04  0.27269868015E+04  0.00000000000E+00 0.  1.
         -2   -1    0    0    0  501 -0.00000000000E+00 -0.00000000000E+00 -0.35666751449E+03  0.35666751449E+03  0.00000000000E+00 0. -1.
         23    2    1    2    0    0 -0.42899068073E+03 -0.48009622799E+03  0.23512784667E+04  0.24395363570E+04  0.91114305132E+02 0.  0.
         13    1    3    3    0    0 -0.72052707260E+02 -0.13697934104E+03  0.59562231796E+03  0.61540302091E+03  0.00000000000E+00 0.  1.
        -13    1    3    3    0    0 -0.35693797347E+03 -0.34311688696E+03  0.17556561488E+04  0.18241333361E+04  0.00000000000E+00 0. -1.
         22    1    1    2    0    0  0.42899068073E+03  0.48009622799E+03  0.19040820279E+02  0.64411795901E+03  0.00000000000E+00 0. -1.
<mgrwt>
<rscale>  0 0.19724377E+04</rscale>
<asrwt>0</asrwt>
<pdfrwt beam="1">  1        2 0.41953642E+00 0.19724377E+04</pdfrwt>
<pdfrwt beam="2">  1       -2 0.54871927E-01 0.19724377E+04</pdfrwt>
<totfact> 0.74532705E+00</totfact>
</mgrwt>
</event>
<event>
 6    1  0.5040916E-004  0.4939118E+04  0.7818608E-02  0.7837968E-01
         -2   -1    0    0    0  501 -0.00000000000E+00  0.00000000000E+00  0.15339729138E+04  0.15339729138E+04  0.00000000000E+00 0. -1.
          2   -1    0    0  501    0  0.00000000000E+00 -0.00000000000E+00 -0.39757683519E+04  0.39757683519E+04  0.00000000000E+00 0.  1.
         23    2    1    2    0    0 -0.21829375733E+04  0.28117320622E+03  0.26086736795E+02  0.22029728658E+04  0.90189294548E+02 0.  0.
         11    1    3    3    0    0 -0.21369210041E+04  0.28433213750E+03  0.16273334404E+02  0.21558156145E+04  0.00000000000E+00 0. -1.
        -11    1    3    3    0    0 -0.46016569233E+02 -0.31589312830E+01  0.98134023904E+01  0.47157251376E+02  0.00000000000E+00 0.  1.
         22    1    1    2    0    0  0.21829375733E+04 -0.28117320622E+03 -0.24678821749E+04  0.33067683998E+04  0.00000000000E+00 0.  1.
<mgrwt>
<rscale>  0 0.49391177E+04</rscale>
<asrwt>0</asrwt>
<pdfrwt beam="1">  1        2 0.61165666E+00 0.49391177E+04</pdfrwt>
<pdfrwt beam="2">  1       -2 0.23599584E+00 0.49391177E+04</pdfrwt>
<totfact> 0.20444897E-02</totfact>
</mgrwt>
</event>
<event>
 6    1  0.5040916E-004  0.3005165E+04  0.7818608E-02  0.8242258E-01
          2   -1    0    0  501    0  0.00000000000E+00  0.00000000000E+00  0.14180272031E+04  0.14180272031E+04  0.00000000000E+00 0.  1.
         -2   -1    0    0    0  501 -0.00000000000E+00 -0.00000000000E+00 -0.15921794548E+04  0.15921794548E+04  0.00000000000E+00 0. -1.
         23    2    1    2    0    0 -0.27635460526E+03  0.16961722640E+03  0.13810871669E+04  0.14215243358E+04  0.90486481184E+02 0.  0.
         11    1    3    3    0    0 -0.20243270668E+03  0.11655042383E+03  0.80176116592E+03  0.83509518572E+03  0.00000000000E+00 0. -1.
        -11    1    3    3    0    0 -0.73921898582E+02  0.53066802570E+02  0.57932600096E+03  0.58642915004E+03  0.00000000000E+00 0.  1.
         22    1    1    2    0    0  0.27635460526E+03 -0.16961722640E+03 -0.15552394186E+04  0.15886823221E+04  0.00000000000E+00 0. -1.
<mgrwt>
<rscale>  0 0.30051647E+04</rscale>
<asrwt>0</asrwt>
<pdfrwt beam="1">  1        2 0.21815803E+00 0.30051647E+04</pdfrwt>
<pdfrwt beam="2">  1       -2 0.24495068E+00 0.30051647E+04</pdfrwt>
<totfact> 0.83473914E-01</totfact>
</mgrwt>
</event>
<event>
 6    1  0.5040916E-004  0.1871696E+04  0.7818608E-02  0.8669075E-01
          2   -1    0    0  501    0  0.00000000000E+00  0.00000000000E+00  0.17676833098E+04  0.17676833098E+04  0.00000000000E+00 0.  1.
         -2   -1    0    0    0  501 -0.00000000000E+00 -0.00000000000E+00 -0.49545720865E+03  0.49545720865E+03  0.00000000000E+00 0. -1.
         23    2    1    2    0    0 -0.54038233703E+03 -0.21053233043E+03  0.15220136037E+04  0.16316892307E+04  0.97710814076E+02 0.  0.
         11    1    3    3    0    0 -0.30321467510E+03 -0.16907078624E+03  0.91898379655E+03  0.98237227581E+03  0.00000000000E+00 0. -1.
        -11    1    3    3    0    0 -0.23716766193E+03 -0.41461544192E+02  0.60302980718E+03  0.64931695485E+03  0.00000000000E+00 0.  1.
         22    1    1    2    0    0  0.54038233703E+03  0.21053233043E+03 -0.24978750262E+03  0.63145128774E+03  0.00000000000E+00 0. -1.
<mgrwt>
<rscale>  0 0.18716960E+04</rscale>
<asrwt>0</asrwt>
<pdfrwt beam="1">  1        2 0.27195128E+00 0.18716960E+04</pdfrwt>
<pdfrwt beam="2">  1       -2 0.76224187E-01 0.18716960E+04</pdfrwt>
<totfact> 0.13001530E+01</totfact>
</mgrwt>
</event>
<event>
 6    1  0.5040916E-004  0.1311332E+04  0.7818608E-02  0.9020627E-01
          2   -1    0    0  501    0  0.00000000000E+00  0.00000000000E+00  0.15523028951E+04  0.15523028951E+04  0.00000000000E+00 0.  1.
         -2   -1    0    0    0  501 -0.00000000000E+00 -0.00000000000E+00 -0.27694194020E+03  0.27694194020E+03  0.00000000000E+00 0. -1.
         23    2    1    2    0    0 -0.12414357956E+03  0.57940109451E+03  0.10220701619E+04  0.11848276703E+04  0.89843952863E+02 0.  0.
         11    1    3    3    0    0 -0.11290481250E+03  0.46351179711E+03  0.74973524193E+03  0.88864707041E+03  0.00000000000E+00 0.  1.
        -11    1    3    3    0    0 -0.11238767068E+02  0.11588929740E+03  0.27233491999E+03  0.29618059994E+03  0.00000000000E+00 0. -1.
         22    1    1    2    0    0  0.12414357956E+03 -0.57940109451E+03  0.25329079298E+03  0.64441716495E+03  0.00000000000E+00 0. -1.
<mgrwt>
<rscale>  0 0.13113318E+04</rscale>
<asrwt>0</asrwt>
<pdfrwt beam="1">  1        2 0.23881582E+00 0.13113318E+04</pdfrwt>
<pdfrwt beam="2">  1       -2 0.42606453E-01 0.13113318E+04</pdfrwt>
<totfact> 0.60642333E+01</totfact>
</mgrwt>
</event>
<event>
 6    1  0.5040916E-004  0.2532964E+04  0.7818608E-02  0.8391335E-01
          1   -1    0    0  501    0  0.00000000000E+00  0.00000000000E+00  0.33612125666E+04  0.33612125666E+04  0.00000000000E+00 0.  1.
         -1   -1    0    0    0  501 -0.00000000000E+00 -0.00000000000E+00 -0.47720174060E+03  0.47720174060E+03  0.00000000000E+00 0. -1.
         23    2    1    2    0    0  0.12330846017E+04  0.64862903118E+02  0.18609572351E+04  0.22348733875E+04  0.82415996020E+02 0.  0.
         13    1    3    3    0    0  0.11974695866E+04  0.57831214412E+02  0.18266013548E+04  0.21848913862E+04  0.00000000000E+00 0.  1.
        -13    1    3    3    0    0  0.35615015117E+02  0.70316887067E+01  0.34355880269E+02  0.49982001329E+02  0.00000000000E+00 0. -1.
         22    1    1    2    0    0 -0.12330846017E+04 -0.64862903118E+02  0.10230535910E+04  0.16035409197E+04  0.00000000000E+00 0.  1.
<mgrwt>
<rscale>  0 0.25329639E+04</rscale>
<asrwt>0</asrwt>
<pdfrwt beam="1">  1        1 0.51710961E+00 0.25329639E+04</pdfrwt>
<pdfrwt beam="2">  1       -1 0.73415655E-01 0.25329639E+04</pdfrwt>
<totfact> 0.53113201E-01</totfact>
</mgrwt>
</event>
<event>
 6    1  0.5040916E-004  0.1087983E+04  0.7818608E-02  0.9216984E-01
         -2   -1    0    0    0  501 -0.00000000000E+00  0.00000000000E+00  0.20765863895E+03  0.20765863895E+03  0.00000000000E+00 0. -1.
          2   -1    0    0  501    0  0.00000000000E+00 -0.00000000000E+00 -0.14250643428E+04  0.14250643428E+04  0.00000000000E+00 0.  1.
         23    2    1    2    0    0 -0.44330198299E+03  0.26403845302E+03 -0.37268178661E+03  0.64287882776E+03  0.90379866791E+02 0.  0.
         11    1    3    3    0    0 -0.26835403249E+03  0.15143849278E+03 -0.27513579945E+03  0.41309467678E+03  0.00000000000E+00 0.  1.
        -11    1    3    3    0    0 -0.17494795050E+03  0.11259996025E+03 -0.97545987160E+02  0.22978415098E+03  0.00000000000E+00 0. -1.
         22    1    1    2    0    0  0.44330198299E+03 -0.26403845302E+03 -0.84472391721E+03  0.98984415394E+03  0.00000000000E+00 0.  1.
<mgrwt>
<rscale>  0 0.10879833E+04</rscale>
<asrwt>0</asrwt>
<pdfrwt beam="1">  1        2 0.21924067E+00 0.10879833E+04</pdfrwt>
<pdfrwt beam="2">  1       -2 0.31947483E-01 0.10879833E+04</pdfrwt>
<totfact> 0.12663924E+02</totfact>
</mgrwt>
</event>
<event>
 6    1  0.5040916E-004  0.3260316E+04  0.7818608E-02  0.8173067E-01
         -2   -1    0    0    0  501 -0.00000000000E+00  0.00000000000E+00  0.20777572664E+04  0.20777572664E+04  0.00000000000E+00 0. -1.
          2   -1    0    0  501    0  0.00000000000E+00 -0.00000000000E+00 -0.12789823904E+04  0.12789823904E+04  0.00000000000E+00 0.  1.
         23    2    1    2    0    0  0.15653753254E+04  0.77139214523E+02 -0.57185688333E+02  0.15709572357E+04  0.91027828745E+02 0.  0.
         11    1    3    3    0    0  0.78119104820E+03  0.54628102130E+02 -0.71161828035E+02  0.78632543460E+03  0.00000000000E+00 0.  1.
        -11    1    3    3    0    0  0.78418427723E+03  0.22511112393E+02  0.13976139703E+02  0.78463180111E+03  0.00000000000E+00 0. -1.
         22    1    1    2    0    0 -0.15653753254E+04 -0.77139214523E+02  0.85596056435E+03  0.17857824211E+04  0.00000000000E+00 0. -1.
<mgrwt>
<rscale>  0 0.32603159E+04</rscale>
<asrwt>0</asrwt>
<pdfrwt beam="1">  1        2 0.19676652E+00 0.32603159E+04</pdfrwt>
<pdfrwt beam="2">  1       -2 0.31965496E+00 0.32603159E+04</pdfrwt>
<totfact> 0.34280571E-01</totfact>
</mgrwt>
</event>
<event>
 6    1  0.5040916E-004  0.3179597E+04  0.7818608E-02  0.8194226E-01
          2   -1    0    0  501    0  0.00000000000E+00  0.00000000000E+00  0.37702029373E+04  0.37702029373E+04  0.00000000000E+00 0.  1.
         -2   -1    0    0    0  501 -0.00000000000E+00 -0.00000000000E+00 -0.67037761236E+03  0.67037761236E+03  0.00000000000E+00 0. -1.
         23    2    1    2    0    0 -0.33783879878E+03  0.14935524785E+04  0.96088793072E+03  0.18100126953E+04  0.89477826986E+02 0.  0.
         13    1    3    3    0    0 -0.17842763227E+03  0.61806651400E+03  0.37606544963E+03  0.74516297418E+03  0.00000000000E+00 0. -1.
        -13    1    3    3    0    0 -0.15941116651E+03  0.87548596454E+03  0.58482248109E+03  0.10648497211E+04  0.00000000000E+00 0.  1.
         22    1    1    2    0    0  0.33783879878E+03 -0.14935524785E+04  0.21389373943E+04  0.26305678544E+04  0.00000000000E+00 0.  1.
<mgrwt>
<rscale>  0 0.31795972E+04</rscale>
<asrwt>0</asrwt>
<pdfrwt beam="1">  1        2 0.58003121E+00 0.31795972E+04</pdfrwt>
<pdfrwt beam="2">  1       -2 0.10313502E+00 0.31795972E+04</pdfrwt>
<totfact> 0.33436250E-01</totfact>
</mgrwt>
</event>
<event>
 6    1  0.5040916E-004  0.1039160E+04  0.7818608E-02  0.9266608E-01
         -2   -1    0    0    0  501 -0.00000000000E+00  0.00000000000E+00  0.72400790761E+03  0.72400790761E+03  0.00000000000E+00 0. -1.
          2   -1    0    0  501    0  0.00000000000E+00 -0.00000000000E+00 -0.37287327495E+03  0.37287327495E+03  0.00000000000E+00 0.  1.
         23    2    1    2    0    0 -0.25830071859E+03 -0.28536105900E+03  0.53942977411E+03  0.66838934424E+03  0.87233245266E+02 0.  0.
         11    1    3    3    0    0 -0.10341997914E+03 -0.16404400776E+03  0.22033332178E+03  0.29351814468E+03  0.00000000000E+00 0. -1.
        -11    1    3    3    0    0 -0.15488073946E+03 -0.12131705125E+03  0.31909645232E+03  0.37487119956E+03  0.00000000000E+00 0.  1.
         22    1    1    2    0    0  0.25830071859E+03  0.28536105900E+03 -0.18829514144E+03  0.42849183832E+03  0.00000000000E+00 0.  1.
<mgrwt>
<rscale>  0 0.10391597E+04</rscale>
<asrwt>0</asrwt>
<pdfrwt beam="1">  1        2 0.57365119E-01 0.10391597E+04</pdfrwt>
<pdfrwt beam="2">  1       -2 0.11138583E+00 0.10391597E+04</pdfrwt>
<totfact> 0.54647457E+01</totfact>
</mgrwt>
</event>
<event>
 6    1  0.5040916E-004  0.3288283E+04  0.7818608E-02  0.8165883E-01
          2   -1    0    0  501    0  0.00000000000E+00  0.00000000000E+00  0.38868103768E+04  0.38868103768E+04  0.00000000000E+00 0.  1.
         -2   -1    0    0    0  501 -0.00000000000E+00 -0.00000000000E+00 -0.69548055500E+03  0.69548055500E+03  0.00000000000E+00 0. -1.
         23    2    1    2    0    0  0.10047685837E+04  0.39289992716E+03 -0.12924349279E+03  0.10908532054E+04  0.96574198833E+02 0.  0.
         11    1    3    3    0    0  0.64450455576E+03  0.25950596283E+03 -0.12913638936E+03  0.70668640442E+03  0.00000000000E+00 0.  1.
        -11    1    3    3    0    0  0.36026402792E+03  0.13339396433E+03 -0.10710342543E+00  0.38416680102E+03  0.00000000000E+00 0. -1.
         22    1    1    2    0    0 -0.10047685837E+04 -0.39289992716E+03  0.33205733146E+04  0.34914377264E+04  0.00000000000E+00 0.  1.
<mgrwt>
<rscale>  0 0.32882829E+04</rscale>
<asrwt>0</asrwt>
<pdfrwt beam="1">  1        2 0.59797081E+00 0.32882829E+04</pdfrwt>
<pdfrwt beam="2">  1       -2 0.10699701E+00 0.32882829E+04</pdfrwt>
<totfact> 0.24675764E-01</totfact>
</mgrwt>
</event>
<event>
 6    1  0.9819736E-004  0.3164469E+04  0.7818608E-02  0.8198264E-01
          1   -1    0    0  501    0  0.00000000000E+00  0.00000000000E+00  0.15788968042E+04  0.15788968042E+04  0.00000000000E+00 0.  1.
         -1   -1    0    0    0  501 -0.00000000000E+00 -0.00000000000E+00 -0.15855796147E+04  0.15855796147E+04  0.00000000000E+00 0. -1.
         23    2    1    2    0    0 -0.23426554149E+03  0.59598660271E+03  0.14420484354E+04  0.15805248423E+04  0.92058202760E+02 0.  0.
         13    1    3    3    0    0 -0.13255336001E+03  0.38583636881E+03  0.81467475532E+03  0.91111747525E+03  0.00000000000E+00 0. -1.
        -13    1    3    3    0    0 -0.10171218148E+03  0.21015023390E+03  0.62737368004E+03  0.66940736706E+03  0.00000000000E+00 0.  1.
         22    1    1    2    0    0  0.23426554149E+03 -0.59598660271E+03 -0.14487312459E+04  0.15839515767E+04  0.00000000000E+00 0. -1.
<mgrwt>
<rscale>  0 0.31644694E+04</rscale>
<asrwt>0</asrwt>
<pdfrwt beam="1">  1        1 0.24290720E+00 0.31644694E+04</pdfrwt>
<pdfrwt beam="2">  1       -1 0.24393532E+00 0.31644694E+04</pdfrwt>
<totfact> 0.36989499E-01</totfact>
</mgrwt>
</event>
<event>
 6    1  0.5040916E-004  0.4722443E+04  0.7818608E-02  0.7872810E-01
          2   -1    0    0  501    0  0.00000000000E+00  0.00000000000E+00  0.30838803561E+04  0.30838803561E+04  0.00000000000E+00 0.  1.
         -2   -1    0    0    0  501 -0.00000000000E+00 -0.00000000000E+00 -0.18079067331E+04  0.18079067331E+04  0.00000000000E+00 0. -1.
         23    2    1    2    0    0 -0.52389819723E+03  0.70491577321E+03  0.29076354293E+04  0.30387636628E+04  0.91461684393E+02 0.  0.
         11    1    3    3    0    0 -0.48461387933E+03  0.63538505448E+03  0.25480333950E+04  0.26704005245E+04  0.00000000000E+00 0. -1.
        -11    1    3    3    0    0 -0.39284317901E+02  0.69530718725E+02  0.35960203438E+03  0.36836313823E+03  0.00000000000E+00 0.  1.
         22    1    1    2    0    0  0.52389819723E+03 -0.70491577321E+03 -0.16316618064E+04  0.18530234264E+04  0.00000000000E+00 0. -1.
<mgrwt>
<rscale>  0 0.47224435E+04</rscale>
<asrwt>0</asrwt>
<pdfrwt beam="1">  1        2 0.47444313E+00 0.47224435E+04</pdfrwt>
<pdfrwt beam="2">  1       -2 0.27813950E+00 0.47224435E+04</pdfrwt>
<totfact> 0.49540302E-02</totfact>
</mgrwt>
</event>
<event>
 6    1  0.5040916E-004  0.2587798E+04  0.7818608E-02  0.8372358E-01
          2   -1    0    0  501    0  0.00000000000E+00  0.00000000000E+00  0.67359115820E+03  0.67359115820E+03  0.00000000000E+00 0.  1.
         -2   -1    0    0    0  501 -0.00000000000E+00 -0.00000000000E+00 -0.24854456787E+04  0.24854456787E+04  0.00000000000E+00 0. -1.
         23    2    1    2    0    0 -0.13548222546E+03 -0.12841009236E+04 -0.83591029529E+03  0.15404764438E+04  0.83970452314E+02 0.  0.
         11    1    3    3    0    0 -0.76858215961E+02 -0.36782116719E+03 -0.23746096536E+03  0.44450793746E+03  0.00000000000E+00 0.  1.
        -11    1    3    3    0    0 -0.58624009497E+02 -0.91627975639E+03 -0.59844932994E+03  0.10959685064E+04  0.00000000000E+00 0. -1.
         22    1    1    2    0    0  0.13548222546E+03  0.12841009236E+04 -0.97594422525E+03  0.16185603931E+04  0.00000000000E+00 0.  1.
<mgrwt>
<rscale>  0 0.25877977E+04</rscale>
<asrwt>0</asrwt>
<pdfrwt beam="1">  1        2 0.10362941E+00 0.25877977E+04</pdfrwt>
<pdfrwt beam="2">  1       -2 0.38237625E+00 0.25877977E+04</pdfrwt>
<totfact> 0.36812150E-01</totfact>
</mgrwt>
</event>
<event>
 6    1  0.5040916E-004  0.5550484E+03  0.7818608E-02  0.1000332E+00
         -2   -1    0    0    0  501 -0.00000000000E+00  0.00000000000E+00  0.28543975967E+02  0.28543975967E+02  0.00000000000E+00 0. -1.
          2   -1    0    0  501    0  0.00000000000E+00 -0.00000000000E+00 -0.26982814966E+04  0.26982814966E+04  0.00000000000E+00 0.  1.
         23    2    1    2    0    0  0.23630884870E+03 -0.12947685296E+03 -0.14159741735E+04  0.14444337001E+04  0.93806857898E+02 0.  0.
         11    1    3    3    0    0  0.83412735193E+02 -0.84831993835E+01 -0.29736717118E+03  0.30896097417E+03  0.00000000000E+00 0. -1.
        -11    1    3    3    0    0  0.15289611351E+03 -0.12099365358E+03 -0.11186070023E+04  0.11354727260E+04  0.00000000000E+00 0.  1.
         22    1    1    2    0    0 -0.23630884870E+03  0.12947685296E+03 -0.12537633471E+04  0.12823917724E+04  0.00000000000E+00 0.  1.
<mgrwt>
<rscale>  0 0.55504840E+03</rscale>
<asrwt>0</asrwt>
<pdfrwt beam="1">  1        2 0.41512005E+00 0.55504840E+03</pdfrwt>
<pdfrwt beam="2">  1       -2 0.43913828E-02 0.55504840E+03</pdfrwt>
<totfact> 0.71451949E+02</totfact>
</mgrwt>
</event>
<event>
 6    1  0.5040916E-004  0.2964845E+04  0.7818608E-02  0.8253841E-01
         -2   -1    0    0    0  501 -0.00000000000E+00  0.00000000000E+00  0.80448244775E+03  0.80448244775E+03  0.00000000000E+00 0. -1.
          2   -1    0    0  501    0  0.00000000000E+00 -0.00000000000E+00 -0.27316656362E+04  0.27316656362E+04  0.00000000000E+00 0.  1.
         23    2    1    2    0    0 -0.75276806349E+02 -0.14254936209E+04 -0.49414071964E+03  0.15134495453E+04  0.93036631270E+02 0.  0.
         11    1    3    3    0    0 -0.67505958148E+02 -0.85258403914E+03 -0.25375376756E+03  0.89210289358E+03  0.00000000000E+00 0.  1.
        -11    1    3    3    0    0 -0.77708482011E+01 -0.57290958172E+03 -0.24038695207E+03  0.62134665174E+03  0.00000000000E+00 0. -1.
         22    1    1    2    0    0  0.75276806349E+02  0.14254936209E+04 -0.14330424688E+04  0.20226985386E+04  0.00000000000E+00 0.  1.
<mgrwt>
<rscale>  0 0.29648454E+04</rscale>
<asrwt>0</asrwt>
<pdfrwt beam="1">  1        2 0.42025625E+00 0.29648454E+04</pdfrwt>
<pdfrwt beam="2">  1       -2 0.12376653E+00 0.29648454E+04</pdfrwt>
<totfact> 0.10724278E+00</totfact>
</mgrwt>
</event>
<event>
 6    1  0.5040916E-004  0.2969425E+04  0.7818608E-02  0.8252516E-01
          2   -1    0    0  501    0  0.00000000000E+00  0.00000000000E+00  0.11943634378E+04  0.11943634378E+04  0.00000000000E+00 0.  1.
         -2   -1    0    0    0  501 -0.00000000000E+00 -0.00000000000E+00 -0.18456450438E+04  0.18456450438E+04  0.00000000000E+00 0. -1.
         23    2    1    2    0    0  0.94619618238E+03  0.99137495957E+03  0.25503668203E+03  0.13969855465E+04  0.91724489791E+02 0.  0.
         11    1    3    3    0    0  0.76350796183E+03  0.81573101988E+03  0.24208705684E+03  0.11432268575E+04  0.00000000000E+00 0. -1.
        -11    1    3    3    0    0  0.18268822055E+03  0.17564393970E+03  0.12949625188E+02  0.25375868906E+03  0.00000000000E+00 0.  1.
         22    1    1    2    0    0 -0.94619618238E+03 -0.99137495957E+03 -0.90631828802E+03  0.16430229351E+04  0.00000000000E+00 0. -1.
<mgrwt>
<rscale>  0 0.29694248E+04</rscale>
<asrwt>0</asrwt>
<pdfrwt beam="1">  1        2 0.18374822E+00 0.29694248E+04</pdfrwt>
<pdfrwt beam="2">  1       -2 0.28394539E+00 0.29694248E+04</pdfrwt>
<totfact> 0.65263790E-01</totfact>
</mgrwt>
</event>
<event>
 6    1  0.5040916E-004  0.9248402E+03  0.7818608E-02  0.9395052E-01
         -2   -1    0    0    0  501 -0.00000000000E+00  0.00000000000E+00  0.72463394305E+02  0.72463394305E+02  0.00000000000E+00 0.  1.
          2   -1    0    0  501    0  0.00000000000E+00 -0.00000000000E+00 -0.29509018732E+04  0.29509018732E+04  0.00000000000E+00 0. -1.
         23    2    1    2    0    0 -0.17512777181E+03  0.16442414252E+03 -0.27277092477E+04  0.27397734196E+04  0.90860416570E+02 0.  0.
         11    1    3    3    0    0 -0.50456854031E+02  0.79775597641E+00 -0.46363321933E+03  0.46637141057E+03  0.00000000000E+00 0.  1.
        -11    1    3    3    0    0 -0.12467091778E+03  0.16362638655E+03 -0.22640760284E+04  0.22734020090E+04  0.00000000000E+00 0. -1.
         22    1    1    2    0    0  0.17512777181E+03 -0.16442414252E+03 -0.15072923121E+03  0.28359184798E+03  0.00000000000E+00 0.  1.
<mgrwt>
<rscale>  0 0.92484024E+03</rscale>
<asrwt>0</asrwt>
<pdfrwt beam="1">  1        2 0.45398493E+00 0.92484024E+03</pdfrwt>
<pdfrwt beam="2">  1       -2 0.11148214E-01 0.92484024E+03</pdfrwt>
<totfact> 0.11089606E+02</totfact>
</mgrwt>
</event>
<event>
 6    1  0.5040916E-004  0.3885337E+04  0.7818608E-02  0.8028086E-01
         -2   -1    0    0    0  501 -0.00000000000E+00  0.00000000000E+00  0.13035431179E+04  0.13035431179E+04  0.00000000000E+00 0. -1.
          2   -1    0    0  501    0  0.00000000000E+00 -0.00000000000E+00 -0.28951567724E+04  0.28951567724E+04  0.00000000000E+00 0.  1.
         23    2    1    2    0    0  0.14664749728E+04  0.10159510059E+04 -0.16242716092E+04  0.24143871840E+04  0.91114879927E+02 0.  0.
         13    1    3    3    0    0  0.10073671061E+04  0.74523338616E+03 -0.11596326814E+04  0.17073105289E+04  0.00000000000E+00 0. -1.
        -13    1    3    3    0    0  0.45910786668E+03  0.27071761974E+03 -0.46463892778E+03  0.70707665503E+03  0.00000000000E+00 0.  1.
         22    1    1    2    0    0 -0.14664749728E+04 -0.10159510059E+04  0.32657954687E+02  0.17843127064E+04  0.00000000000E+00 0. -1.
<mgrwt>
<rscale>  0 0.38853374E+04</rscale>
<asrwt>0</asrwt>
<pdfrwt beam="1">  1        2 0.44540873E+00 0.38853374E+04</pdfrwt>
<pdfrwt beam="2">  1       -2 0.20054509E+00 0.38853374E+04</pdfrwt>
<totfact> 0.21236882E-01</totfact>
</mgrwt>
</event>
<event>
 6    1  0.5040916E-004  0.4119898E+04  0.7818608E-02  0.7980787E-01
         -2   -1    0    0    0  501 -0.00000000000E+00  0.00000000000E+00  0.18603930010E+04  0.18603930010E+04  0.00000000000E+00 0. -1.
          2   -1    0    0  501    0  0.00000000000E+00 -0.00000000000E+00 -0.22809106208E+04  0.22809106208E+04  0.00000000000E+00 0.  1.
         23    2    1    2    0    0  0.16143891844E+04  0.10083473437E+04 -0.99939672567E+03  0.21518017185E+04  0.91869559258E+02 0.  0.
         13    1    3    3    0    0  0.10451489033E+04  0.64838099658E+03 -0.69486393043E+03  0.14126464627E+04  0.00000000000E+00 0. -1.
        -13    1    3    3    0    0  0.56924028111E+03  0.35996634713E+03 -0.30453279524E+03  0.73915525574E+03  0.00000000000E+00 0.  1.
         22    1    1    2    0    0 -0.16143891844E+04 -0.10083473437E+04  0.57887910591E+03  0.19895019034E+04  0.00000000000E+00 0. -1.
<mgrwt>
<rscale>  0 0.41198981E+04</rscale>
<asrwt>0</asrwt>
<pdfrwt beam="1">  1        2 0.35090933E+00 0.41198981E+04</pdfrwt>
<pdfrwt beam="2">  1       -2 0.28621431E+00 0.41198981E+04</pdfrwt>
<totfact> 0.14015113E-01</totfact>
</mgrwt>
</event>
<event>
 6    1  0.5040916E-004  0.1986150E+04  0.7818608E-02  0.8613123E-01
          2   -1    0    0  501    0  0.00000000000E+00  0.00000000000E+00  0.12007228780E+04  0.12007228780E+04  0.00000000000E+00 0.  1.
         -2   -1    0    0    0  501 -0.00000000000E+00 -0.00000000000E+00 -0.82133682750E+03  0.82133682750E+03  0.00000000000E+00 0. -1.
         23    2    1    2    0    0  0.18032473955E+03 -0.21788703146E+03 -0.77695608771E+03  0.83163166872E+03  0.89211546464E+02 0.  0.
         11    1    3    3    0    0  0.85093988584E+02 -0.38668693476E+02 -0.25734412782E+03  0.27379235722E+03  0.00000000000E+00 0. -1.
        -11    1    3    3    0    0  0.95230750968E+02 -0.17921833798E+03 -0.51961195989E+03  0.55783931150E+03  0.00000000000E+00 0.  1.
         22    1    1    2    0    0 -0.18032473955E+03  0.21788703146E+03  0.11563421382E+04  0.11904280367E+04  0.00000000000E+00 0.  1.
<mgrwt>
<rscale>  0 0.19861500E+04</rscale>
<asrwt>0</asrwt>
<pdfrwt beam="1">  1        2 0.18472660E+00 0.19861500E+04</pdfrwt>
<pdfrwt beam="2">  1       -2 0.12635951E+00 0.19861500E+04</pdfrwt>
<totfact> 0.82132699E+00</totfact>
</mgrwt>
</event>
<event>
 6    1  0.5040916E-004  0.2812148E+04  0.7818608E-02  0.8299507E-01
          2   -1    0    0  501    0  0.00000000000E+00  0.00000000000E+00  0.30287383315E+04  0.30287383315E+04  0.00000000000E+00 0.  1.
         -2   -1    0    0    0  501 -0.00000000000E+00 -0.00000000000E+00 -0.65276159169E+03  0.65276159169E+03  0.00000000000E+00 0. -1.
         23    2    1    2    0    0  0.12376610156E+04  0.60953515777E+03  0.84402015343E+03  0.16198915994E+04  0.91328399182E+02 0.  0.
         13    1    3    3    0    0  0.35816157844E+03  0.13881034663E+03  0.26205762731E+03  0.46499702003E+03  0.00000000000E+00 0. -1.
        -13    1    3    3    0    0  0.87949943713E+03  0.47072481114E+03  0.58196252612E+03  0.11548945794E+04  0.00000000000E+00 0.  1.
         22    1    1    2    0    0 -0.12376610156E+04 -0.60953515777E+03  0.15319565864E+04  0.20616083238E+04  0.00000000000E+00 0.  1.
<mgrwt>
<rscale>  0 0.28121480E+04</rscale>
<asrwt>0</asrwt>
<pdfrwt beam="1">  1        2 0.46595974E+00 0.28121480E+04</pdfrwt>
<pdfrwt beam="2">  1       -2 0.10042486E+00 0.28121480E+04</pdfrwt>
<totfact> 0.11867233E+00</totfact>
</mgrwt>
</event>
<event>
 6    1  0.5040916E-004  0.3125702E+04  0.7818608E-02  0.8208720E-01
         -2   -1    0    0    0  501 -0.00000000000E+00  0.00000000000E+00  0.86869044021E+03  0.86869044021E+03  0.00000000000E+00 0. -1.
          2   -1    0    0  501    0  0.00000000000E+00 -0.00000000000E+00 -0.28117065528E+04  0.28117065528E+04  0.00000000000E+00 0.  1.
         23    2    1    2    0    0  0.15043044003E+04  0.40736009257E+03 -0.10870523447E+04  0.19023227691E+04  0.90967818845E+02 0.  0.
         13    1    3    3    0    0  0.12117095253E+04  0.30169464894E+03 -0.90123523822E+03  0.15399625286E+04  0.00000000000E+00 0. -1.
        -13    1    3    3    0    0  0.29259487501E+03  0.10566544363E+03 -0.18581710647E+03  0.36236024053E+03  0.00000000000E+00 0.  1.
         22    1    1    2    0    0 -0.15043044003E+04 -0.40736009257E+03 -0.85596376786E+03  0.17780742239E+04  0.00000000000E+00 0. -1.
<mgrwt>
<rscale>  0 0.31257016E+04</rscale>
<asrwt>0</asrwt>
<pdfrwt beam="1">  1        2 0.43257023E+00 0.31257016E+04</pdfrwt>
<pdfrwt beam="2">  1       -2 0.13364468E+00 0.31257016E+04</pdfrwt>
<totfact> 0.77985284E-01</totfact>
</mgrwt>
</event>
<event>
 6    1  0.5040916E-004  0.2038351E+04  0.7818608E-02  0.8588897E-01
         -2   -1    0    0    0  501 -0.00000000000E+00  0.00000000000E+00  0.79841134747E+03  0.79841134747E+03  0.00000000000E+00 0. -1.
          2   -1    0    0  501    0  0.00000000000E+00 -0.00000000000E+00 -0.13009816574E+04  0.13009816574E+04  0.00000000000E+00 0.  1.
         23    2    1    2    0    0 -0.19540977655E+03 -0.19981474809E+03 -0.12591244129E+04  0.12928664863E+04  0.89434612594E+02 0.  0.
         13    1    3    3    0    0 -0.74285820609E+02 -0.13390642588E+03 -0.74468346181E+03  0.76026493561E+03  0.00000000000E+00 0. -1.
        -13    1    3    3    0    0 -0.12112395594E+03 -0.65908322213E+02 -0.51444095112E+03  0.53260155072E+03  0.00000000000E+00 0.  1.
         22    1    1    2    0    0  0.19540977655E+03  0.19981474809E+03  0.75655410300E+03  0.80652651853E+03  0.00000000000E+00 0. -1.
<mgrwt>
<rscale>  0 0.20383508E+04</rscale>
<asrwt>0</asrwt>
<pdfrwt beam="1">  1        2 0.20015102E+00 0.20383508E+04</pdfrwt>
<pdfrwt beam="2">  1       -2 0.12283252E+00 0.20383508E+04</pdfrwt>
<totfact> 0.76617116E+00</totfact>
</mgrwt>
</event>
<event>
 6    1  0.5040916E-004  0.1917520E+04  0.7818608E-02  0.8646185E-01
         -2   -1    0    0    0  501 -0.00000000000E+00  0.00000000000E+00  0.31274341412E+03  0.31274341412E+03  0.00000000000E+00 0. -1.
          2   -1    0    0  501    0  0.00000000000E+00 -0.00000000000E+00 -0.29392160519E+04  0.29392160519E+04  0.00000000000E+00 0.  1.
         23    2    1    2    0    0  0.33425614098E+03  0.78647793060E+03 -0.58540189667E+03  0.10392135535E+04  0.83634479147E+02 0.  0.
         11    1    3    3    0    0  0.88695237401E+02  0.26277185278E+03 -0.23028929087E+03  0.36048446463E+03  0.00000000000E+00 0. -1.
        -11    1    3    3    0    0  0.24556090358E+03  0.52370607782E+03 -0.35511260579E+03  0.67872908889E+03  0.00000000000E+00 0.  1.
         22    1    1    2    0    0 -0.33425614098E+03 -0.78647793060E+03 -0.20410707411E+04  0.22127459125E+04  0.00000000000E+00 0.  1.
<mgrwt>
<rscale>  0 0.19175197E+04</rscale>
<asrwt>0</asrwt>
<pdfrwt beam="1">  1        2 0.45218709E+00 0.19175197E+04</pdfrwt>
<pdfrwt beam="2">  1       -2 0.48114371E-01 0.19175197E+04</pdfrwt>
<totfact> 0.72908501E+00</totfact>
</mgrwt>
</event>
<event>
 6    1  0.5040916E-004  0.1532482E+04  0.7818608E-02  0.8863136E-01
          2   -1    0    0  501    0  0.00000000000E+00  0.00000000000E+00  0.31932020035E+04  0.31932020035E+04  0.00000000000E+00 0.  1.
         -2   -1    0    0    0  501 -0.00000000000E+00 -0.00000000000E+00 -0.18386719895E+03  0.18386719895E+03  0.00000000000E+00 0. -1.
         23    2    1    2    0    0 -0.19406277065E+03 -0.67953190832E+03  0.21464891191E+04  0.22617546055E+04  0.93243677710E+02 0.  0.
         11    1    3    3    0    0 -0.95580461896E+02 -0.18156977113E+03  0.62674405825E+03  0.65947806714E+03  0.00000000000E+00 0. -1.
        -11    1    3    3    0    0 -0.98482308758E+02 -0.49796213719E+03  0.15197450609E+04  0.16022765383E+04  0.00000000000E+00 0.  1.
         22    1    1    2    0    0  0.19406277065E+03  0.67953190832E+03  0.86284568539E+03  0.11153145969E+04  0.00000000000E+00 0. -1.
<mgrwt>
<rscale>  0 0.15324818E+04</rscale>
<asrwt>0</asrwt>
<pdfrwt beam="1">  1        2 0.49126181E+00 0.15324818E+04</pdfrwt>
<pdfrwt beam="2">  1       -2 0.28287264E-01 0.15324818E+04</pdfrwt>
<totfact> 0.14575926E+01</totfact>
</mgrwt>
</event>
<event>
 6    1  0.5040916E-004  0.9802249E+03  0.7818608E-02  0.9330504E-01
          2   -1    0    0  501    0  0.00000000000E+00  0.00000000000E+00  0.30586947717E+04  0.30586947717E+04  0.00000000000E+00 0. -1.
         -2   -1    0    0    0  501 -0.00000000000E+00 -0.00000000000E+00 -0.78533569760E+02  0.78533569760E+02  0.00000000000E+00 0.  1.
         23    2    1    2    0    0 -0.29542947087E+02  0.12793260823E+03  0.30001843973E+04  0.30044109242E+04  0.90216657590E+02 0.  0.
         13    1    3    3    0    0 -0.29050759268E+02  0.77858579150E+02  0.25664930560E+04  0.25678381007E+04  0.00000000000E+00 0. -1.
        -13    1    3    3    0    0 -0.49218781873E+00  0.50074029083E+02  0.43369134129E+03  0.43657282341E+03  0.00000000000E+00 0.  1.
         22    1    1    2    0    0  0.29542947087E+02 -0.12793260823E+03 -0.20023195424E+02  0.13281741726E+03  0.00000000000E+00 0.  1.
<mgrwt>
<rscale>  0 0.98022491E+03</rscale>
<asrwt>0</asrwt>
<pdfrwt beam="1">  1        2 0.47056833E+00 0.98022491E+03</pdfrwt>
<pdfrwt beam="2">  1       -2 0.12082090E-01 0.98022491E+03</pdfrwt>
<totfact> 0.82827628E+01</totfact>
</mgrwt>
</event>
<event>
 6    1  0.5040916E-004  0.2892862E+04  0.7818608E-02  0.8275005E-01
         -2   -1    0    0    0  501 -0.00000000000E+00  0.00000000000E+00  0.14170324667E+04  0.14170324667E+04  0.00000000000E+00 0. -1.
          2   -1    0    0  501    0  0.00000000000E+00 -0.00000000000E+00 -0.14764390516E+04  0.14764390516E+04  0.00000000000E+00 0.  1.
         23    2    1    2    0    0  0.26094905668E+02 -0.76508164097E+03 -0.12555637941E+04  0.14733226069E+04  0.90599124981E+02 0.  0.
         13    1    3    3    0    0  0.41108238754E+02 -0.15300949301E+03 -0.27105527814E+03  0.31396298516E+03  0.00000000000E+00 0. -1.
        -13    1    3    3    0    0 -0.15013333086E+02 -0.61207214796E+03 -0.98450851596E+03  0.11593596217E+04  0.00000000000E+00 0.  1.
         22    1    1    2    0    0 -0.26094905668E+02  0.76508164097E+03  0.11961572092E+04  0.14201489114E+04  0.00000000000E+00 0.  1.
<mgrwt>
<rscale>  0 0.28928616E+04</rscale>
<asrwt>0</asrwt>
<pdfrwt beam="1">  1        2 0.22714447E+00 0.28928616E+04</pdfrwt>
<pdfrwt beam="2">  1       -2 0.21800500E+00 0.28928616E+04</pdfrwt>
<totfact> 0.11503672E+00</totfact>
</mgrwt>
</event>
<event>
 6    1  0.5040916E-004  0.3541595E+04  0.7818608E-02  0.8104003E-01
          2   -1    0    0  501    0  0.00000000000E+00  0.00000000000E+00  0.17398717887E+04  0.17398717887E+04  0.00000000000E+00 0.  1.
         -2   -1    0    0    0  501 -0.00000000000E+00 -0.00000000000E+00 -0.18022732141E+04  0.18022732141E+04  0.00000000000E+00 0. -1.
         23    2    1    2    0    0 -0.64029421889E+03 -0.13145249278E+04 -0.10281564477E+04  0.17898221913E+04  0.91680548362E+02 0.  0.
         13    1    3    3    0    0 -0.18930580673E+03 -0.35204305598E+03 -0.23582159164E+03  0.46409355179E+03  0.00000000000E+00 0.  1.
        -13    1    3    3    0    0 -0.45098841216E+03 -0.96248187181E+03 -0.79233485606E+03  0.13257286395E+04  0.00000000000E+00 0. -1.
         22    1    1    2    0    0  0.64029421889E+03  0.13145249278E+04  0.96575502237E+03  0.17523228115E+04  0.00000000000E+00 0.  1.
<mgrwt>
<rscale>  0 0.35415953E+04</rscale>
<asrwt>0</asrwt>
<pdfrwt beam="1">  1        2 0.26767258E+00 0.35415953E+04</pdfrwt>
<pdfrwt beam="2">  1       -2 0.27727280E+00 0.35415953E+04</pdfrwt>
<totfact> 0.33392362E-01</totfact>
</mgrwt>
</event>
<event>
 6    1  0.5040916E-004  0.3958852E+04  0.7818608E-02  0.8012899E-01
          2   -1    0    0  501    0  0.00000000000E+00  0.00000000000E+00  0.27994086235E+04  0.27994086235E+04  0.00000000000E+00 0.  1.
         -2   -1    0    0    0  501 -0.00000000000E+00 -0.00000000000E+00 -0.13996265448E+04  0.13996265448E+04  0.00000000000E+00 0. -1.
         23    2    1    2    0    0 -0.90766479940E+03 -0.11680913107E+04 -0.69308462458E+03  0.16361493465E+04  0.91245214372E+02 0.  0.
         13    1    3    3    0    0 -0.58890278694E+03 -0.70264901206E+03 -0.46045812856E+03  0.10259355802E+04  0.00000000000E+00 0. -1.
        -13    1    3    3    0    0 -0.31876201246E+03 -0.46544229859E+03 -0.23262649602E+03  0.61021376628E+03  0.00000000000E+00 0.  1.
         22    1    1    2    0    0  0.90766479940E+03  0.11680913107E+04  0.20928667032E+04  0.25628858218E+04  0.00000000000E+00 0.  1.
<mgrwt>
<rscale>  0 0.39588517E+04</rscale>
<asrwt>0</asrwt>
<pdfrwt beam="1">  1        2 0.43067825E+00 0.39588517E+04</pdfrwt>
<pdfrwt beam="2">  1       -2 0.21532716E+00 0.39588517E+04</pdfrwt>
<totfact> 0.19382066E-01</totfact>
</mgrwt>
</event>
<event>
 6    1  0.5040916E-004  0.2002317E+04  0.7818608E-02  0.8605538E-01
         -2   -1    0    0    0  501 -0.00000000000E+00  0.00000000000E+00  0.14148607743E+04  0.14148607743E+04  0.00000000000E+00 0. -1.
          2   -1    0    0  501    0  0.00000000000E+00 -0.00000000000E+00 -0.70842197703E+03  0.70842197703E+03  0.00000000000E+00 0.  1.
         23    2    1    2    0    0  0.89477685419E+03 -0.21021070513E+03  0.76933773656E+03  0.12019953717E+04  0.89989784124E+02 0.  0.
         11    1    3    3    0    0  0.58142725058E+03 -0.10074408115E+03  0.52513711698E+03  0.78992152094E+03  0.00000000000E+00 0. -1.
        -11    1    3    3    0    0  0.31334960360E+03 -0.10946662398E+03  0.24420061958E+03  0.41207385072E+03  0.00000000000E+00 0.  1.
         22    1    1    2    0    0 -0.89477685419E+03  0.21021070513E+03 -0.62898939316E+02  0.92128737965E+03  0.00000000000E+00 0.  1.
<mgrwt>
<rscale>  0 0.20023171E+04</rscale>
<asrwt>0</asrwt>
<pdfrwt beam="1">  1        2 0.10898800E+00 0.20023171E+04</pdfrwt>
<pdfrwt beam="2">  1       -2 0.21767089E+00 0.20023171E+04</pdfrwt>
<totfact> 0.38311298E+00</totfact>
</mgrwt>
</event>
<event>
 6    1  0.5040916E-004  0.1381124E+04  0.7818608E-02  0.8967596E-01
         -2   -1    0    0    0  501 -0.00000000000E+00  0.00000000000E+00  0.13533447084E+04  0.13533447084E+04  0.00000000000E+00 0. -1.
          2   -1    0    0  501    0  0.00000000000E+00 -0.00000000000E+00 -0.35236838757E+03  0.35236838757E+03  0.00000000000E+00 0.  1.
         23    2    1    2    0    0 -0.36487564323E+01  0.38157692835E+03  0.12089977929E+04  0.12711015470E+04  0.91701765595E+02 0.  0.
         13    1    3    3    0    0  0.26386329857E+02  0.12110169518E+03  0.50123412147E+03  0.51633080821E+03  0.00000000000E+00 0.  1.
        -13    1    3    3    0    0 -0.30035086289E+02  0.26047523317E+03  0.70776367146E+03  0.75477073880E+03  0.00000000000E+00 0. -1.
         22    1    1    2    0    0  0.36487564323E+01 -0.38157692835E+03 -0.20802147207E+03  0.43461154899E+03  0.00000000000E+00 0.  1.
<mgrwt>
<rscale>  0 0.13811240E+04</rscale>
<asrwt>0</asrwt>
<pdfrwt beam="1">  1        2 0.54210522E-01 0.13811240E+04</pdfrwt>
<pdfrwt beam="2">  1       -2 0.20820688E+00 0.13811240E+04</pdfrwt>
<totfact> 0.10503788E+01</totfact>
</mgrwt>
</event>
<event>
 6    1  0.5040916E-004  0.1955474E+04  0.7818608E-02  0.8627726E-01
         -2   -1    0    0    0  501 -0.00000000000E+00  0.00000000000E+00  0.67040934853E+03  0.67040934853E+03  0.00000000000E+00 0. -1.
          2   -1    0    0  501    0  0.00000000000E+00 -0.00000000000E+00 -0.14259493185E+04  0.14259493185E+04  0.00000000000E+00 0.  1.
         23    2    1    2    0    0  0.93918081083E+03 -0.22083361370E+03 -0.53603333332E+03  0.11069086967E+04  0.84184606318E+02 0.  0.
         13    1    3    3    0    0  0.15393181132E+03 -0.49639321217E+02 -0.12366247291E+03  0.20359634563E+03  0.00000000000E+00 0.  1.
        -13    1    3    3    0    0  0.78524899951E+03 -0.17119429248E+03 -0.41237086041E+03  0.90331235103E+03  0.00000000000E+00 0. -1.
         22    1    1    2    0    0 -0.93918081083E+03  0.22083361370E+03 -0.21950663666E+03  0.98944997039E+03  0.00000000000E+00 0. -1.
<mgrwt>
<rscale>  0 0.19554741E+04</rscale>
<asrwt>0</asrwt>
<pdfrwt beam="1">  1        2 0.21937682E+00 0.19554741E+04</pdfrwt>
<pdfrwt beam="2">  1       -2 0.10313990E+00 0.19554741E+04</pdfrwt>
<totfact> 0.10006124E+01</totfact>
</mgrwt>
</event>
<event>
 6    1  0.5040916E-004  0.2412404E+04  0.7818608E-02  0.8434874E-01
         -2   -1    0    0    0  501 -0.00000000000E+00  0.00000000000E+00  0.92336739196E+03  0.92336739196E+03  0.00000000000E+00 0. -1.
          2   -1    0    0  501    0  0.00000000000E+00 -0.00000000000E+00 -0.15756714927E+04  0.15756714927E+04  0.00000000000E+00 0.  1.
         23    2    1    2    0    0  0.38404920829E+03  0.11393299131E+04 -0.39366979359E+03  0.12692185116E+04  0.10184929375E+03 0.  0.
         13    1    3    3    0    0  0.11212923009E+03  0.41706128478E+03 -0.98670056333E+02  0.44299984145E+03  0.00000000000E+00 0.  1.
        -13    1    3    3    0    0  0.27191997820E+03  0.72226862828E+03 -0.29499973726E+03  0.82621867016E+03  0.00000000000E+00 0. -1.
         22    1    1    2    0    0 -0.38404920829E+03 -0.11393299131E+04 -0.25863430715E+03  0.12298203731E+04  0.00000000000E+00 0.  1.
<mgrwt>
<rscale>  0 0.24124043E+04</rscale>
<asrwt>0</asrwt>
<pdfrwt beam="1">  1        2 0.24241100E+00 0.24124043E+04</pdfrwt>
<pdfrwt beam="2">  1       -2 0.14205652E+00 0.24124043E+04</pdfrwt>
<totfact> 0.35749497E+00</totfact>
</mgrwt>
</event>
<event>
 6    1  0.5040916E-004  0.1412625E+04  0.7818608E-02  0.8944730E-01
          2   -1    0    0  501    0  0.00000000000E+00  0.00000000000E+00  0.38025103773E+04  0.38025103773E+04  0.00000000000E+00 0.  1.
         -2   -1    0    0    0  501 -0.00000000000E+00 -0.00000000000E+00 -0.13119682395E+03  0.13119682395E+03  0.00000000000E+00 0. -1.
         23    2    1    2    0    0 -0.19384158539E+03 -0.67560366948E+03  0.19154932389E+04  0.20424325371E+04  0.91659380697E+02 0.  0.
         11    1    3    3    0    0 -0.28717878110E+02 -0.25987669985E+03  0.71644119515E+03  0.76265890262E+03  0.00000000000E+00 0. -1.
        -11    1    3    3    0    0 -0.16512370728E+03 -0.41572696963E+03  0.11990520438E+04  0.12797736345E+04  0.00000000000E+00 0.  1.
         22    1    1    2    0    0  0.19384158539E+03  0.67560366948E+03  0.17558203144E+04  0.18912746641E+04  0.00000000000E+00 0.  1.
<mgrwt>
<rscale>  0 0.14126249E+04</rscale>
<asrwt>0</asrwt>
<pdfrwt beam="1">  1        2 0.58500151E+00 0.14126249E+04</pdfrwt>
<pdfrwt beam="2">  1       -2 0.20184130E-01 0.14126249E+04</pdfrwt>
<totfact> 0.10233322E+01</totfact>
</mgrwt>
</event>
<event>
 6    1  0.5040916E-004  0.3665186E+04  0.7818608E-02  0.8075721E-01
          1   -1    0    0  501    0  0.00000000000E+00  0.00000000000E+00  0.27962877326E+04  0.27962877326E+04  0.00000000000E+00 0.  1.
         -1   -1    0    0    0  501 -0.00000000000E+00 -0.00000000000E+00 -0.12010198983E+04  0.12010198983E+04  0.00000000000E+00 0. -1.
         23    2    1    2    0    0  0.29650023696E+03 -0.13914475424E+04 -0.45969208202E+03  0.14979279256E+04  0.91829223184E+02 0.  0.
         11    1    3    3    0    0  0.20115903399E+03 -0.73080043347E+03 -0.23268633542E+03  0.79289164532E+03  0.00000000000E+00 0. -1.
        -11    1    3    3    0    0  0.95341202967E+02 -0.66064710892E+03 -0.22700574660E+03  0.70503628027E+03  0.00000000000E+00 0.  1.
         22    1    1    2    0    0 -0.29650023696E+03  0.13914475424E+04  0.20549599163E+04  0.24993797053E+04  0.00000000000E+00 0.  1.
<mgrwt>
<rscale>  0 0.36651861E+04</rscale>
<asrwt>0</asrwt>
<pdfrwt beam="1">  1        1 0.43019811E+00 0.36651861E+04</pdfrwt>
<pdfrwt beam="2">  1       -1 0.18477229E+00 0.36651861E+04</pdfrwt>
<totfact> 0.12975244E-01</totfact>
</mgrwt>
</event>
<event>
 6    1  0.5040916E-004  0.2457105E+04  0.7818608E-02  0.8418429E-01
          1   -1    0    0  501    0  0.00000000000E+00  0.00000000000E+00  0.82895150473E+03  0.82895150473E+03  0.00000000000E+00 0. -1.
         -1   -1    0    0    0  501 -0.00000000000E+00 -0.00000000000E+00 -0.18207832150E+04  0.18207832150E+04  0.00000000000E+00 0.  1.
         23    2    1    2    0    0 -0.40649066864E+03 -0.14894287806E+03 -0.17345083663E+04  0.17900910377E+04  0.92130373431E+02 0.  0.
         13    1    3    3    0    0 -0.98229236377E+02  0.34009700927E+01 -0.35216145772E+03  0.36562035198E+03  0.00000000000E+00 0.  1.
        -13    1    3    3    0    0 -0.30826143227E+03 -0.15234384815E+03 -0.13823469086E+04  0.14244706857E+04  0.00000000000E+00 0. -1.
         22    1    1    2    0    0  0.40649066864E+03  0.14894287806E+03  0.74267665606E+03  0.85964368204E+03  0.00000000000E+00 0. -1.
<mgrwt>
<rscale>  0 0.24571048E+04</rscale>
<asrwt>0</asrwt>
<pdfrwt beam="1">  1        1 0.12753100E+00 0.24571048E+04</pdfrwt>
<pdfrwt beam="2">  1       -1 0.28012050E+00 0.24571048E+04</pdfrwt>
<totfact> 0.82684419E-01</totfact>
</mgrwt>
</event>
<event>
 6    1  0.5040916E-004  0.2992848E+04  0.7818608E-02  0.8245776E-01
         -2   -1    0    0    0  501 -0.00000000000E+00  0.00000000000E+00  0.90795489974E+03  0.90795489974E+03  0.00000000000E+00 0. -1.
          2   -1    0    0  501    0  0.00000000000E+00 -0.00000000000E+00 -0.24662947550E+04  0.24662947550E+04  0.00000000000E+00 0.  1.
         23    2    1    2    0    0 -0.68209496947E+03  0.31618935696E+02  0.71962337837E+03  0.99614751264E+03  0.90546981075E+02 0.  0.
         13    1    3    3    0    0 -0.17270092396E+03  0.32358414545E+01  0.12838424960E+03  0.21521755354E+03  0.00000000000E+00 0. -1.
        -13    1    3    3    0    0 -0.50939404551E+03  0.28383094242E+02  0.59123912877E+03  0.78092995911E+03  0.00000000000E+00 0.  1.
         22    1    1    2    0    0  0.68209496947E+03 -0.31618935696E+02 -0.22779632336E+04  0.23781021421E+04  0.00000000000E+00 0.  1.
<mgrwt>
<rscale>  0 0.29928477E+04</rscale>
<asrwt>0</asrwt>
<pdfrwt beam="1">  1        2 0.37942995E+00 0.29928477E+04</pdfrwt>
<pdfrwt beam="2">  1       -2 0.13968537E+00 0.29928477E+04</pdfrwt>
<totfact> 0.11264637E+00</totfact>
</mgrwt>
</event>
<event>
 6    1  0.5040916E-004  0.1556705E+04  0.7818608E-02  0.8847596E-01
         -2   -1    0    0    0  501 -0.00000000000E+00  0.00000000000E+00  0.50325971013E+03  0.50325971013E+03  0.00000000000E+00 0. -1.
          2   -1    0    0  501    0  0.00000000000E+00 -0.00000000000E+00 -0.12038168754E+04  0.12038168754E+04  0.00000000000E+00 0.  1.
         23    2    1    2    0    0  0.46630989307E+03 -0.17964434282E+03 -0.10018771776E+04  0.11235435907E+04  0.94208889621E+02 0.  0.
         11    1    3    3    0    0  0.16512873794E+03 -0.44509720390E+02 -0.43713142222E+03  0.46939588366E+03  0.00000000000E+00 0. -1.
        -11    1    3    3    0    0  0.30118115513E+03 -0.13513462243E+03 -0.56474575537E+03  0.65414770702E+03  0.00000000000E+00 0.  1.
         22    1    1    2    0    0 -0.46630989307E+03  0.17964434282E+03  0.30132001231E+03  0.58353299487E+03  0.00000000000E+00 0. -1.
<mgrwt>
<rscale>  0 0.15567049E+04</rscale>
<asrwt>0</asrwt>
<pdfrwt beam="1">  1        2 0.18520260E+00 0.15567049E+04</pdfrwt>
<pdfrwt beam="2">  1       -2 0.77424571E-01 0.15567049E+04</pdfrwt>
<totfact> 0.26968757E+01</totfact>
</mgrwt>
</event>
<event>
 6    1  0.5040916E-004  0.1626234E+04  0.7818608E-02  0.8804592E-01
         -2   -1    0    0    0  501 -0.00000000000E+00  0.00000000000E+00  0.47812081396E+03  0.47812081396E+03  0.00000000000E+00 0. -1.
          2   -1    0    0  501    0  0.00000000000E+00 -0.00000000000E+00 -0.13828289453E+04  0.13828289453E+04  0.00000000000E+00 0.  1.
         23    2    1    2    0    0 -0.68721701630E+03  0.36365649142E+03 -0.71401803791E+03  0.10604024571E+04  0.10058996655E+03 0.  0.
         13    1    3    3    0    0 -0.54496886191E+03  0.28357055522E+03 -0.50540671031E+03  0.79551195030E+03  0.00000000000E+00 0. -1.
        -13    1    3    3    0    0 -0.14224815439E+03  0.80085936204E+02 -0.20861132760E+03  0.26489050683E+03  0.00000000000E+00 0.  1.
         22    1    1    2    0    0  0.68721701630E+03 -0.36365649142E+03 -0.19069009345E+03  0.80054730216E+03  0.00000000000E+00 0. -1.
<mgrwt>
<rscale>  0 0.16262341E+04</rscale>
<asrwt>0</asrwt>
<pdfrwt beam="1">  1        2 0.21274291E+00 0.16262341E+04</pdfrwt>
<pdfrwt beam="2">  1       -2 0.73557049E-01 0.16262341E+04</pdfrwt>
<totfact> 0.23615464E+01</totfact>
</mgrwt>
</event>
<event>
 6    1  0.5040916E-004  0.3659354E+04  0.7818608E-02  0.8077030E-01
          2   -1    0    0  501    0  0.00000000000E+00  0.00000000000E+00  0.45424702641E+04  0.45424702641E+04  0.00000000000E+00 0.  1.
         -2   -1    0    0    0  501 -0.00000000000E+00 -0.00000000000E+00 -0.73698188476E+03  0.73698188476E+03  0.00000000000E+00 0. -1.
         23    2    1    2    0    0  0.17335034443E+04 -0.44957514013E+03  0.13712505320E+04  0.22574220538E+04  0.92056012101E+02 0.  0.
         13    1    3    3    0    0  0.13908243826E+04 -0.32725431497E+03  0.10701026675E+04  0.17851071590E+04  0.00000000000E+00 0.  1.
        -13    1    3    3    0    0  0.34267906169E+03 -0.12232082517E+03  0.30114786454E+03  0.47231489485E+03  0.00000000000E+00 0. -1.
         22    1    1    2    0    0 -0.17335034443E+04  0.44957514013E+03  0.24342378473E+04  0.30220300950E+04  0.00000000000E+00 0. -1.
<mgrwt>
<rscale>  0 0.36593542E+04</rscale>
<asrwt>0</asrwt>
<pdfrwt beam="1">  1        2 0.69884157E+00 0.36593542E+04</pdfrwt>
<pdfrwt beam="2">  1       -2 0.11338183E+00 0.36593542E+04</pdfrwt>
<totfact> 0.54990352E-02</totfact>
</mgrwt>
</event>
<event>
 6    1  0.5040916E-004  0.1876289E+04  0.7818608E-02  0.8666750E-01
          2   -1    0    0  501    0  0.00000000000E+00  0.00000000000E+00  0.22626713541E+04  0.22626713541E+04  0.00000000000E+00 0.  1.
         -2   -1    0    0    0  501 -0.00000000000E+00 -0.00000000000E+00 -0.38897172435E+03  0.38897172435E+03  0.00000000000E+00 0. -1.
         23    2    1    2    0    0  0.25907865049E+03 -0.87188953923E+03  0.62705389024E+03  0.11084519964E+04  0.90311302667E+02 0.  0.
         11    1    3    3    0    0  0.22610876812E+03 -0.75811461036E+03  0.50606570930E+03  0.93913015051E+03  0.00000000000E+00 0.  1.
        -11    1    3    3    0    0  0.32969882369E+02 -0.11377492887E+03  0.12098818094E+03  0.16932184593E+03  0.00000000000E+00 0. -1.
         22    1    1    2    0    0 -0.25907865049E+03  0.87188953923E+03  0.12466457395E+04  0.15431910820E+04  0.00000000000E+00 0.  1.
<mgrwt>
<rscale>  0 0.18762891E+04</rscale>
<asrwt>0</asrwt>
<pdfrwt beam="1">  1        2 0.34810328E+00 0.18762891E+04</pdfrwt>
<pdfrwt beam="2">  1       -2 0.59841805E-01 0.18762891E+04</pdfrwt>
<totfact> 0.11635870E+01</totfact>
</mgrwt>
</event>
<event>
 6    1  0.5040916E-004  0.3271309E+04  0.7818608E-02  0.8170234E-01
         -1   -1    0    0    0  501 -0.00000000000E+00  0.00000000000E+00  0.16812416728E+04  0.16812416728E+04  0.00000000000E+00 0.  1.
          1   -1    0    0  501    0  0.00000000000E+00 -0.00000000000E+00 -0.15913038294E+04  0.15913038294E+04  0.00000000000E+00 0. -1.
         23    2    1    2    0    0  0.30864870591E+03  0.16132968815E+03  0.16424658295E+04  0.16814344314E+04  0.90754911361E+02 0.  0.
         13    1    3    3    0    0  0.22465234511E+03  0.88992271465E+02  0.95538609546E+03  0.98546988383E+03  0.00000000000E+00 0. -1.
        -13    1    3    3    0    0  0.83996360803E+02  0.72337416682E+02  0.68707973407E+03  0.69596454756E+03  0.00000000000E+00 0.  1.
         22    1    1    2    0    0 -0.30864870591E+03 -0.16132968815E+03 -0.15525279861E+04  0.15911110708E+04  0.00000000000E+00 0. -1.
<mgrwt>
<rscale>  0 0.32713094E+04</rscale>
<asrwt>0</asrwt>
<pdfrwt beam="1">  1        1 0.24481597E+00 0.32713094E+04</pdfrwt>
<pdfrwt beam="2">  1       -1 0.25865256E+00 0.32713094E+04</pdfrwt>
<totfact> 0.28805222E-01</totfact>
</mgrwt>
</event>
<event>
 6    1  0.5040916E-004  0.3550140E+04  0.7818608E-02  0.8102009E-01
          2   -1    0    0  501    0  0.00000000000E+00  0.00000000000E+00  0.34604966926E+04  0.34604966926E+04  0.00000000000E+00 0.  1.
         -2   -1    0    0    0  501 -0.00000000000E+00 -0.00000000000E+00 -0.91052621863E+03  0.91052621863E+03  0.00000000000E+00 0. -1.
         23    2    1    2    0    0  0.85796179343E+03 -0.19303093549E+03 -0.62106141313E+03  0.10803083065E+04  0.89383315508E+02 0.  0.
         11    1    3    3    0    0  0.31440144563E+03 -0.59018132573E+02 -0.17596230381E+03  0.36509470189E+03  0.00000000000E+00 0.  1.
        -11    1    3    3    0    0  0.54356034780E+03 -0.13401280292E+03 -0.44509910932E+03  0.71521360457E+03  0.00000000000E+00 0. -1.
         22    1    1    2    0    0 -0.85796179343E+03  0.19303093549E+03  0.31710318871E+04  0.32907146048E+04  0.00000000000E+00 0.  1.
<mgrwt>
<rscale>  0 0.35501397E+04</rscale>
<asrwt>0</asrwt>
<pdfrwt beam="1">  1        2 0.53238410E+00 0.35501397E+04</pdfrwt>
<pdfrwt beam="2">  1       -2 0.14008096E+00 0.35501397E+04</pdfrwt>
<totfact> 0.25381688E-01</totfact>
</mgrwt>
</event>
<event>
 6    1  0.5040916E-004  0.2681271E+04  0.7818608E-02  0.8341108E-01
         -2   -1    0    0    0  501 -0.00000000000E+00  0.00000000000E+00  0.95463730294E+03  0.95463730294E+03  0.00000000000E+00 0. -1.
          2   -1    0    0  501    0  0.00000000000E+00 -0.00000000000E+00 -0.18827082389E+04  0.18827082389E+04  0.00000000000E+00 0.  1.
         23    2    1    2    0    0  0.57993015954E+03 -0.68933149394E+03 -0.15130263301E+04  0.17632553632E+04  0.91235419958E+02 0.  0.
         11    1    3    3    0    0  0.45632729339E+03 -0.49618061300E+03 -0.11784844353E+04  0.13576654093E+04  0.00000000000E+00 0. -1.
        -11    1    3    3    0    0  0.12360286615E+03 -0.19315088094E+03 -0.33454189481E+03  0.40558995391E+03  0.00000000000E+00 0.  1.
         22    1    1    2    0    0 -0.57993015954E+03  0.68933149394E+03  0.58495539421E+03  0.10740901786E+04  0.00000000000E+00 0. -1.
<mgrwt>
<rscale>  0 0.26812710E+04</rscale>
<asrwt>0</asrwt>
<pdfrwt beam="1">  1        2 0.28964742E+00 0.26812710E+04</pdfrwt>
<pdfrwt beam="2">  1       -2 0.14686728E+00 0.26812710E+04</pdfrwt>
<totfact> 0.21613102E+00</totfact>
</mgrwt>
</event>
<event>
 6    1  0.5288940E-004  0.2915636E+04  0.7818608E-02  0.8268240E-01
          2   -1    0    0  501    0  0.00000000000E+00  0.00000000000E+00  0.15361690618E+04  0.15361690618E+04  0.00000000000E+00 0.  1.
         -2   -1    0    0    0  501 -0.00000000000E+00 -0.00000000000E+00 -0.13834634616E+04  0.13834634616E+04  0.00000000000E+00 0. -1.
         23    2    1    2    0    0 -0.39651159325E+03 -0.57055719446E+03  0.13582423317E+04  0.15282031265E+04  0.88462469205E+02 0.  0.
         11    1    3    3    0    0 -0.18340313475E+03 -0.33722375061E+03  0.71502505166E+03  0.81155245814E+03  0.00000000000E+00 0. -1.
        -11    1    3    3    0    0 -0.21310845850E+03 -0.23333344385E+03  0.64321728004E+03  0.71665066835E+03  0.00000000000E+00 0.  1.
         22    1    1    2    0    0  0.39651159325E+03  0.57055719446E+03 -0.12055367314E+04  0.13914293969E+04  0.00000000000E+00 0. -1.
<mgrwt>
<rscale>  0 0.29156363E+04</rscale>
<asrwt>0</asrwt>
<pdfrwt beam="1">  1        2 0.23633370E+00 0.29156363E+04</pdfrwt>
<pdfrwt beam="2">  1       -2 0.21284053E+00 0.29156363E+04</pdfrwt>
<totfact> 0.11462605E+00</totfact>
</mgrwt>
</event>
<event>
 6    1  0.5040916E-004  0.9313107E+03  0.7818608E-02  0.9387266E-01
         -2   -1    0    0    0  501 -0.00000000000E+00  0.00000000000E+00  0.20982347066E+03  0.20982347066E+03  0.00000000000E+00 0. -1.
          2   -1    0    0  501    0  0.00000000000E+00 -0.00000000000E+00 -0.10334159478E+04  0.10334159478E+04  0.00000000000E+00 0.  1.
         23    2    1    2    0    0 -0.21159554504E+03 -0.17446895249E+03  0.79824075903E+02  0.29911360143E+03  0.88797372744E+02 0.  0.
         11    1    3    3    0    0 -0.15507017467E+03 -0.79776807662E+02  0.71642003705E+02  0.18853030209E+03  0.00000000000E+00 0.  1.
        -11    1    3    3    0    0 -0.56525370370E+02 -0.94692144830E+02  0.81820721976E+01  0.11058329934E+03  0.00000000000E+00 0. -1.
         22    1    1    2    0    0  0.21159554504E+03  0.17446895249E+03 -0.90341655300E+03  0.94412581698E+03  0.00000000000E+00 0.  1.
<mgrwt>
<rscale>  0 0.93131073E+03</rscale>
<asrwt>0</asrwt>
<pdfrwt beam="1">  1        2 0.15898707E+00 0.93131073E+03</pdfrwt>
<pdfrwt beam="2">  1       -2 0.32280534E-01 0.93131073E+03</pdfrwt>
<totfact> 0.21428446E+02</totfact>
</mgrwt>
</event>
<event>
 6    1  0.5040916E-004  0.2667251E+04  0.7818608E-02  0.8345710E-01
         -1   -1    0    0    0  501 -0.00000000000E+00  0.00000000000E+00  0.18542362983E+04  0.18542362983E+04  0.00000000000E+00 0. -1.
          1   -1    0    0  501    0  0.00000000000E+00 -0.00000000000E+00 -0.95918557572E+03  0.95918557572E+03  0.00000000000E+00 0.  1.
         23    2    1    2    0    0  0.82088104312E+03  0.10350746956E+04  0.26749709607E+03  0.13508731170E+04  0.89878637320E+02 0.  0.
         13    1    3    3    0    0  0.16867067634E+03  0.15853028120E+03  0.41245450155E+02  0.23512301945E+03  0.00000000000E+00 0. -1.
        -13    1    3    3    0    0  0.65221036678E+03  0.87654441440E+03  0.22625164592E+03  0.11157500976E+04  0.00000000000E+00 0.  1.
         22    1    1    2    0    0 -0.82088104312E+03 -0.10350746956E+04  0.62755362649E+03  0.14625487570E+04  0.00000000000E+00 0.  1.
<mgrwt>
<rscale>  0 0.26672508E+04</rscale>
<asrwt>0</asrwt>
<pdfrwt beam="1">  1        1 0.14756701E+00 0.26672508E+04</pdfrwt>
<pdfrwt beam="2">  1       -1 0.28526712E+00 0.26672508E+04</pdfrwt>
<totfact> 0.58712308E-01</totfact>
</mgrwt>
</event>
<event>
 6    1  0.5040916E-004  0.1740135E+04  0.7818608E-02  0.8738799E-01
         -2   -1    0    0    0  501 -0.00000000000E+00  0.00000000000E+00  0.63953010254E+03  0.63953010254E+03  0.00000000000E+00 0. -1.
          2   -1    0    0  501    0  0.00000000000E+00 -0.00000000000E+00 -0.11837086373E+04  0.11837086373E+04  0.00000000000E+00 0.  1.
         23    2    1    2    0    0  0.80260078307E+03  0.22459437198E+03 -0.52600112585E+03  0.98960748622E+03  0.89638961764E+02 0.  0.
         13    1    3    3    0    0  0.31418204657E+03  0.48562987412E+02 -0.17474297587E+03  0.36277242143E+03  0.00000000000E+00 0.  1.
        -13    1    3    3    0    0  0.48841873650E+03  0.17603138456E+03 -0.35125814998E+03  0.62683506479E+03  0.00000000000E+00 0. -1.
         22    1    1    2    0    0 -0.80260078307E+03 -0.22459437198E+03 -0.18177408954E+02  0.83363125368E+03  0.00000000000E+00 0. -1.
<mgrwt>
<rscale>  0 0.17401348E+04</rscale>
<asrwt>0</asrwt>
<pdfrwt beam="1">  1        2 0.18210902E+00 0.17401348E+04</pdfrwt>
<pdfrwt beam="2">  1       -2 0.98389249E-01 0.17401348E+04</pdfrwt>
<totfact> 0.15775065E+01</totfact>
</mgrwt>
</event>
<event>
 6    1  0.5040916E-004  0.1600958E+04  0.7818608E-02  0.8819960E-01
          2   -1    0    0  501    0  0.00000000000E+00  0.00000000000E+00  0.46091226575E+03  0.46091226575E+03  0.00000000000E+00 0.  1.
         -2   -1    0    0    0  501 -0.00000000000E+00 -0.00000000000E+00 -0.13902135224E+04  0.13902135224E+04  0.00000000000E+00 0. -1.
         23    2    1    2    0    0  0.19243426487E+03  0.41539078844E+03 -0.12218168528E+04  0.13078525351E+04  0.89785178833E+02 0.  0.
         11    1    3    3    0    0  0.10983223329E+03  0.13485650121E+03 -0.47206269021E+03  0.50308307353E+03  0.00000000000E+00 0.  1.
        -11    1    3    3    0    0  0.82602031581E+02  0.28053428722E+03 -0.74975416260E+03  0.80476946156E+03  0.00000000000E+00 0. -1.
         22    1    1    2    0    0 -0.19243426487E+03 -0.41539078844E+03  0.29251559621E+03  0.54327325301E+03  0.00000000000E+00 0.  1.
<mgrwt>
<rscale>  0 0.16009578E+04</rscale>
<asrwt>0</asrwt>
<pdfrwt beam="1">  1        2 0.70909579E-01 0.16009578E+04</pdfrwt>
<pdfrwt beam="2">  1       -2 0.21387900E+00 0.16009578E+04</pdfrwt>
<totfact> 0.70091104E+00</totfact>
</mgrwt>
</event>
<event>
 6    1  0.5040916E-004  0.2829399E+04  0.7818608E-02  0.8294199E-01
         -2   -1    0    0    0  501 -0.00000000000E+00  0.00000000000E+00  0.10127979268E+04  0.10127979268E+04  0.00000000000E+00 0. -1.
          2   -1    0    0  501    0  0.00000000000E+00 -0.00000000000E+00 -0.19760847532E+04  0.19760847532E+04  0.00000000000E+00 0.  1.
         23    2    1    2    0    0 -0.48607254568E+03 -0.10516675933E+04 -0.13370488736E+04  0.17715210597E+04  0.91191711352E+02 0.  0.
         13    1    3    3    0    0 -0.26510072990E+03 -0.51898335565E+03 -0.61191099403E+03  0.84501904420E+03  0.00000000000E+00 0. -1.
        -13    1    3    3    0    0 -0.22097181577E+03 -0.53268423764E+03 -0.72513787956E+03  0.92650201552E+03  0.00000000000E+00 0.  1.
         22    1    1    2    0    0  0.48607254568E+03  0.10516675933E+04  0.37376204717E+03  0.12173616202E+04  0.00000000000E+00 0. -1.
<mgrwt>
<rscale>  0 0.28293989E+04</rscale>
<asrwt>0</asrwt>
<pdfrwt beam="1">  1        2 0.30401304E+00 0.28293989E+04</pdfrwt>
<pdfrwt beam="2">  1       -2 0.15581507E+00 0.28293989E+04</pdfrwt>
<totfact> 0.16187995E+00</totfact>
</mgrwt>
</event>
<event>
 6    1  0.5040916E-004  0.1086698E+04  0.7818608E-02  0.9218255E-01
         -2   -1    0    0    0  501 -0.00000000000E+00  0.00000000000E+00  0.16235193117E+03  0.16235193117E+03  0.00000000000E+00 0. -1.
          2   -1    0    0  501    0  0.00000000000E+00 -0.00000000000E+00 -0.18184443444E+04  0.18184443444E+04  0.00000000000E+00 0.  1.
         23    2    1    2    0    0  0.35925426812E+03  0.16263542486E+03 -0.15048785376E+04  0.15584462468E+04  0.92635743003E+02 0.  0.
         11    1    3    3    0    0  0.34057799982E+03  0.12585604016E+03 -0.13203813474E+04  0.13693940336E+04  0.00000000000E+00 0.  1.
        -11    1    3    3    0    0  0.18676268297E+02  0.36779384699E+02 -0.18449719022E+03  0.18905221325E+03  0.00000000000E+00 0. -1.
         22    1    1    2    0    0 -0.35925426812E+03 -0.16263542486E+03 -0.15121387567E+03  0.42235002874E+03  0.00000000000E+00 0. -1.
<mgrwt>
<rscale>  0 0.10866977E+04</rscale>
<asrwt>0</asrwt>
<pdfrwt beam="1">  1        2 0.27976068E+00 0.10866977E+04</pdfrwt>
<pdfrwt beam="2">  1       -2 0.24977219E-01 0.10866977E+04</pdfrwt>
<totfact> 0.12042619E+02</totfact>
</mgrwt>
</event>
<event>
 6    1  0.5454850E-004  0.4858525E+04  0.7818608E-02  0.7850709E-01
          2   -1    0    0  501    0  0.00000000000E+00  0.00000000000E+00  0.39172284362E+04  0.39172284362E+04  0.00000000000E+00 0.  1.
         -2   -1    0    0    0  501 -0.00000000000E+00 -0.00000000000E+00 -0.15065027759E+04  0.15065027759E+04  0.00000000000E+00 0. -1.
         23    2    1    2    0    0 -0.54388490826E+02  0.79871447450E+03  0.37651536638E+04  0.38503977648E+04  0.90983049137E+02 0.  0.
         11    1    3    3    0    0 -0.75884151309E+01  0.47683703861E+03  0.24128147617E+04  0.24594930818E+04  0.00000000000E+00 0. -1.
        -11    1    3    3    0    0 -0.46800075695E+02  0.32187743588E+03  0.13523389021E+04  0.13909046829E+04  0.00000000000E+00 0.  1.
         22    1    1    2    0    0  0.54388490826E+02 -0.79871447450E+03 -0.13544280036E+04  0.15733334473E+04  0.00000000000E+00 0. -1.
<mgrwt>
<rscale>  0 0.48585247E+04</rscale>
<asrwt>0</asrwt>
<pdfrwt beam="1">  1        2 0.60265053E+00 0.48585247E+04</pdfrwt>
<pdfrwt beam="2">  1       -2 0.23176966E+00 0.48585247E+04</pdfrwt>
<totfact> 0.24351309E-02</totfact>
</mgrwt>
</event>
<event>
 6    1  0.5040916E-004  0.2036436E+04  0.7818608E-02  0.8589773E-01
         -2   -1    0    0    0  501 -0.00000000000E+00  0.00000000000E+00  0.91405453197E+03  0.91405453197E+03  0.00000000000E+00 0. -1.
          2   -1    0    0  501    0  0.00000000000E+00 -0.00000000000E+00 -0.11342513683E+04  0.11342513683E+04  0.00000000000E+00 0.  1.
         23    2    1    2    0    0  0.48555696447E+03 -0.64810131574E+03  0.50726219572E+03  0.95972998445E+03  0.89251479788E+02 0.  0.
         11    1    3    3    0    0  0.38448722046E+03 -0.44684082748E+03  0.36426368979E+03  0.69295395482E+03  0.00000000000E+00 0.  1.
        -11    1    3    3    0    0  0.10106974400E+03 -0.20126048826E+03  0.14299850593E+03  0.26677602963E+03  0.00000000000E+00 0. -1.
         22    1    1    2    0    0 -0.48555696447E+03  0.64810131574E+03 -0.72745903210E+03  0.10885759159E+04  0.00000000000E+00 0.  1.
<mgrwt>
<rscale>  0 0.20364357E+04</rscale>
<asrwt>0</asrwt>
<pdfrwt beam="1">  1        2 0.17450021E+00 0.20364357E+04</pdfrwt>
<pdfrwt beam="2">  1       -2 0.14062377E+00 0.20364357E+04</pdfrwt>
<totfact> 0.68264491E+00</totfact>
</mgrwt>
</event>
<event>
 6    1  0.5040916E-004  0.2602975E+04  0.7818608E-02  0.8367191E-01
         -2   -1    0    0    0  501 -0.00000000000E+00  0.00000000000E+00  0.43291639808E+03  0.43291639808E+03  0.00000000000E+00 0. -1.
          2   -1    0    0  501    0  0.00000000000E+00 -0.00000000000E+00 -0.39126955424E+04  0.39126955424E+04  0.00000000000E+00 0.  1.
         23    2    1    2    0    0  0.12668250980E+04  0.24245559320E+03 -0.20113964548E+04  0.23911866371E+04  0.91800279734E+02 0.  0.
         11    1    3    3    0    0  0.16587402686E+03  0.62865981670E+02 -0.26204799002E+03  0.31644189595E+03  0.00000000000E+00 0. -1.
        -11    1    3    3    0    0  0.11009510712E+04  0.17958961153E+03 -0.17493484648E+04  0.20747447411E+04  0.00000000000E+00 0.  1.
         22    1    1    2    0    0 -0.12668250980E+04 -0.24245559320E+03 -0.14683826896E+04  0.19544253034E+04  0.00000000000E+00 0.  1.
<mgrwt>
<rscale>  0 0.26029753E+04</rscale>
<asrwt>0</asrwt>
<pdfrwt beam="1">  1        2 0.60195319E+00 0.26029753E+04</pdfrwt>
<pdfrwt beam="2">  1       -2 0.66602520E-01 0.26029753E+04</pdfrwt>
<totfact> 0.73738016E-01</totfact>
</mgrwt>
</event>
<event>
 6    1  0.5040916E-004  0.5294470E+04  0.7818608E-02  0.7784621E-01
          2   -1    0    0  501    0  0.00000000000E+00  0.00000000000E+00  0.46014985620E+04  0.46014985620E+04  0.00000000000E+00 0. -1.
         -2   -1    0    0    0  501 -0.00000000000E+00 -0.00000000000E+00 -0.15229503479E+04  0.15229503479E+04  0.00000000000E+00 0.  1.
         23    2    1    2    0    0  0.15749932111E+04 -0.19859796149E+04  0.24199789589E+04  0.35055880680E+04  0.90171472955E+02 0.  0.
         11    1    3    3    0    0  0.11878202935E+04 -0.15058039745E+04  0.18833530829E+04  0.26880069744E+04  0.00000000000E+00 0. -1.
        -11    1    3    3    0    0  0.38717291759E+03 -0.48017564044E+03  0.53662587603E+03  0.81758109360E+03  0.00000000000E+00 0.  1.
         22    1    1    2    0    0 -0.15749932111E+04  0.19859796149E+04  0.65856925509E+03  0.26188608420E+04  0.00000000000E+00 0.  1.
<mgrwt>
<rscale>  0 0.52944703E+04</rscale>
<asrwt>0</asrwt>
<pdfrwt beam="1">  1        2 0.70792285E+00 0.52944703E+04</pdfrwt>
<pdfrwt beam="2">  1       -2 0.23430006E+00 0.52944703E+04</pdfrwt>
<totfact> 0.55010585E-03</totfact>
</mgrwt>
</event>
<event>
 6    1  0.5040916E-004  0.2901056E+03  0.7818608E-02  0.1090294E+00
          2   -1    0    0  501    0  0.00000000000E+00  0.00000000000E+00  0.98621945555E+03  0.98621945555E+03  0.00000000000E+00 0.  1.
         -2   -1    0    0    0  501 -0.00000000000E+00 -0.00000000000E+00 -0.21334316637E+02  0.21334316637E+02  0.00000000000E+00 0. -1.
         23    2    1    2    0    0  0.31113252734E+02  0.58258685178E+02  0.92155090956E+03  0.92856032735E+03  0.92769034253E+02 0.  0.
         11    1    3    3    0    0  0.16150247634E+02  0.83017351820E+02  0.71804769341E+03  0.72301120407E+03  0.00000000000E+00 0. -1.
        -11    1    3    3    0    0  0.14963005100E+02 -0.24758666642E+02  0.20350321615E+03  0.20554912328E+03  0.00000000000E+00 0.  1.
         22    1    1    2    0    0 -0.31113252734E+02 -0.58258685178E+02  0.43334229354E+02  0.78993444842E+02  0.00000000000E+00 0. -1.
<mgrwt>
<rscale>  0 0.29010562E+03</rscale>
<asrwt>0</asrwt>
<pdfrwt beam="1">  1        2 0.15172603E+00 0.29010562E+03</pdfrwt>
<pdfrwt beam="2">  1       -2 0.32822033E-02 0.29010562E+03</pdfrwt>
<totfact> 0.99094003E+03</totfact>
</mgrwt>
</event>
<event>
 6    1  0.5040916E-004  0.2776921E+04  0.7818608E-02  0.8310469E-01
         -2   -1    0    0    0  501 -0.00000000000E+00  0.00000000000E+00  0.80477793741E+03  0.80477793741E+03  0.00000000000E+00 0.  1.
          2   -1    0    0  501    0  0.00000000000E+00 -0.00000000000E+00 -0.23954715949E+04  0.23954715949E+04  0.00000000000E+00 0. -1.
         23    2    1    2    0    0 -0.15854118274E+03 -0.80741351441E+03  0.49027342430E+03  0.96251052042E+03  0.94903010877E+02 0.  0.
         13    1    3    3    0    0 -0.13066692451E+03 -0.70508781680E+03  0.38871980867E+03  0.81567503591E+03  0.00000000000E+00 0. -1.
        -13    1    3    3    0    0 -0.27874258235E+02 -0.10232569761E+03  0.10155361563E+03  0.14683548451E+03  0.00000000000E+00 0.  1.
         22    1    1    2    0    0  0.15854118274E+03  0.80741351441E+03 -0.20809670818E+04  0.22377390119E+04  0.00000000000E+00 0. -1.
<mgrwt>
<rscale>  0 0.27769211E+04</rscale>
<asrwt>0</asrwt>
<pdfrwt beam="1">  1        2 0.36853408E+00 0.27769211E+04</pdfrwt>
<pdfrwt beam="2">  1       -2 0.12381199E+00 0.27769211E+04</pdfrwt>
<totfact> 0.17120152E+00</totfact>
</mgrwt>
</event>
<event>
 6    1  0.5040916E-004  0.1771428E+04  0.7818608E-02  0.8721643E-01
          2   -1    0    0  501    0  0.00000000000E+00  0.00000000000E+00  0.12984568223E+04  0.12984568223E+04  0.00000000000E+00 0.  1.
         -2   -1    0    0    0  501 -0.00000000000E+00 -0.00000000000E+00 -0.60417030560E+03  0.60417030560E+03  0.00000000000E+00 0. -1.
         23    2    1    2    0    0 -0.57440282213E+03  0.27301338525E+03  0.10067562524E+04  0.11940283371E+04  0.87582004936E+02 0.  0.
         11    1    3    3    0    0 -0.46343162654E+03  0.25152782246E+03  0.79454543941E+03  0.95359193224E+03  0.00000000000E+00 0. -1.
        -11    1    3    3    0    0 -0.11097119559E+03  0.21485562790E+02  0.21221081295E+03  0.24043640488E+03  0.00000000000E+00 0.  1.
         22    1    1    2    0    0  0.57440282213E+03 -0.27301338525E+03 -0.31246973566E+03  0.70859879078E+03  0.00000000000E+00 0. -1.
<mgrwt>
<rscale>  0 0.17714277E+04</rscale>
<asrwt>0</asrwt>
<pdfrwt beam="1">  1        2 0.19976259E+00 0.17714277E+04</pdfrwt>
<pdfrwt beam="2">  1       -2 0.92949278E-01 0.17714277E+04</pdfrwt>
<totfact> 0.15374168E+01</totfact>
</mgrwt>
</event>
<event>
 6    1  0.5040916E-004  0.4251941E+04  0.7818608E-02  0.7955565E-01
         -2   -1    0    0    0  501 -0.00000000000E+00  0.00000000000E+00  0.10754060886E+04  0.10754060886E+04  0.00000000000E+00 0. -1.
          2   -1    0    0  501    0  0.00000000000E+00 -0.00000000000E+00 -0.42028314609E+04  0.42028314609E+04  0.00000000000E+00 0.  1.
         23    2    1    2    0    0 -0.37290418500E+01  0.85211434762E+03  0.85192129861E+03  0.12086782742E+04  0.94976335486E+02 0.  0.
         13    1    3    3    0    0 -0.24972888038E+02  0.48800487948E+03  0.42934325527E+03  0.65046755367E+03  0.00000000000E+00 0. -1.
        -13    1    3    3    0    0  0.21243846188E+02  0.36410946814E+03  0.42257804334E+03  0.55821072052E+03  0.00000000000E+00 0.  1.
         22    1    1    2    0    0  0.37290418500E+01 -0.85211434762E+03 -0.39793466709E+04  0.40695592752E+04  0.00000000000E+00 0.  1.
<mgrwt>
<rscale>  0 0.42519410E+04</rscale>
<asrwt>0</asrwt>
<pdfrwt beam="1">  1        2 0.64658945E+00 0.42519410E+04</pdfrwt>
<pdfrwt beam="2">  1       -2 0.16544709E+00 0.42519410E+04</pdfrwt>
<totfact> 0.40855979E-02</totfact>
</mgrwt>
</event>
<event>
 6    1  0.5040916E-004  0.2773257E+04  0.7818608E-02  0.8311619E-01
         -2   -1    0    0    0  501 -0.00000000000E+00  0.00000000000E+00  0.90800996749E+03  0.90800996749E+03  0.00000000000E+00 0. -1.
          2   -1    0    0  501    0  0.00000000000E+00 -0.00000000000E+00 -0.21175299411E+04  0.21175299411E+04  0.00000000000E+00 0.  1.
         23    2    1    2    0    0 -0.75809839558E+03 -0.43401714657E+03 -0.17781592279E+04  0.19832181432E+04  0.90663679163E+02 0.  0.
         11    1    3    3    0    0 -0.58796931119E+03 -0.32312207661E+03 -0.12779062759E+04  0.14433157095E+04  0.00000000000E+00 0.  1.
        -11    1    3    3    0    0 -0.17012908439E+03 -0.11089506995E+03 -0.50025295204E+03  0.53990243370E+03  0.00000000000E+00 0. -1.
         22    1    1    2    0    0  0.75809839558E+03  0.43401714657E+03  0.56863925437E+03  0.10423217653E+04  0.00000000000E+00 0. -1.
<mgrwt>
<rscale>  0 0.27732568E+04</rscale>
<asrwt>0</asrwt>
<pdfrwt beam="1">  1        2 0.32577383E+00 0.27732568E+04</pdfrwt>
<pdfrwt beam="2">  1       -2 0.13969384E+00 0.27732568E+04</pdfrwt>
<totfact> 0.18095548E+00</totfact>
</mgrwt>
</event>
<event>
 6    1  0.5040916E-004  0.1740898E+04  0.7818608E-02  0.8738376E-01
         -1   -1    0    0    0  501 -0.00000000000E+00  0.00000000000E+00  0.15851198467E+04  0.15851198467E+04  0.00000000000E+00 0. -1.
          1   -1    0    0  501    0  0.00000000000E+00 -0.00000000000E+00 -0.47799652549E+03  0.47799652549E+03  0.00000000000E+00 0.  1.
         23    2    1    2    0    0 -0.46792036559E+03  0.52842382061E+03 -0.43377315791E+02  0.71336346204E+03  0.93939527000E+02 0.  0.
         13    1    3    3    0    0 -0.11349699067E+03  0.17343178042E+03  0.17717197124E+02  0.20802415346E+03  0.00000000000E+00 0. -1.
        -13    1    3    3    0    0 -0.35442337492E+03  0.35499204019E+03 -0.61094512915E+02  0.50533930858E+03  0.00000000000E+00 0.  1.
         22    1    1    2    0    0  0.46792036559E+03 -0.52842382061E+03  0.11505006370E+04  0.13497529101E+04  0.00000000000E+00 0. -1.
<mgrwt>
<rscale>  0 0.17408984E+04</rscale>
<asrwt>0</asrwt>
<pdfrwt beam="1">  1        1 0.73537928E-01 0.17408984E+04</pdfrwt>
<pdfrwt beam="2">  1       -1 0.24386459E+00 0.17408984E+04</pdfrwt>
<totfact> 0.34202866E+00</totfact>
</mgrwt>
</event>
<event>
 6    1  0.5040916E-004  0.1578329E+04  0.7818608E-02  0.8833973E-01
          2   -1    0    0  501    0  0.00000000000E+00  0.00000000000E+00  0.69201183644E+03  0.69201183644E+03  0.00000000000E+00 0.  1.
         -2   -1    0    0    0  501 -0.00000000000E+00 -0.00000000000E+00 -0.89995629057E+03  0.89995629057E+03  0.00000000000E+00 0. -1.
         23    2    1    2    0    0  0.19992012780E+03  0.12683901397E+03 -0.86069607532E+03  0.89760448170E+03  0.94020628258E+02 0.  0.
         11    1    3    3    0    0  0.10765081327E+03  0.34987042616E+02 -0.27067887038E+03  0.29339366322E+03  0.00000000000E+00 0.  1.
        -11    1    3    3    0    0  0.92269314533E+02  0.91851971353E+02 -0.59001720494E+03  0.60421081848E+03  0.00000000000E+00 0. -1.
         22    1    1    2    0    0 -0.19992012780E+03 -0.12683901397E+03  0.65275162119E+03  0.69436364531E+03  0.00000000000E+00 0.  1.
<mgrwt>
<rscale>  0 0.15783287E+04</rscale>
<asrwt>0</asrwt>
<pdfrwt beam="1">  1        2 0.10646336E+00 0.15783287E+04</pdfrwt>
<pdfrwt beam="2">  1       -2 0.13845481E+00 0.15783287E+04</pdfrwt>
<totfact> 0.14754717E+01</totfact>
</mgrwt>
</event>
<event>
 6    1  0.5040916E-004  0.3063817E+04  0.7818608E-02  0.8225739E-01
          2   -1    0    0  501    0  0.00000000000E+00  0.00000000000E+00  0.33566591808E+04  0.33566591808E+04  0.00000000000E+00 0.  1.
         -2   -1    0    0    0  501 -0.00000000000E+00 -0.00000000000E+00 -0.69913072191E+03  0.69913072191E+03  0.00000000000E+00 0. -1.
         23    2    1    2    0    0 -0.68667459365E+03  0.12191119611E+04  0.21509432418E+04  0.25677090738E+04  0.93899346051E+02 0.  0.
         11    1    3    3    0    0 -0.28746719848E+03  0.60591157450E+03  0.10265330056E+04  0.12261876847E+04  0.00000000000E+00 0. -1.
        -11    1    3    3    0    0 -0.39920739517E+03  0.61320038658E+03  0.11244102361E+04  0.13415213891E+04  0.00000000000E+00 0.  1.
         22    1    1    2    0    0  0.68667459365E+03 -0.12191119611E+04  0.50658521715E+03  0.14880808289E+04  0.00000000000E+00 0. -1.
<mgrwt>
<rscale>  0 0.30638169E+04</rscale>
<asrwt>0</asrwt>
<pdfrwt beam="1">  1        2 0.51640910E+00 0.30638169E+04</pdfrwt>
<pdfrwt beam="2">  1       -2 0.10755857E+00 0.30638169E+04</pdfrwt>
<totfact> 0.60216804E-01</totfact>
</mgrwt>
</event>
<event>
 6    1  0.5080921E-004  0.2625931E+04  0.7818608E-02  0.8359446E-01
         -2   -1    0    0    0  501 -0.00000000000E+00  0.00000000000E+00  0.14196133922E+04  0.14196133922E+04  0.00000000000E+00 0. -1.
          2   -1    0    0  501    0  0.00000000000E+00 -0.00000000000E+00 -0.12143295746E+04  0.12143295746E+04  0.00000000000E+00 0.  1.
         23    2    1    2    0    0 -0.20319205603E+03 -0.10679109382E+04  0.83849055695E+03  0.13759002178E+04  0.91182298441E+02 0.  0.
         11    1    3    3    0    0 -0.58968132261E+02 -0.43818351326E+03  0.38879103756E+03  0.58876183877E+03  0.00000000000E+00 0. -1.
        -11    1    3    3    0    0 -0.14422392377E+03 -0.62972742495E+03  0.44969951939E+03  0.78713837898E+03  0.00000000000E+00 0.  1.
         22    1    1    2    0    0  0.20319205603E+03  0.10679109382E+04 -0.63320673939E+03  0.12580427490E+04  0.00000000000E+00 0.  1.
<mgrwt>
<rscale>  0 0.26259311E+04</rscale>
<asrwt>0</asrwt>
<pdfrwt beam="1">  1        2 0.18681993E+00 0.26259311E+04</pdfrwt>
<pdfrwt beam="2">  1       -2 0.21840206E+00 0.26259311E+04</pdfrwt>
<totfact> 0.16583755E+00</totfact>
</mgrwt>
</event>
<event>
 6    1  0.5040916E-004  0.2641753E+04  0.7818608E-02  0.8354155E-01
          2   -1    0    0  501    0  0.00000000000E+00  0.00000000000E+00  0.21408054209E+04  0.21408054209E+04  0.00000000000E+00 0.  1.
         -2   -1    0    0    0  501 -0.00000000000E+00 -0.00000000000E+00 -0.81498069111E+03  0.81498069111E+03  0.00000000000E+00 0. -1.
         23    2    1    2    0    0  0.11368723799E+03 -0.42481598013E+03 -0.72806321272E+03  0.85534589972E+03  0.90261627512E+02 0.  0.
         13    1    3    3    0    0  0.48125610370E+02 -0.55151409186E+02 -0.13072834070E+03  0.14982540295E+03  0.00000000000E+00 0. -1.
        -13    1    3    3    0    0  0.65561627622E+02 -0.36966457095E+03 -0.59733487202E+03  0.70552049677E+03  0.00000000000E+00 0.  1.
         22    1    1    2    0    0 -0.11368723799E+03  0.42481598013E+03  0.20538879425E+04  0.21004402122E+04  0.00000000000E+00 0.  1.
<mgrwt>
<rscale>  0 0.26417533E+04</rscale>
<asrwt>0</asrwt>
<pdfrwt beam="1">  1        2 0.32935468E+00 0.26417533E+04</pdfrwt>
<pdfrwt beam="2">  1       -2 0.12538165E+00 0.26417533E+04</pdfrwt>
<totfact> 0.23381792E+00</totfact>
</mgrwt>
</event>
<event>
 6    1  0.5040916E-004  0.1254186E+04  0.7818608E-02  0.9066707E-01
         -2   -1    0    0    0  501 -0.00000000000E+00  0.00000000000E+00  0.22027422144E+03  0.22027422144E+03  0.00000000000E+00 0. -1.
          2   -1    0    0  501    0  0.00000000000E+00 -0.00000000000E+00 -0.17852537494E+04  0.17852537494E+04  0.00000000000E+00 0.  1.
         23    2    1    2    0    0 -0.23903808625E+03 -0.30017052748E+03 -0.29986612642E+00  0.39448359020E+03  0.91518636185E+02 0.  0.
         11    1    3    3    0    0 -0.13029387787E+03 -0.99399208311E+02 -0.20988008720E+02  0.16521862405E+03  0.00000000000E+00 0. -1.
        -11    1    3    3    0    0 -0.10874420837E+03 -0.20077131917E+03  0.20688142593E+02  0.22926496614E+03  0.00000000000E+00 0.  1.
         22    1    1    2    0    0  0.23903808625E+03  0.30017052748E+03 -0.15646796618E+04  0.16110443806E+04  0.00000000000E+00 0.  1.
<mgrwt>
<rscale>  0 0.12541856E+04</rscale>
<asrwt>0</asrwt>
<pdfrwt beam="1">  1        2 0.27465442E+00 0.12541856E+04</pdfrwt>
<pdfrwt beam="2">  1       -2 0.33888342E-01 0.12541856E+04</pdfrwt>
<totfact> 0.70450182E+01</totfact>
</mgrwt>
</event>
<event>
 6    1  0.5040916E-004  0.1391553E+04  0.7818608E-02  0.8959956E-01
         -1   -1    0    0    0  501 -0.00000000000E+00  0.00000000000E+00  0.33305626075E+03  0.33305626075E+03  0.00000000000E+00 0. -1.
          1   -1    0    0  501    0  0.00000000000E+00 -0.00000000000E+00 -0.14535225008E+04  0.14535225008E+04  0.00000000000E+00 0.  1.
         23    2    1    2    0    0  0.18045265212E+03  0.17698897081E+03  0.26714615865E+03  0.37613329133E+03  0.78872855395E+02 0.  0.
         13    1    3    3    0    0  0.96821508561E+02  0.55685598484E+02  0.77356262807E+02  0.13586493953E+03  0.00000000000E+00 0.  1.
        -13    1    3    3    0    0  0.83631143559E+02  0.12130337233E+03  0.18978989584E+03  0.24026835180E+03  0.00000000000E+00 0. -1.
         22    1    1    2    0    0 -0.18045265212E+03 -0.17698897081E+03 -0.13876123987E+04  0.14104454703E+04  0.00000000000E+00 0.  1.
<mgrwt>
<rscale>  0 0.13915528E+04</rscale>
<asrwt>0</asrwt>
<pdfrwt beam="1">  1        1 0.22361885E+00 0.13915528E+04</pdfrwt>
<pdfrwt beam="2">  1       -1 0.51239425E-01 0.13915528E+04</pdfrwt>
<totfact> 0.26335513E+01</totfact>
</mgrwt>
</event>
<event>
 6    1  0.6968148E-004  0.3453666E+04  0.7818608E-02  0.8124859E-01
         -2   -1    0    0    0  501 -0.00000000000E+00  0.00000000000E+00  0.15109889089E+04  0.15109889089E+04  0.00000000000E+00 0. -1.
          2   -1    0    0  501    0  0.00000000000E+00 -0.00000000000E+00 -0.19735104330E+04  0.19735104330E+04  0.00000000000E+00 0.  1.
         23    2    1    2    0    0  0.77493550945E+03 -0.14424544698E+04 -0.78098417309E+03  0.18163811207E+04  0.90023084678E+02 0.  0.
         13    1    3    3    0    0  0.46642491660E+03 -0.77517128897E+03 -0.43986159859E+03  0.10059428194E+04  0.00000000000E+00 0. -1.
        -13    1    3    3    0    0  0.30851059285E+03 -0.66728318085E+03 -0.34112257450E+03  0.81043830128E+03  0.00000000000E+00 0.  1.
         22    1    1    2    0    0 -0.77493550945E+03  0.14424544698E+04  0.31846264897E+03  0.16681182213E+04  0.00000000000E+00 0. -1.
<mgrwt>
<rscale>  0 0.34536661E+04</rscale>
<asrwt>0</asrwt>
<pdfrwt beam="1">  1        2 0.30361699E+00 0.34536661E+04</pdfrwt>
<pdfrwt beam="2">  1       -2 0.23245983E+00 0.34536661E+04</pdfrwt>
<totfact> 0.47049853E-01</totfact>
</mgrwt>
</event>
<event>
 6    1  0.5040916E-004  0.3224763E+04  0.7818608E-02  0.8182308E-01
         -2   -1    0    0    0  501 -0.00000000000E+00  0.00000000000E+00  0.10425318672E+04  0.10425318672E+04  0.00000000000E+00 0. -1.
          2   -1    0    0  501    0  0.00000000000E+00 -0.00000000000E+00 -0.24937116835E+04  0.24937116835E+04  0.00000000000E+00 0.  1.
         23    2    1    2    0    0 -0.21371299037E+03 -0.12608971214E+04  0.34831029366E+03  0.13285978706E+04  0.91200044555E+02 0.  0.
         13    1    3    3    0    0 -0.81509410644E+02 -0.36292770188E+03  0.13928714413E+03  0.39719165316E+03  0.00000000000E+00 0. -1.
        -13    1    3    3    0    0 -0.13220357972E+03 -0.89796941951E+03  0.20902314953E+03  0.93140621745E+03  0.00000000000E+00 0.  1.
         22    1    1    2    0    0  0.21371299037E+03  0.12608971214E+04 -0.17994901099E+04  0.22076456801E+04  0.00000000000E+00 0.  1.
<mgrwt>
<rscale>  0 0.32247629E+04</rscale>
<asrwt>0</asrwt>
<pdfrwt beam="1">  1        2 0.38364795E+00 0.32247629E+04</pdfrwt>
<pdfrwt beam="2">  1       -2 0.16038952E+00 0.32247629E+04</pdfrwt>
<totfact> 0.73803740E-01</totfact>
</mgrwt>
</event>
<event>
 6    1  0.5040916E-004  0.3552395E+04  0.7818608E-02  0.8101484E-01
          2   -1    0    0  501    0  0.00000000000E+00  0.00000000000E+00  0.38202525972E+04  0.38202525972E+04  0.00000000000E+00 0.  1.
         -2   -1    0    0    0  501 -0.00000000000E+00 -0.00000000000E+00 -0.82582946104E+03  0.82582946104E+03  0.00000000000E+00 0. -1.
         23    2    1    2    0    0 -0.72241670348E+03 -0.14791460800E+04  0.23653125992E+04  0.28838280791E+04  0.10955217003E+03 0.  0.
         11    1    3    3    0    0 -0.16436856629E+03 -0.41133441585E+03  0.57456375752E+03  0.72549055039E+03  0.00000000000E+00 0.  1.
        -11    1    3    3    0    0 -0.55804813719E+03 -0.10678116641E+04  0.17907488417E+04  0.21583375287E+04  0.00000000000E+00 0. -1.
         22    1    1    2    0    0  0.72241670348E+03  0.14791460800E+04  0.62911053690E+03  0.17622539792E+04  0.00000000000E+00 0. -1.
<mgrwt>
<rscale>  0 0.35523948E+04</rscale>
<asrwt>0</asrwt>
<pdfrwt beam="1">  1        2 0.58773116E+00 0.35523948E+04</pdfrwt>
<pdfrwt beam="2">  1       -2 0.12705069E+00 0.35523948E+04</pdfrwt>
<totfact> 0.17805424E-01</totfact>
</mgrwt>
</event>
<event>
 6    1  0.5040916E-004  0.1802919E+04  0.7818608E-02  0.8704749E-01
         -2   -1    0    0    0  501 -0.00000000000E+00  0.00000000000E+00  0.40999222744E+03  0.40999222744E+03  0.00000000000E+00 0. -1.
          2   -1    0    0  501    0  0.00000000000E+00 -0.00000000000E+00 -0.19820600376E+04  0.19820600376E+04  0.00000000000E+00 0.  1.
         23    2    1    2    0    0 -0.13170290065E+03 -0.77522746962E+03 -0.13665798016E+04  0.15793108515E+04  0.91428265404E+02 0.  0.
         11    1    3    3    0    0 -0.72474065090E+02 -0.63087188529E+03 -0.10724069387E+04  0.12463179642E+04  0.00000000000E+00 0. -1.
        -11    1    3    3    0    0 -0.59228835563E+02 -0.14435558433E+03 -0.29417286289E+03  0.33299288724E+03  0.00000000000E+00 0.  1.
         22    1    1    2    0    0  0.13170290065E+03  0.77522746962E+03 -0.20548800858E+03  0.81274141359E+03  0.00000000000E+00 0. -1.
<mgrwt>
<rscale>  0 0.18029190E+04</rscale>
<asrwt>0</asrwt>
<pdfrwt beam="1">  1        2 0.30493231E+00 0.18029190E+04</pdfrwt>
<pdfrwt beam="2">  1       -2 0.63075728E-01 0.18029190E+04</pdfrwt>
<totfact> 0.15025160E+01</totfact>
</mgrwt>
</event>
<event>
 6    1  0.5040916E-004  0.1352820E+04  0.7818608E-02  0.8988696E-01
          2   -1    0    0  501    0  0.00000000000E+00  0.00000000000E+00  0.30770109369E+04  0.30770109369E+04  0.00000000000E+00 0.  1.
         -2   -1    0    0    0  501 -0.00000000000E+00 -0.00000000000E+00 -0.14869306909E+03  0.14869306909E+03  0.00000000000E+00 0. -1.
         23    2    1    2    0    0 -0.22764540810E+03 -0.43797883199E+02  0.29782227140E+04  0.29885728607E+04  0.89535038074E+02 0.  0.
         11    1    3    3    0    0 -0.12232581388E+03 -0.64912893838E+02  0.18877198220E+04  0.18927924912E+04  0.00000000000E+00 0.  1.
        -11    1    3    3    0    0 -0.10531959421E+03  0.21115010639E+02  0.10905028920E+04  0.10957803695E+04  0.00000000000E+00 0. -1.
         22    1    1    2    0    0  0.22764540810E+03  0.43797883199E+02 -0.49904846189E+02  0.23713114530E+03  0.00000000000E+00 0. -1.
<mgrwt>
<rscale>  0 0.13528196E+04</rscale>
<asrwt>0</asrwt>
<pdfrwt beam="1">  1        2 0.47338625E+00 0.13528196E+04</pdfrwt>
<pdfrwt beam="2">  1       -2 0.22875859E-01 0.13528196E+04</pdfrwt>
<totfact> 0.25887645E+01</totfact>
</mgrwt>
</event>
<event>
 6    1  0.5040916E-004  0.2918507E+04  0.7818608E-02  0.8267392E-01
         -2   -1    0    0    0  501 -0.00000000000E+00  0.00000000000E+00  0.89516179138E+03  0.89516179138E+03  0.00000000000E+00 0. -1.
          2   -1    0    0  501    0  0.00000000000E+00 -0.00000000000E+00 -0.23788113826E+04  0.23788113826E+04  0.00000000000E+00 0.  1.
         23    2    1    2    0    0  0.86712433083E+03  0.11716949267E+04 -0.72256274886E+03  0.16295806454E+04  0.93072806559E+02 0.  0.
         11    1    3    3    0    0  0.29720817840E+03  0.41677342783E+03 -0.30268254282E+03  0.59468438115E+03  0.00000000000E+00 0. -1.
        -11    1    3    3    0    0  0.56991615243E+03  0.75492149890E+03 -0.41988020604E+03  0.10348962642E+04  0.00000000000E+00 0.  1.
         22    1    1    2    0    0 -0.86712433083E+03 -0.11716949267E+04 -0.76108684234E+03  0.16443925286E+04  0.00000000000E+00 0. -1.
<mgrwt>
<rscale>  0 0.29185072E+04</rscale>
<asrwt>0</asrwt>
<pdfrwt beam="1">  1        2 0.36597098E+00 0.29185072E+04</pdfrwt>
<pdfrwt beam="2">  1       -2 0.13771720E+00 0.29185072E+04</pdfrwt>
<totfact> 0.13202879E+00</totfact>
</mgrwt>
</event>
<event>
 6    1  0.5040916E-004  0.3876420E+04  0.7818608E-02  0.8029951E-01
          2   -1    0    0  501    0  0.00000000000E+00  0.00000000000E+00  0.30140142977E+04  0.30140142977E+04  0.00000000000E+00 0.  1.
         -2   -1    0    0    0  501 -0.00000000000E+00 -0.00000000000E+00 -0.12463966362E+04  0.12463966362E+04  0.00000000000E+00 0. -1.
         23    2    1    2    0    0 -0.43246615173E+03 -0.17397399590E+04  0.16909064345E+04  0.24660846788E+04  0.93203944196E+02 0.  0.
         13    1    3    3    0    0 -0.24145399235E+03 -0.10471782461E+04  0.95554933868E+03  0.14380392373E+04  0.00000000000E+00 0.  1.
        -13    1    3    3    0    0 -0.19101215938E+03 -0.69256171295E+03  0.73535709583E+03  0.10280454414E+04  0.00000000000E+00 0. -1.
         22    1    1    2    0    0  0.43246615173E+03  0.17397399590E+04  0.76711227014E+02  0.17943262551E+04  0.00000000000E+00 0. -1.
<mgrwt>
<rscale>  0 0.38764196E+04</rscale>
<asrwt>0</asrwt>
<pdfrwt beam="1">  1        2 0.46369450E+00 0.38764196E+04</pdfrwt>
<pdfrwt beam="2">  1       -2 0.19175333E+00 0.38764196E+04</pdfrwt>
<totfact> 0.20497047E-01</totfact>
</mgrwt>
</event>
<event>
 6    1  0.5040916E-004  0.1885728E+04  0.7818608E-02  0.8661993E-01
         -2   -1    0    0    0  501 -0.00000000000E+00  0.00000000000E+00  0.50724471182E+03  0.50724471182E+03  0.00000000000E+00 0. -1.
          2   -1    0    0  501    0  0.00000000000E+00 -0.00000000000E+00 -0.17525902552E+04  0.17525902552E+04  0.00000000000E+00 0.  1.
         23    2    1    2    0    0  0.87114189261E+03 -0.35203260678E+03 -0.67865163285E+03  0.11625851589E+04  0.90670058624E+02 0.  0.
         11    1    3    3    0    0  0.12963414368E+03 -0.86607448466E+02 -0.12588460130E+03  0.20038162137E+03  0.00000000000E+00 0.  1.
        -11    1    3    3    0    0  0.74150774894E+03 -0.26542515831E+03 -0.55276703155E+03  0.96220353749E+03  0.00000000000E+00 0. -1.
         22    1    1    2    0    0 -0.87114189261E+03  0.35203260678E+03 -0.56669391056E+03  0.10972498082E+04  0.00000000000E+00 0. -1.
<mgrwt>
<rscale>  0 0.18857276E+04</rscale>
<asrwt>0</asrwt>
<pdfrwt beam="1">  1        2 0.26962927E+00 0.18857276E+04</pdfrwt>
<pdfrwt beam="2">  1       -2 0.78037647E-01 0.18857276E+04</pdfrwt>
<totfact> 0.12563050E+01</totfact>
</mgrwt>
</event>
<event>
 6    1  0.5040916E-004  0.1040037E+04  0.7818608E-02  0.9265691E-01
         -2   -1    0    0    0  501 -0.00000000000E+00  0.00000000000E+00  0.40568516920E+03  0.40568516920E+03  0.00000000000E+00 0.  1.
          2   -1    0    0  501    0  0.00000000000E+00 -0.00000000000E+00 -0.66657370313E+03  0.66657370313E+03  0.00000000000E+00 0. -1.
         23    2    1    2    0    0 -0.34451762186E+02  0.33623482383E+03  0.27073680508E+03  0.44228563341E+03  0.89874263375E+02 0.  0.
         11    1    3    3    0    0 -0.32250734644E+02  0.24316463062E+03  0.24267713900E+03  0.34505266448E+03  0.00000000000E+00 0.  1.
        -11    1    3    3    0    0 -0.22010275414E+01  0.93070193207E+02  0.28059666086E+02  0.97232968929E+02  0.00000000000E+00 0. -1.
         22    1    1    2    0    0  0.34451762186E+02 -0.33623482383E+03 -0.53162533902E+03  0.62997323892E+03  0.00000000000E+00 0. -1.
<mgrwt>
<rscale>  0 0.10400367E+04</rscale>
<asrwt>0</asrwt>
<pdfrwt beam="1">  1        2 0.10254980E+00 0.10400367E+04</pdfrwt>
<pdfrwt beam="2">  1       -2 0.62413103E-01 0.10400367E+04</pdfrwt>
<totfact> 0.10345622E+02</totfact>
</mgrwt>
</event>
<event>
 6    1  0.5040916E-004  0.5243923E+04  0.7818608E-02  0.7791943E-01
         -2   -1    0    0    0  501 -0.00000000000E+00  0.00000000000E+00  0.25425203005E+04  0.25425203005E+04  0.00000000000E+00 0. -1.
          2   -1    0    0  501    0  0.00000000000E+00 -0.00000000000E+00 -0.27038843802E+04  0.27038843802E+04  0.00000000000E+00 0.  1.
         23    2    1    2    0    0  0.20632677792E+04 -0.93647244077E+03  0.12377474211E+04  0.25834049524E+04  0.88926420216E+02 0.  0.
         11    1    3    3    0    0  0.89087223203E+03 -0.35703516214E+03  0.53371245968E+03  0.10981695818E+04  0.00000000000E+00 0.  1.
        -11    1    3    3    0    0  0.11723955472E+04 -0.57943727864E+03  0.70403496144E+03  0.14852353705E+04  0.00000000000E+00 0. -1.
         22    1    1    2    0    0 -0.20632677792E+04  0.93647244077E+03 -0.13991115008E+04  0.26629997283E+04  0.00000000000E+00 0.  1.
<mgrwt>
<rscale>  0 0.52439225E+04</rscale>
<asrwt>0</asrwt>
<pdfrwt beam="1">  1        2 0.41598221E+00 0.52439225E+04</pdfrwt>
<pdfrwt beam="2">  1       -2 0.39115697E+00 0.52439225E+04</pdfrwt>
<totfact> 0.15998612E-02</totfact>
</mgrwt>
</event>
<event>
 6    1  0.5040916E-004  0.2832957E+04  0.7818608E-02  0.8293109E-01
          2   -1    0    0  501    0  0.00000000000E+00  0.00000000000E+00  0.20813282253E+04  0.20813282253E+04  0.00000000000E+00 0.  1.
         -2   -1    0    0    0  501 -0.00000000000E+00 -0.00000000000E+00 -0.96400547702E+03  0.96400547702E+03  0.00000000000E+00 0. -1.
         23    2    1    2    0    0 -0.14147655818E+04 -0.24725696664E+01  0.53628200674E+03  0.15158971693E+04  0.93691366280E+02 0.  0.
         13    1    3    3    0    0 -0.19100425283E+03  0.26093158441E+02  0.92709061975E+02  0.21391224296E+03  0.00000000000E+00 0.  1.
        -13    1    3    3    0    0 -0.12237613290E+04 -0.28565728107E+02  0.44357294476E+03  0.13019849264E+04  0.00000000000E+00 0. -1.
         22    1    1    2    0    0  0.14147655818E+04  0.24725696664E+01  0.58104074149E+03  0.15294365330E+04  0.00000000000E+00 0. -1.
<mgrwt>
<rscale>  0 0.28329573E+04</rscale>
<asrwt>0</asrwt>
<pdfrwt beam="1">  1        2 0.32020434E+00 0.28329573E+04</pdfrwt>
<pdfrwt beam="2">  1       -2 0.14830854E+00 0.28329573E+04</pdfrwt>
<totfact> 0.16127383E+00</totfact>
</mgrwt>
</event>
<event>
 6    1  0.5040916E-004  0.2347076E+04  0.7818608E-02  0.8459588E-01
          2   -1    0    0  501    0  0.00000000000E+00  0.00000000000E+00  0.89720919446E+03  0.89720919446E+03  0.00000000000E+00 0.  1.
         -2   -1    0    0    0  501 -0.00000000000E+00 -0.00000000000E+00 -0.15349719433E+04  0.15349719433E+04  0.00000000000E+00 0. -1.
         23    2    1    2    0    0 -0.10388232739E+03 -0.44750722045E+03  0.79687208741E+03  0.92578432295E+03  0.10496303460E+03 0.  0.
         11    1    3    3    0    0 -0.19493147680E+02 -0.12773078587E+03  0.14101919786E+03  0.19126304042E+03  0.00000000000E+00 0.  1.
        -11    1    3    3    0    0 -0.84389179714E+02 -0.31977643458E+03  0.65585288955E+03  0.73452128253E+03  0.00000000000E+00 0. -1.
         22    1    1    2    0    0  0.10388232739E+03  0.44750722045E+03 -0.14346348363E+04  0.15063968149E+04  0.00000000000E+00 0. -1.
<mgrwt>
<rscale>  0 0.23470756E+04</rscale>
<asrwt>0</asrwt>
<pdfrwt beam="1">  1        2 0.13803219E+00 0.23470756E+04</pdfrwt>
<pdfrwt beam="2">  1       -2 0.23614953E+00 0.23470756E+04</pdfrwt>
<totfact> 0.20811885E+00</totfact>
</mgrwt>
</event>
<event>
 6    1  0.5040916E-004  0.2868182E+04  0.7818608E-02  0.8282408E-01
          2   -1    0    0  501    0  0.00000000000E+00  0.00000000000E+00  0.33502513945E+04  0.33502513945E+04  0.00000000000E+00 0.  1.
         -2   -1    0    0    0  501 -0.00000000000E+00 -0.00000000000E+00 -0.61386955889E+03  0.61386955889E+03  0.00000000000E+00 0. -1.
         23    2    1    2    0    0 -0.48449206827E+03 -0.10651586781E+04  0.22723691914E+03  0.11955285700E+04  0.91413185343E+02 0.  0.
         11    1    3    3    0    0 -0.36302373436E+03 -0.75129268844E+03  0.12445276501E+03  0.84363228135E+03  0.00000000000E+00 0. -1.
        -11    1    3    3    0    0 -0.12146833391E+03 -0.31386598965E+03  0.10278415414E+03  0.35189628861E+03  0.00000000000E+00 0.  1.
         22    1    1    2    0    0  0.48449206827E+03  0.10651586781E+04  0.25091449165E+04  0.27685923835E+04  0.00000000000E+00 0.  1.
<mgrwt>
<rscale>  0 0.28681822E+04</rscale>
<asrwt>0</asrwt>
<pdfrwt beam="1">  1        2 0.51542328E+00 0.28681822E+04</pdfrwt>
<pdfrwt beam="2">  1       -2 0.94441473E-01 0.28681822E+04</pdfrwt>
<totfact> 0.84227449E-01</totfact>
</mgrwt>
</event>
<event>
 6    1  0.5040916E-004  0.3488319E+04  0.7818608E-02  0.8116564E-01
         -2   -1    0    0    0  501 -0.00000000000E+00  0.00000000000E+00  0.11180535707E+04  0.11180535707E+04  0.00000000000E+00 0. -1.
          2   -1    0    0  501    0  0.00000000000E+00 -0.00000000000E+00 -0.27208830761E+04  0.27208830761E+04  0.00000000000E+00 0.  1.
         23    2    1    2    0    0  0.11439949074E+04  0.68724003531E+03  0.43189692460E+03  0.14055984338E+04  0.90270644702E+02 0.  0.
         13    1    3    3    0    0  0.93724728998E+03  0.59482060763E+03  0.37959201094E+03  0.11731726781E+04  0.00000000000E+00 0. -1.
        -13    1    3    3    0    0  0.20674761739E+03  0.92419427688E+02  0.52304913656E+02  0.23242575568E+03  0.00000000000E+00 0.  1.
         22    1    1    2    0    0 -0.11439949074E+04 -0.68724003531E+03 -0.20347264299E+04  0.24333382130E+04  0.00000000000E+00 0.  1.
<mgrwt>
<rscale>  0 0.34883194E+04</rscale>
<asrwt>0</asrwt>
<pdfrwt beam="1">  1        2 0.41859739E+00 0.34883194E+04</pdfrwt>
<pdfrwt beam="2">  1       -2 0.17200824E+00 0.34883194E+04</pdfrwt>
<totfact> 0.43759220E-01</totfact>
</mgrwt>
</event>
<event>
 6    1  0.5040916E-004  0.8658089E+03  0.7818608E-02  0.9469361E-01
         -2   -1    0    0    0  501 -0.00000000000E+00  0.00000000000E+00  0.69819531365E+03  0.69819531365E+03  0.00000000000E+00 0. -1.
          2   -1    0    0  501    0  0.00000000000E+00 -0.00000000000E+00 -0.26841521435E+03  0.26841521435E+03  0.00000000000E+00 0.  1.
         23    2    1    2    0    0  0.25298741618E+03  0.13290392013E+03 -0.13819544897E+03  0.33079427454E+03  0.93063339827E+02 0.  0.
         11    1    3    3    0    0  0.16207779133E+03  0.13231432453E+03 -0.10415260826E+03  0.23371789988E+03  0.00000000000E+00 0. -1.
        -11    1    3    3    0    0  0.90909624848E+02  0.58959560858E+00 -0.34042840707E+02  0.97076374656E+02  0.00000000000E+00 0.  1.
         22    1    1    2    0    0 -0.25298741618E+03 -0.13290392013E+03  0.56797554828E+03  0.63581625346E+03  0.00000000000E+00 0. -1.
<mgrwt>
<rscale>  0 0.86580886E+03</rscale>
<asrwt>0</asrwt>
<pdfrwt beam="1">  1        2 0.41294649E-01 0.86580886E+03</pdfrwt>
<pdfrwt beam="2">  1       -2 0.10741466E+00 0.86580886E+03</pdfrwt>
<totfact> 0.86903192E+01</totfact>
</mgrwt>
</event>
<event>
 6    1  0.5040916E-004  0.2103479E+04  0.7818608E-02  0.8559712E-01
         -2   -1    0    0    0  501 -0.00000000000E+00  0.00000000000E+00  0.14658021022E+04  0.14658021022E+04  0.00000000000E+00 0. -1.
          2   -1    0    0  501    0  0.00000000000E+00 -0.00000000000E+00 -0.75464203303E+03  0.75464203303E+03  0.00000000000E+00 0.  1.
         23    2    1    2    0    0  0.15934026636E+03 -0.26002868646E+03  0.14166625225E+04  0.14518493460E+04  0.89048205045E+02 0.  0.
         11    1    3    3    0    0  0.49091145079E+02 -0.16091885343E+03  0.81595526765E+03  0.83311932921E+03  0.00000000000E+00 0. -1.
        -11    1    3    3    0    0  0.11024912129E+03 -0.99109833029E+02  0.60070725481E+03  0.61873001683E+03  0.00000000000E+00 0.  1.
         22    1    1    2    0    0 -0.15934026636E+03  0.26002868646E+03 -0.70550245332E+03  0.76859478915E+03  0.00000000000E+00 0.  1.
<mgrwt>
<rscale>  0 0.21034789E+04</rscale>
<asrwt>0</asrwt>
<pdfrwt beam="1">  1        2 0.11609877E+00 0.21034789E+04</pdfrwt>
<pdfrwt beam="2">  1       -2 0.22550802E+00 0.21034789E+04</pdfrwt>
<totfact> 0.31253129E+00</totfact>
</mgrwt>
</event>
<event>
 6    1  0.5040916E-004  0.1351858E+04  0.7818608E-02  0.8989422E-01
         -2   -1    0    0    0  501 -0.00000000000E+00  0.00000000000E+00  0.36895530248E+03  0.36895530248E+03  0.00000000000E+00 0. -1.
          2   -1    0    0  501    0  0.00000000000E+00 -0.00000000000E+00 -0.12383080802E+04  0.12383080802E+04  0.00000000000E+00 0.  1.
         23    2    1    2    0    0  0.48216207399E+03 -0.25911357833E+03  0.28730929613E+02  0.55551509653E+03  0.90285348133E+02 0.  0.
         11    1    3    3    0    0  0.20002617920E+03 -0.90822505790E+02  0.53392295900E+02  0.22607506980E+03  0.00000000000E+00 0.  1.
        -11    1    3    3    0    0  0.28213589479E+03 -0.16829107254E+03 -0.24661366287E+02  0.32944002673E+03  0.00000000000E+00 0. -1.
         22    1    1    2    0    0 -0.48216207399E+03  0.25911357833E+03 -0.89808370737E+03  0.10517482862E+04  0.00000000000E+00 0. -1.
<mgrwt>
<rscale>  0 0.13518585E+04</rscale>
<asrwt>0</asrwt>
<pdfrwt beam="1">  1        2 0.19050893E+00 0.13518585E+04</pdfrwt>
<pdfrwt beam="2">  1       -2 0.56762355E-01 0.13518585E+04</pdfrwt>
<totfact> 0.51085919E+01</totfact>
</mgrwt>
</event>
<event>
 6    1  0.5040916E-004  0.2218038E+04  0.7818608E-02  0.8510958E-01
         -2   -1    0    0    0  501 -0.00000000000E+00  0.00000000000E+00  0.10991123180E+04  0.10991123180E+04  0.00000000000E+00 0. -1.
          2   -1    0    0  501    0  0.00000000000E+00 -0.00000000000E+00 -0.11190147803E+04  0.11190147803E+04  0.00000000000E+00 0.  1.
         23    2    1    2    0    0  0.80976837868E+03 -0.70052593200E+03  0.27102124570E+03  0.11085785359E+04  0.95039182094E+02 0.  0.
         11    1    3    3    0    0  0.81248057889E+02 -0.79594230518E+02  0.59055963682E+02  0.12815652652E+03  0.00000000000E+00 0.  1.
        -11    1    3    3    0    0  0.72852032079E+03 -0.62093170148E+03  0.21196528202E+03  0.98042200938E+03  0.00000000000E+00 0. -1.
         22    1    1    2    0    0 -0.80976837868E+03  0.70052593200E+03 -0.29092370797E+03  0.11095485624E+04  0.00000000000E+00 0.  1.
<mgrwt>
<rscale>  0 0.22180378E+04</rscale>
<asrwt>0</asrwt>
<pdfrwt beam="1">  1        2 0.17215612E+00 0.22180378E+04</pdfrwt>
<pdfrwt beam="2">  1       -2 0.16909420E+00 0.22180378E+04</pdfrwt>
<totfact> 0.41868388E+00</totfact>
</mgrwt>
</event>
<event>
 6    1  0.5040916E-004  0.2204418E+04  0.7818608E-02  0.8516592E-01
          2   -1    0    0  501    0  0.00000000000E+00  0.00000000000E+00  0.24058936737E+04  0.24058936737E+04  0.00000000000E+00 0.  1.
         -2   -1    0    0    0  501 -0.00000000000E+00 -0.00000000000E+00 -0.50495356109E+03  0.50495356109E+03  0.00000000000E+00 0. -1.
         23    2    1    2    0    0 -0.10567612686E+04 -0.21578705857E+03  0.12395372221E+04  0.16456349138E+04  0.91396449358E+02 0.  0.
         13    1    3    3    0    0 -0.38133894717E+03 -0.11035100213E+03  0.40961517680E+03  0.57042206248E+03  0.00000000000E+00 0. -1.
        -13    1    3    3    0    0 -0.67542232148E+03 -0.10543605644E+03  0.82992204529E+03  0.10752128513E+04  0.00000000000E+00 0.  1.
         22    1    1    2    0    0  0.10567612686E+04  0.21578705857E+03  0.66140289047E+03  0.12652123210E+04  0.00000000000E+00 0.  1.
<mgrwt>
<rscale>  0 0.22044179E+04</rscale>
<asrwt>0</asrwt>
<pdfrwt beam="1">  1        2 0.37013748E+00 0.22044179E+04</pdfrwt>
<pdfrwt beam="2">  1       -2 0.77685165E-01 0.22044179E+04</pdfrwt>
<totfact> 0.53214455E+00</totfact>
</mgrwt>
</event>
<event>
 6    1  0.5040916E-004  0.1870970E+04  0.7818608E-02  0.8669443E-01
         -2   -1    0    0    0  501 -0.00000000000E+00  0.00000000000E+00  0.27731714009E+03  0.27731714009E+03  0.00000000000E+00 0. -1.
          2   -1    0    0  501    0  0.00000000000E+00 -0.00000000000E+00 -0.31557074404E+04  0.31557074404E+04  0.00000000000E+00 0.  1.
         23    2    1    2    0    0  0.66757404643E+03 -0.69359856084E+02 -0.25092817871E+03  0.72119436870E+03  0.81795290068E+02 0.  0.
         11    1    3    3    0    0  0.21521241109E+03 -0.55151402749E+02 -0.61130996171E+02  0.23042364854E+03  0.00000000000E+00 0.  1.
        -11    1    3    3    0    0  0.45236163534E+03 -0.14208453335E+02 -0.18979718254E+03  0.49077072017E+03  0.00000000000E+00 0. -1.
         22    1    1    2    0    0 -0.66757404643E+03  0.69359856084E+02 -0.26274621216E+04  0.27118302118E+04  0.00000000000E+00 0.  1.
<mgrwt>
<rscale>  0 0.18709695E+04</rscale>
<asrwt>0</asrwt>
<pdfrwt beam="1">  1        2 0.48549349E+00 0.18709695E+04</pdfrwt>
<pdfrwt beam="2">  1       -2 0.42664172E-01 0.18709695E+04</pdfrwt>
<totfact> 0.68038167E+00</totfact>
</mgrwt>
</event>
<event>
 6    1  0.5040916E-004  0.1739754E+04  0.7818608E-02  0.8739011E-01
         -2   -1    0    0    0  501 -0.00000000000E+00  0.00000000000E+00  0.39531471731E+03  0.39531471731E+03  0.00000000000E+00 0. -1.
          2   -1    0    0  501    0  0.00000000000E+00 -0.00000000000E+00 -0.19141346557E+04  0.19141346557E+04  0.00000000000E+00 0.  1.
         23    2    1    2    0    0 -0.30056607211E+02 -0.72411858448E+03 -0.13943157342E+04  0.15740906708E+04  0.91618498997E+02 0.  0.
         11    1    3    3    0    0  0.10166106322E+02 -0.12351151933E+03 -0.31073916050E+03  0.33454038769E+03  0.00000000000E+00 0. -1.
        -11    1    3    3    0    0 -0.40222713533E+02 -0.60060706515E+03 -0.10835765737E+04  0.12395502831E+04  0.00000000000E+00 0.  1.
         22    1    1    2    0    0  0.30056607211E+02  0.72411858448E+03 -0.12450420422E+03  0.73535870219E+03  0.00000000000E+00 0. -1.
<mgrwt>
<rscale>  0 0.17397535E+04</rscale>
<asrwt>0</asrwt>
<pdfrwt beam="1">  1        2 0.29448226E+00 0.17397535E+04</pdfrwt>
<pdfrwt beam="2">  1       -2 0.60817648E-01 0.17397535E+04</pdfrwt>
<totfact> 0.17802488E+01</totfact>
</mgrwt>
</event>
<event>
 6    1  0.5040916E-004  0.1267332E+04  0.7818608E-02  0.9055880E-01
         -2   -1    0    0    0  501 -0.00000000000E+00  0.00000000000E+00  0.24200967574E+03  0.24200967574E+03  0.00000000000E+00 0. -1.
          2   -1    0    0  501    0  0.00000000000E+00 -0.00000000000E+00 -0.16591598294E+04  0.16591598294E+04  0.00000000000E+00 0.  1.
         23    2    1    2    0    0  0.54739703385E+03  0.26545904957E+03 -0.46454997418E+03  0.77087789603E+03  0.91290921890E+02 0.  0.
         11    1    3    3    0    0  0.63647725798E+02  0.41916484572E+02 -0.97720353460E+02  0.12392454220E+03  0.00000000000E+00 0. -1.
        -11    1    3    3    0    0  0.48374930805E+03  0.22354256499E+03 -0.36682962072E+03  0.64695335384E+03  0.00000000000E+00 0.  1.
         22    1    1    2    0    0 -0.54739703385E+03 -0.26545904957E+03 -0.95260017945E+03  0.11302916091E+04  0.00000000000E+00 0.  1.
<mgrwt>
<rscale>  0 0.12673322E+04</rscale>
<asrwt>0</asrwt>
<pdfrwt beam="1">  1        2 0.25525535E+00 0.12673322E+04</pdfrwt>
<pdfrwt beam="2">  1       -2 0.37232259E-01 0.12673322E+04</pdfrwt>
<totfact> 0.69025703E+01</totfact>
</mgrwt>
</event>
<event>
 6    1  0.5040916E-004  0.4788067E+04  0.7818608E-02  0.7862058E-01
         -2   -1    0    0    0  501 -0.00000000000E+00  0.00000000000E+00  0.19696992183E+04  0.19696992183E+04  0.00000000000E+00 0. -1.
          2   -1    0    0  501    0  0.00000000000E+00 -0.00000000000E+00 -0.29097827389E+04  0.29097827389E+04  0.00000000000E+00 0.  1.
         23    2    1    2    0    0 -0.17311815650E+04 -0.10083643986E+04  0.86379692376E+03  0.21836012052E+04  0.90447367539E+02 0.  0.
         13    1    3    3    0    0 -0.10052181080E+04 -0.55719273027E+03  0.45452054129E+03  0.12359272251E+04  0.00000000000E+00 0. -1.
        -13    1    3    3    0    0 -0.72596345701E+03 -0.45117166833E+03  0.40927638247E+03  0.94767398005E+03  0.00000000000E+00 0.  1.
         22    1    1    2    0    0  0.17311815650E+04  0.10083643986E+04 -0.18038804444E+04  0.26958807520E+04  0.00000000000E+00 0.  1.
<mgrwt>
<rscale>  0 0.47880672E+04</rscale>
<asrwt>0</asrwt>
<pdfrwt beam="1">  1        2 0.44765888E+00 0.47880672E+04</pdfrwt>
<pdfrwt beam="2">  1       -2 0.30303065E+00 0.47880672E+04</pdfrwt>
<totfact> 0.44657260E-02</totfact>
</mgrwt>
</event>
<event>
 6    1  0.5040916E-004  0.1451914E+04  0.7818608E-02  0.8917075E-01
         -2   -1    0    0    0  501 -0.00000000000E+00  0.00000000000E+00  0.23483649627E+03  0.23483649627E+03  0.00000000000E+00 0. -1.
          2   -1    0    0  501    0  0.00000000000E+00 -0.00000000000E+00 -0.22441723794E+04  0.22441723794E+04  0.00000000000E+00 0.  1.
         23    2    1    2    0    0  0.40606958034E+03 -0.97429367409E+02 -0.20165582958E+04  0.20613521399E+04  0.90996144206E+02 0.  0.
         13    1    3    3    0    0  0.20353315496E+03 -0.84393922327E+02 -0.90655551848E+03  0.93294747300E+03  0.00000000000E+00 0.  1.
        -13    1    3    3    0    0  0.20253642539E+03 -0.13035445082E+02 -0.11100027774E+04  0.11284046669E+04  0.00000000000E+00 0. -1.
         22    1    1    2    0    0 -0.40606958034E+03  0.97429367409E+02  0.72224127149E+01  0.41765673580E+03  0.00000000000E+00 0. -1.
<mgrwt>
<rscale>  0 0.14519140E+04</rscale>
<asrwt>0</asrwt>
<pdfrwt beam="1">  1        2 0.34525729E+00 0.14519140E+04</pdfrwt>
<pdfrwt beam="2">  1       -2 0.36128692E-01 0.14519140E+04</pdfrwt>
<totfact> 0.34129571E+01</totfact>
</mgrwt>
</event>
<event>
 6    1  0.5040916E-004  0.7932675E+03  0.7818608E-02  0.9569814E-01
          2   -1    0    0  501    0  0.00000000000E+00  0.00000000000E+00  0.11687670382E+04  0.11687670382E+04  0.00000000000E+00 0.  1.
         -2   -1    0    0    0  501 -0.00000000000E+00 -0.00000000000E+00 -0.13460195014E+03  0.13460195014E+03  0.00000000000E+00 0. -1.
         23    2    1    2    0    0 -0.44985981327E+02  0.11500820293E+03  0.11339964023E+04  0.11445706365E+04  0.94039759835E+02 0.  0.
         13    1    3    3    0    0 -0.63659312360E+01  0.78779458718E+02  0.94490389110E+03  0.94820361295E+03  0.00000000000E+00 0.  1.
        -13    1    3    3    0    0 -0.38620050091E+02  0.36228744208E+02  0.18909251117E+03  0.19636702360E+03  0.00000000000E+00 0. -1.
         22    1    1    2    0    0  0.44985981327E+02 -0.11500820293E+03 -0.99831314166E+02  0.15879835183E+03  0.00000000000E+00 0. -1.
<mgrwt>
<rscale>  0 0.79326748E+03</rscale>
<asrwt>0</asrwt>
<pdfrwt beam="1">  1        2 0.17981031E+00 0.79326748E+03</pdfrwt>
<pdfrwt beam="2">  1       -2 0.20707993E-01 0.79326748E+03</pdfrwt>
<totfact> 0.39935302E+02</totfact>
</mgrwt>
</event>
<event>
 6    1  0.5040916E-004  0.2300004E+04  0.7818608E-02  0.8477920E-01
         -2   -1    0    0    0  501 -0.00000000000E+00  0.00000000000E+00  0.62372430590E+03  0.62372430590E+03  0.00000000000E+00 0.  1.
          2   -1    0    0  501    0  0.00000000000E+00 -0.00000000000E+00 -0.21203344595E+04  0.21203344595E+04  0.00000000000E+00 0. -1.
         23    2    1    2    0    0 -0.26209615124E+03  0.62425897034E+03  0.35703285492E+03  0.77063887658E+03  0.89544201726E+02 0.  0.
         13    1    3    3    0    0 -0.76671600250E+02  0.22011765401E+03  0.78486873519E+02  0.24594817586E+03  0.00000000000E+00 0. -1.
        -13    1    3    3    0    0 -0.18542455099E+03  0.40414131633E+03  0.27854598140E+03  0.52469070073E+03  0.00000000000E+00 0.  1.
         22    1    1    2    0    0  0.26209615124E+03 -0.62425897034E+03 -0.18536430085E+04  0.19734198888E+04  0.00000000000E+00 0. -1.
<mgrwt>
<rscale>  0 0.23000036E+04</rscale>
<asrwt>0</asrwt>
<pdfrwt beam="1">  1        2 0.32620530E+00 0.23000036E+04</pdfrwt>
<pdfrwt beam="2">  1       -2 0.95957586E-01 0.23000036E+04</pdfrwt>
<totfact> 0.47237391E+00</totfact>
</mgrwt>
</event>
<event>
 6    1  0.5040916E-004  0.2493478E+04  0.7818608E-02  0.8405313E-01
         -2   -1    0    0    0  501 -0.00000000000E+00  0.00000000000E+00  0.14235839777E+04  0.14235839777E+04  0.00000000000E+00 0. -1.
          2   -1    0    0  501    0  0.00000000000E+00 -0.00000000000E+00 -0.10918625987E+04  0.10918625987E+04  0.00000000000E+00 0.  1.
         23    2    1    2    0    0 -0.31625103061E+03  0.11622915162E+04  0.48408649625E+03  0.13013002047E+04  0.90034459565E+02 0.  0.
         13    1    3    3    0    0 -0.13747916003E+03  0.41711531726E+03  0.21608824987E+03  0.48946893575E+03  0.00000000000E+00 0. -1.
        -13    1    3    3    0    0 -0.17877187058E+03  0.74517619895E+03  0.26799824638E+03  0.81183126896E+03  0.00000000000E+00 0.  1.
         22    1    1    2    0    0  0.31625103061E+03 -0.11622915162E+04 -0.15236511720E+03  0.12141463717E+04  0.00000000000E+00 0. -1.
<mgrwt>
<rscale>  0 0.24934780E+04</rscale>
<asrwt>0</asrwt>
<pdfrwt beam="1">  1        2 0.16797886E+00 0.24934780E+04</pdfrwt>
<pdfrwt beam="2">  1       -2 0.21901292E+00 0.24934780E+04</pdfrwt>
<totfact> 0.19718757E+00</totfact>
</mgrwt>
</event>
<event>
 6    1  0.5040916E-004  0.1061574E+04  0.7818608E-02  0.9243475E-01
          2   -1    0    0  501    0  0.00000000000E+00  0.00000000000E+00  0.15105386319E+04  0.15105386319E+04  0.00000000000E+00 0. -1.
         -2   -1    0    0    0  501 -0.00000000000E+00 -0.00000000000E+00 -0.18651286863E+03  0.18651286863E+03  0.00000000000E+00 0.  1.
         23    2    1    2    0    0  0.31577777056E+03 -0.26482435680E+02  0.13399183734E+04  0.13797669360E+04  0.89211157543E+02 0.  0.
         11    1    3    3    0    0  0.17132882906E+03  0.26195976192E+02  0.63131006099E+03  0.65466952728E+03  0.00000000000E+00 0.  1.
        -11    1    3    3    0    0  0.14444894150E+03 -0.52678411871E+02  0.70860831241E+03  0.72509740876E+03  0.00000000000E+00 0. -1.
         22    1    1    2    0    0 -0.31577777056E+03  0.26482435680E+02 -0.15892610164E+02  0.31728456445E+03  0.00000000000E+00 0.  1.
<mgrwt>
<rscale>  0 0.10615741E+04</rscale>
<asrwt>0</asrwt>
<pdfrwt beam="1">  1        2 0.23239055E+00 0.10615741E+04</pdfrwt>
<pdfrwt beam="2">  1       -2 0.28694289E-01 0.10615741E+04</pdfrwt>
<totfact> 0.13868713E+02</totfact>
</mgrwt>
</event>
<event>
 6    1  0.5040916E-004  0.2000395E+04  0.7818608E-02  0.8606436E-01
         -2   -1    0    0    0  501 -0.00000000000E+00  0.00000000000E+00  0.10942911538E+04  0.10942911538E+04  0.00000000000E+00 0. -1.
          2   -1    0    0  501    0  0.00000000000E+00 -0.00000000000E+00 -0.91419467425E+03  0.91419467425E+03  0.00000000000E+00 0.  1.
         23    2    1    2    0    0  0.17176698157E+03  0.83399226031E+03 -0.43284638338E+03  0.95932142747E+03  0.88851693156E+02 0.  0.
         13    1    3    3    0    0  0.34007712990E+02  0.38410264129E+03 -0.19312038328E+03  0.43126192276E+03  0.00000000000E+00 0.  1.
        -13    1    3    3    0    0  0.13775926858E+03  0.44988961902E+03 -0.23972600010E+03  0.52805950470E+03  0.00000000000E+00 0. -1.
         22    1    1    2    0    0 -0.17176698157E+03 -0.83399226031E+03  0.61294286291E+03  0.10491644006E+04  0.00000000000E+00 0. -1.
<mgrwt>
<rscale>  0 0.20003951E+04</rscale>
<asrwt>0</asrwt>
<pdfrwt beam="1">  1        2 0.14064533E+00 0.20003951E+04</pdfrwt>
<pdfrwt beam="2">  1       -2 0.16835249E+00 0.20003951E+04</pdfrwt>
<totfact> 0.58334145E+00</totfact>
</mgrwt>
</event>
<event>
 6    1  0.5040916E-004  0.1673661E+04  0.7818608E-02  0.8776531E-01
          1   -1    0    0  501    0  0.00000000000E+00  0.00000000000E+00  0.73406608804E+03  0.73406608804E+03  0.00000000000E+00 0.  1.
         -1   -1    0    0    0  501 -0.00000000000E+00 -0.00000000000E+00 -0.95398069670E+03  0.95398069670E+03  0.00000000000E+00 0. -1.
         23    2    1    2    0    0  0.76651822433E+03 -0.24512981487E+03 -0.33205714500E+03  0.87551077765E+03  0.92835121902E+02 0.  0.
         11    1    3    3    0    0  0.33499547421E+03 -0.59486284397E+02 -0.14627315768E+03  0.37034635468E+03  0.00000000000E+00 0.  1.
        -11    1    3    3    0    0  0.43152275012E+03 -0.18564353047E+03 -0.18578398732E+03  0.50516442296E+03  0.00000000000E+00 0. -1.
         22    1    1    2    0    0 -0.76651822433E+03  0.24512981487E+03  0.11214253634E+03  0.81253600710E+03  0.00000000000E+00 0.  1.
<mgrwt>
<rscale>  0 0.16736605E+04</rscale>
<asrwt>0</asrwt>
<pdfrwt beam="1">  1        1 0.11293324E+00 0.16736605E+04</pdfrwt>
<pdfrwt beam="2">  1       -1 0.14676626E+00 0.16736605E+04</pdfrwt>
<totfact> 0.89360940E+00</totfact>
</mgrwt>
</event>
<event>
 6    1  0.5040916E-004  0.3311129E+04  0.7818608E-02  0.8160069E-01
         -2   -1    0    0    0  501 -0.00000000000E+00  0.00000000000E+00  0.22301104315E+04  0.22301104315E+04  0.00000000000E+00 0. -1.
          2   -1    0    0  501    0  0.00000000000E+00 -0.00000000000E+00 -0.12290395047E+04  0.12290395047E+04  0.00000000000E+00 0.  1.
         23    2    1    2    0    0 -0.32529476956E+03 -0.17822341789E+03 -0.11835211465E+04  0.12432928107E+04  0.86454816735E+02 0.  0.
         13    1    3    3    0    0 -0.21427542268E+03 -0.11644984007E+03 -0.90282419886E+03  0.93518236513E+03  0.00000000000E+00 0.  1.
        -13    1    3    3    0    0 -0.11101934688E+03 -0.61773577819E+02 -0.28069694760E+03  0.30811044561E+03  0.00000000000E+00 0. -1.
         22    1    1    2    0    0  0.32529476956E+03  0.17822341789E+03  0.21845920732E+04  0.22158571254E+04  0.00000000000E+00 0. -1.
<mgrwt>
<rscale>  0 0.33111290E+04</rscale>
<asrwt>0</asrwt>
<pdfrwt beam="1">  1        2 0.18908300E+00 0.33111290E+04</pdfrwt>
<pdfrwt beam="2">  1       -2 0.34309391E+00 0.33111290E+04</pdfrwt>
<totfact> 0.26105866E-01</totfact>
</mgrwt>
</event>
<event>
 6    1  0.5040916E-004  0.2856548E+04  0.7818608E-02  0.8285924E-01
         -2   -1    0    0    0  501 -0.00000000000E+00  0.00000000000E+00  0.60496915280E+03  0.60496915280E+03  0.00000000000E+00 0. -1.
          2   -1    0    0  501    0  0.00000000000E+00 -0.00000000000E+00 -0.33720164929E+04  0.33720164929E+04  0.00000000000E+00 0.  1.
         23    2    1    2    0    0  0.24085394261E+03 -0.81285175905E+03  0.21279566310E+03  0.87888898362E+03  0.91789146582E+02 0.  0.
         13    1    3    3    0    0  0.10399598885E+03 -0.20841067846E+03  0.52733701689E+02  0.23881168290E+03  0.00000000000E+00 0.  1.
        -13    1    3    3    0    0  0.13685795376E+03 -0.60444108058E+03  0.16006196142E+03  0.64007730072E+03  0.00000000000E+00 0. -1.
         22    1    1    2    0    0 -0.24085394261E+03  0.81285175905E+03 -0.29798430032E+04  0.30980966621E+04  0.00000000000E+00 0. -1.
<mgrwt>
<rscale>  0 0.28565475E+04</rscale>
<asrwt>0</asrwt>
<pdfrwt beam="1">  1        2 0.51877176E+00 0.28565475E+04</pdfrwt>
<pdfrwt beam="2">  1       -2 0.93072178E-01 0.28565475E+04</pdfrwt>
<totfact> 0.84320698E-01</totfact>
</mgrwt>
</event>
<event>
 6    1  0.5040916E-004  0.3276996E+04  0.7818608E-02  0.8168774E-01
          2   -1    0    0  501    0  0.00000000000E+00  0.00000000000E+00  0.17240959937E+04  0.17240959937E+04  0.00000000000E+00 0.  1.
         -2   -1    0    0    0  501 -0.00000000000E+00 -0.00000000000E+00 -0.15571496297E+04  0.15571496297E+04  0.00000000000E+00 0. -1.
         23    2    1    2    0    0  0.23999677103E+03 -0.11357895916E+04  0.12394645375E+04  0.17007673165E+04  0.93384574076E+02 0.  0.
         13    1    3    3    0    0  0.74166134550E+02 -0.50125437638E+03  0.59066293971E+03  0.77822829151E+03  0.00000000000E+00 0. -1.
        -13    1    3    3    0    0  0.16583063648E+03 -0.63453521518E+03  0.64880159779E+03  0.92253902497E+03  0.00000000000E+00 0.  1.
         22    1    1    2    0    0 -0.23999677103E+03  0.11357895916E+04 -0.10725181735E+04  0.15804783070E+04  0.00000000000E+00 0. -1.
<mgrwt>
<rscale>  0 0.32769958E+04</rscale>
<asrwt>0</asrwt>
<pdfrwt beam="1">  1        2 0.26524554E+00 0.32769958E+04</pdfrwt>
<pdfrwt beam="2">  1       -2 0.23956148E+00 0.32769958E+04</pdfrwt>
<totfact> 0.59312828E-01</totfact>
</mgrwt>
</event>
<event>
 6    1  0.8784029E-004  0.3118163E+04  0.7818608E-02  0.8210771E-01
          2   -1    0    0  501    0  0.00000000000E+00  0.00000000000E+00  0.30499859647E+04  0.30499859647E+04  0.00000000000E+00 0.  1.
         -2   -1    0    0    0  501 -0.00000000000E+00 -0.00000000000E+00 -0.79696594955E+03  0.79696594955E+03  0.00000000000E+00 0. -1.
         23    2    1    2    0    0 -0.15273157821E+04  0.62256709020E+00  0.15056283433E+04  0.21465730750E+04  0.90362450398E+02 0.  0.
         13    1    3    3    0    0 -0.80082712507E+03  0.16944081231E+02  0.73046896596E+03  0.10840646182E+04  0.00000000000E+00 0. -1.
        -13    1    3    3    0    0 -0.72648865703E+03 -0.16321514141E+02  0.77515937732E+03  0.10625084568E+04  0.00000000000E+00 0.  1.
         22    1    1    2    0    0  0.15273157821E+04 -0.62256709020E+00  0.74739167191E+03  0.17003788393E+04  0.00000000000E+00 0.  1.
<mgrwt>
<rscale>  0 0.31181629E+04</rscale>
<asrwt>0</asrwt>
<pdfrwt beam="1">  1        2 0.46922860E+00 0.31181629E+04</pdfrwt>
<pdfrwt beam="2">  1       -2 0.12261015E+00 0.31181629E+04</pdfrwt>
<totfact> 0.69034805E-01</totfact>
</mgrwt>
</event>
<event>
 6    1  0.5040916E-004  0.1125580E+04  0.7818608E-02  0.9180613E-01
          2   -1    0    0  501    0  0.00000000000E+00  0.00000000000E+00  0.13099145207E+04  0.13099145207E+04  0.00000000000E+00 0.  1.
         -2   -1    0    0    0  501 -0.00000000000E+00 -0.00000000000E+00 -0.24179628034E+03  0.24179628034E+03  0.00000000000E+00 0. -1.
         23    2    1    2    0    0 -0.25267692871E+03  0.41597641821E+03  0.15827243617E+03  0.51986711219E+03  0.91266858593E+02 0.  0.
         11    1    3    3    0    0 -0.11133272372E+03  0.10301291784E+03  0.43499101242E+02  0.15779356267E+03  0.00000000000E+00 0.  1.
        -11    1    3    3    0    0 -0.14134420499E+03  0.31296350037E+03  0.11477333493E+03  0.36207354952E+03  0.00000000000E+00 0. -1.
         22    1    1    2    0    0  0.25267692871E+03 -0.41597641821E+03  0.90984580414E+03  0.10318436888E+04  0.00000000000E+00 0.  1.
<mgrwt>
<rscale>  0 0.11255798E+04</rscale>
<asrwt>0</asrwt>
<pdfrwt beam="1">  1        2 0.20152531E+00 0.11255798E+04</pdfrwt>
<pdfrwt beam="2">  1       -2 0.37199428E-01 0.11255798E+04</pdfrwt>
<totfact> 0.11007653E+02</totfact>
</mgrwt>
</event>
<event>
 6    1  0.5040916E-004  0.1776347E+04  0.7818608E-02  0.8718980E-01
         -2   -1    0    0    0  501 -0.00000000000E+00  0.00000000000E+00  0.64377321938E+03  0.64377321938E+03  0.00000000000E+00 0. -1.
          2   -1    0    0  501    0  0.00000000000E+00 -0.00000000000E+00 -0.12253572899E+04  0.12253572899E+04  0.00000000000E+00 0.  1.
         23    2    1    2    0    0  0.78707863968E+03 -0.30877705400E+03 -0.56954996188E+03  0.10235650926E+04  0.91990681934E+02 0.  0.
         11    1    3    3    0    0  0.42221308486E+03 -0.21425669937E+03 -0.32466081390E+03  0.57408576566E+03  0.00000000000E+00 0.  1.
        -11    1    3    3    0    0  0.36486555482E+03 -0.94520354633E+02 -0.24488914798E+03  0.44947932693E+03  0.00000000000E+00 0. -1.
         22    1    1    2    0    0 -0.78707863968E+03  0.30877705400E+03 -0.12034108621E+02  0.84556541668E+03  0.00000000000E+00 0. -1.
<mgrwt>
<rscale>  0 0.17763470E+04</rscale>
<asrwt>0</asrwt>
<pdfrwt beam="1">  1        2 0.18851650E+00 0.17763470E+04</pdfrwt>
<pdfrwt beam="2">  1       -2 0.99042035E-01 0.17763470E+04</pdfrwt>
<totfact> 0.14623317E+01</totfact>
</mgrwt>
</event>
<event>
 6    1  0.5040916E-004  0.4527719E+04  0.7818608E-02  0.7905802E-01
         -2   -1    0    0    0  501 -0.00000000000E+00  0.00000000000E+00  0.17878045721E+04  0.17878045721E+04  0.00000000000E+00 0. -1.
          2   -1    0    0  501    0  0.00000000000E+00 -0.00000000000E+00 -0.28666775068E+04  0.28666775068E+04  0.00000000000E+00 0.  1.
         23    2    1    2    0    0 -0.91332236381E+03 -0.70349234483E+03  0.14621591714E+04  0.18641589107E+04  0.90109833601E+02 0.  0.
         11    1    3    3    0    0 -0.18702035094E+03 -0.11495913170E+03  0.32290047575E+03  0.39045733553E+03  0.00000000000E+00 0. -1.
        -11    1    3    3    0    0 -0.72630201288E+03 -0.58853321313E+03  0.11392586957E+04  0.14737015751E+04  0.00000000000E+00 0.  1.
         22    1    1    2    0    0  0.91332236381E+03  0.70349234483E+03 -0.25410321061E+04  0.27903231683E+04  0.00000000000E+00 0.  1.
<mgrwt>
<rscale>  0 0.45277187E+04</rscale>
<asrwt>0</asrwt>
<pdfrwt beam="1">  1        2 0.44102731E+00 0.45277187E+04</pdfrwt>
<pdfrwt beam="2">  1       -2 0.27504686E+00 0.45277187E+04</pdfrwt>
<totfact> 0.71860239E-02</totfact>
</mgrwt>
</event>
<event>
 6    1  0.6986196E-004  0.4030807E+04  0.7818608E-02  0.7998360E-01
         -2   -1    0    0    0  501 -0.00000000000E+00  0.00000000000E+00  0.17619974078E+04  0.17619974078E+04  0.00000000000E+00 0. -1.
          2   -1    0    0  501    0  0.00000000000E+00 -0.00000000000E+00 -0.23052543201E+04  0.23052543201E+04  0.00000000000E+00 0.  1.
         23    2    1    2    0    0  0.81349051354E+03 -0.13851193353E+04  0.95455433221E+03  0.18709455305E+04  0.94555888319E+02 0.  0.
         13    1    3    3    0    0  0.47951634341E+03 -0.88980492812E+03  0.63075761968E+03  0.11914461417E+04  0.00000000000E+00 0. -1.
        -13    1    3    3    0    0  0.33397417012E+03 -0.49531440723E+03  0.32379671252E+03  0.67949938878E+03  0.00000000000E+00 0.  1.
         22    1    1    2    0    0 -0.81349051354E+03  0.13851193353E+04 -0.14978112445E+04  0.21963061974E+04  0.00000000000E+00 0.  1.
<mgrwt>
<rscale>  0 0.40308074E+04</rscale>
<asrwt>0</asrwt>
<pdfrwt beam="1">  1        2 0.35465451E+00 0.40308074E+04</pdfrwt>
<pdfrwt beam="2">  1       -2 0.27107653E+00 0.40308074E+04</pdfrwt>
<totfact> 0.16915738E-01</totfact>
</mgrwt>
</event>
<event>
 6    1  0.5040916E-004  0.3153102E+04  0.7818608E-02  0.8201314E-01
          2   -1    0    0  501    0  0.00000000000E+00  0.00000000000E+00  0.17550100208E+04  0.17550100208E+04  0.00000000000E+00 0.  1.
         -2   -1    0    0    0  501 -0.00000000000E+00 -0.00000000000E+00 -0.14162383940E+04  0.14162383940E+04  0.00000000000E+00 0. -1.
         23    2    1    2    0    0 -0.53192709899E+03 -0.14083121166E+04  0.63588476132E+03  0.16367890080E+04  0.91866047934E+02 0.  0.
         11    1    3    3    0    0 -0.20181969905E+03 -0.46508476179E+03  0.25320504153E+03  0.56669905561E+03  0.00000000000E+00 0.  1.
        -11    1    3    3    0    0 -0.33010739994E+03 -0.94322735476E+03  0.38267971979E+03  0.10700899524E+04  0.00000000000E+00 0. -1.
         22    1    1    2    0    0  0.53192709899E+03  0.14083121166E+04 -0.29711313448E+03  0.15344594067E+04  0.00000000000E+00 0. -1.
<mgrwt>
<rscale>  0 0.31531017E+04</rscale>
<asrwt>0</asrwt>
<pdfrwt beam="1">  1        2 0.27000154E+00 0.31531017E+04</pdfrwt>
<pdfrwt beam="2">  1       -2 0.21788283E+00 0.31531017E+04</pdfrwt>
<totfact> 0.78768735E-01</totfact>
</mgrwt>
</event>
<event>
 6    1  0.5040916E-004  0.2306997E+04  0.7818608E-02  0.8475167E-01
         -2   -1    0    0    0  501 -0.00000000000E+00  0.00000000000E+00  0.16499357514E+04  0.16499357514E+04  0.00000000000E+00 0. -1.
          2   -1    0    0  501    0  0.00000000000E+00 -0.00000000000E+00 -0.80643098702E+03  0.80643098702E+03  0.00000000000E+00 0.  1.
         23    2    1    2    0    0 -0.20554714225E+03  0.96864861440E+03  0.10484035808E+04  0.14451727457E+04  0.94044833518E+02 0.  0.
         11    1    3    3    0    0 -0.44328211609E+02  0.12487319207E+03  0.18161167453E+03  0.22481348884E+03  0.00000000000E+00 0.  1.
        -11    1    3    3    0    0 -0.16121893064E+03  0.84377542233E+03  0.86679190631E+03  0.12203592568E+04  0.00000000000E+00 0. -1.
         22    1    1    2    0    0  0.20554714225E+03 -0.96864861440E+03 -0.20489881649E+03  0.10111939927E+04  0.00000000000E+00 0.  1.
<mgrwt>
<rscale>  0 0.23069975E+04</rscale>
<asrwt>0</asrwt>
<pdfrwt beam="1">  1        2 0.12406631E+00 0.23069975E+04</pdfrwt>
<pdfrwt beam="2">  1       -2 0.25383627E+00 0.23069975E+04</pdfrwt>
<totfact> 0.18791960E+00</totfact>
</mgrwt>
</event>
<event>
 6    1  0.5040916E-004  0.2479758E+04  0.7818608E-02  0.8410233E-01
          2   -1    0    0  501    0  0.00000000000E+00  0.00000000000E+00  0.31927787933E+04  0.31927787933E+04  0.00000000000E+00 0.  1.
         -2   -1    0    0    0  501 -0.00000000000E+00 -0.00000000000E+00 -0.48149275440E+03  0.48149275440E+03  0.00000000000E+00 0. -1.
         23    2    1    2    0    0 -0.22388274744E+03 -0.47907277591E+03 -0.30162953906E+03  0.61530203346E+03  0.89342063617E+02 0.  0.
         13    1    3    3    0    0 -0.71542996503E+02 -0.25700088222E+03 -0.15899554658E+03  0.31055987771E+03  0.00000000000E+00 0. -1.
        -13    1    3    3    0    0 -0.15233975094E+03 -0.22207189368E+03 -0.14263399248E+03  0.30474215575E+03  0.00000000000E+00 0.  1.
         22    1    1    2    0    0  0.22388274744E+03  0.47907277591E+03  0.30129155780E+04  0.30589695142E+04  0.00000000000E+00 0.  1.
<mgrwt>
<rscale>  0 0.24797579E+04</rscale>
<asrwt>0</asrwt>
<pdfrwt beam="1">  1        2 0.49119673E+00 0.24797579E+04</pdfrwt>
<pdfrwt beam="2">  1       -2 0.74075810E-01 0.24797579E+04</pdfrwt>
<totfact> 0.19232797E+00</totfact>
</mgrwt>
</event>
<event>
 6    1  0.5040916E-004  0.2233310E+04  0.7818608E-02  0.8504690E-01
         -2   -1    0    0    0  501 -0.00000000000E+00  0.00000000000E+00  0.29614400271E+03  0.29614400271E+03  0.00000000000E+00 0. -1.
          2   -1    0    0  501    0  0.00000000000E+00 -0.00000000000E+00 -0.42105147476E+04  0.42105147476E+04  0.00000000000E+00 0.  1.
         23    2    1    2    0    0  0.66137689143E+03  0.42427193341E+03 -0.35554590132E+04  0.36428047712E+04  0.10635666781E+03 0.  0.
         13    1    3    3    0    0  0.53051143590E+02  0.66716174508E+02 -0.47232150206E+03  0.47995111531E+03  0.00000000000E+00 0. -1.
        -13    1    3    3    0    0  0.60832574784E+03  0.35755575891E+03 -0.30831375111E+04  0.31628536559E+04  0.00000000000E+00 0.  1.
         22    1    1    2    0    0 -0.66137689143E+03 -0.42427193341E+03 -0.35891173168E+03  0.86385397906E+03  0.00000000000E+00 0. -1.
<mgrwt>
<rscale>  0 0.22333103E+04</rscale>
<asrwt>0</asrwt>
<pdfrwt beam="1">  1        2 0.64777153E+00 0.22333103E+04</pdfrwt>
<pdfrwt beam="2">  1       -2 0.45560614E-01 0.22333103E+04</pdfrwt>
<totfact> 0.95610308E-01</totfact>
</mgrwt>
</event>
<event>
 6    1  0.5040916E-004  0.1778429E+04  0.7818608E-02  0.8717855E-01
         -2   -1    0    0    0  501 -0.00000000000E+00  0.00000000000E+00  0.27905407672E+03  0.27905407672E+03  0.00000000000E+00 0. -1.
          2   -1    0    0  501    0  0.00000000000E+00 -0.00000000000E+00 -0.28335099291E+04  0.28335099291E+04  0.00000000000E+00 0.  1.
         23    2    1    2    0    0 -0.21652550464E+02 -0.88162973309E+03 -0.14453908965E+04  0.16956077978E+04  0.90504921739E+02 0.  0.
         13    1    3    3    0    0 -0.51136707772E+02 -0.52123900444E+03 -0.89789465217E+03  0.10394805766E+04  0.00000000000E+00 0.  1.
        -13    1    3    3    0    0  0.29484157308E+02 -0.36039072865E+03 -0.54749624435E+03  0.65612722120E+03  0.00000000000E+00 0. -1.
         22    1    1    2    0    0  0.21652550464E+02  0.88162973309E+03 -0.11090649558E+04  0.14169562080E+04  0.00000000000E+00 0. -1.
<mgrwt>
<rscale>  0 0.17784291E+04</rscale>
<asrwt>0</asrwt>
<pdfrwt beam="1">  1        2 0.43592458E+00 0.17784291E+04</pdfrwt>
<pdfrwt beam="2">  1       -2 0.42931399E-01 0.17784291E+04</pdfrwt>
<totfact> 0.10765792E+01</totfact>
</mgrwt>
</event>
<event>
 6    1  0.5040916E-004  0.1419280E+04  0.7818608E-02  0.8939980E-01
         -2   -1    0    0    0  501 -0.00000000000E+00  0.00000000000E+00  0.12645495978E+04  0.12645495978E+04  0.00000000000E+00 0. -1.
          2   -1    0    0  501    0  0.00000000000E+00 -0.00000000000E+00 -0.39823592865E+03  0.39823592865E+03  0.00000000000E+00 0.  1.
         23    2    1    2    0    0  0.36108281277E+03 -0.32603845801E+03 -0.16565438877E+03  0.52189116396E+03  0.90813747460E+02 0.  0.
         11    1    3    3    0    0  0.10448509955E+03 -0.61377743104E+02 -0.74182101557E+02  0.14208218596E+03  0.00000000000E+00 0.  1.
        -11    1    3    3    0    0  0.25659771322E+03 -0.26466071491E+03 -0.91472287214E+02  0.37980897800E+03  0.00000000000E+00 0. -1.
         22    1    1    2    0    0 -0.36108281277E+03  0.32603845801E+03  0.10319680579E+04  0.11408943625E+04  0.00000000000E+00 0. -1.
<mgrwt>
<rscale>  0 0.14192802E+04</rscale>
<asrwt>0</asrwt>
<pdfrwt beam="1">  1        2 0.61267067E-01 0.14192802E+04</pdfrwt>
<pdfrwt beam="2">  1       -2 0.19454609E+00 0.14192802E+04</pdfrwt>
<totfact> 0.11213739E+01</totfact>
</mgrwt>
</event>
<event>
 6    1  0.5040916E-004  0.3137967E+04  0.7818608E-02  0.8205395E-01
         -2   -1    0    0    0  501 -0.00000000000E+00  0.00000000000E+00  0.14837421107E+04  0.14837421107E+04  0.00000000000E+00 0. -1.
          2   -1    0    0  501    0  0.00000000000E+00 -0.00000000000E+00 -0.16591224665E+04  0.16591224665E+04  0.00000000000E+00 0.  1.
         23    2    1    2    0    0 -0.93277774152E+03  0.23371655960E+02  0.11739513728E+04  0.15023412878E+04  0.90812829956E+02 0.  0.
         11    1    3    3    0    0 -0.65253631189E+03  0.57456980255E+02  0.83097333269E+03  0.10581217428E+04  0.00000000000E+00 0. -1.
        -11    1    3    3    0    0 -0.28024142963E+03 -0.34085324295E+02  0.34297804007E+03  0.44421954503E+03  0.00000000000E+00 0.  1.
         22    1    1    2    0    0  0.93277774152E+03 -0.23371655960E+02 -0.13493317285E+04  0.16405232894E+04  0.00000000000E+00 0.  1.
<mgrwt>
<rscale>  0 0.31379674E+04</rscale>
<asrwt>0</asrwt>
<pdfrwt beam="1">  1        2 0.25524961E+00 0.31379674E+04</pdfrwt>
<pdfrwt beam="2">  1       -2 0.22826802E+00 0.31379674E+04</pdfrwt>
<totfact> 0.76686528E-01</totfact>
</mgrwt>
</event>
<event>
 6    1  0.5040916E-004  0.4179698E+04  0.7818608E-02  0.7969245E-01
          2   -1    0    0  501    0  0.00000000000E+00  0.00000000000E+00  0.20750645620E+04  0.20750645620E+04  0.00000000000E+00 0.  1.
         -2   -1    0    0    0  501 -0.00000000000E+00 -0.00000000000E+00 -0.21047388359E+04  0.21047388359E+04  0.00000000000E+00 0. -1.
         23    2    1    2    0    0 -0.10093305674E+04  0.52301467178E+03  0.17376485302E+04  0.20784413550E+04  0.90573232198E+02 0.  0.
         11    1    3    3    0    0 -0.23674279485E+03  0.16584561209E+03  0.45699649903E+03  0.54073812339E+03  0.00000000000E+00 0.  1.
        -11    1    3    3    0    0 -0.77258777253E+03  0.35716905969E+03  0.12806520312E+04  0.15377032316E+04  0.00000000000E+00 0. -1.
         22    1    1    2    0    0  0.10093305674E+04 -0.52301467178E+03 -0.17673228041E+04  0.21013620429E+04  0.00000000000E+00 0. -1.
<mgrwt>
<rscale>  0 0.41796981E+04</rscale>
<asrwt>0</asrwt>
<pdfrwt beam="1">  1        2 0.31924070E+00 0.41796981E+04</pdfrwt>
<pdfrwt beam="2">  1       -2 0.32380597E+00 0.41796981E+04</pdfrwt>
<totfact> 0.10699356E-01</totfact>
</mgrwt>
</event>
<event>
 6    1  0.5040916E-004  0.3575478E+04  0.7818608E-02  0.8096132E-01
         -2   -1    0    0    0  501 -0.00000000000E+00  0.00000000000E+00  0.13926050331E+04  0.13926050331E+04  0.00000000000E+00 0. -1.
          2   -1    0    0  501    0  0.00000000000E+00 -0.00000000000E+00 -0.22949877169E+04  0.22949877169E+04  0.00000000000E+00 0.  1.
         23    2    1    2    0    0  0.11422105572E+04 -0.13727298242E+04 -0.51001903499E+03  0.18592105798E+04  0.86674314159E+02 0.  0.
         11    1    3    3    0    0  0.47961377575E+03 -0.54878081759E+03 -0.24850887825E+03  0.77003014370E+03  0.00000000000E+00 0. -1.
        -11    1    3    3    0    0  0.66259678148E+03 -0.82394900660E+03 -0.26151015674E+03  0.10891804361E+04  0.00000000000E+00 0.  1.
         22    1    1    2    0    0 -0.11422105572E+04  0.13727298242E+04 -0.39236364888E+03  0.18283821702E+04  0.00000000000E+00 0. -1.
<mgrwt>
<rscale>  0 0.35754784E+04</rscale>
<asrwt>0</asrwt>
<pdfrwt beam="1">  1        2 0.35307503E+00 0.35754784E+04</pdfrwt>
<pdfrwt beam="2">  1       -2 0.21424693E+00 0.35754784E+04</pdfrwt>
<totfact> 0.40077162E-01</totfact>
</mgrwt>
</event>
<event>
 6    1  0.5040916E-004  0.3223193E+04  0.7818608E-02  0.8182719E-01
          1   -1    0    0  501    0  0.00000000000E+00  0.00000000000E+00  0.14375419056E+04  0.14375419056E+04  0.00000000000E+00 0.  1.
         -1   -1    0    0    0  501 -0.00000000000E+00 -0.00000000000E+00 -0.18067253639E+04  0.18067253639E+04  0.00000000000E+00 0. -1.
         23    2    1    2    0    0 -0.53534739864E+03 -0.12218165902E+04 -0.10926629103E+04  0.17267511625E+04  0.91239928052E+02 0.  0.
         13    1    3    3    0    0 -0.11778820185E+03 -0.18497469580E+03 -0.17644083186E+03  0.28146237000E+03  0.00000000000E+00 0. -1.
        -13    1    3    3    0    0 -0.41755919679E+03 -0.10368418944E+04 -0.91622207843E+03  0.14452887925E+04  0.00000000000E+00 0.  1.
         22    1    1    2    0    0  0.53534739864E+03  0.12218165902E+04  0.72347945202E+03  0.15175161069E+04  0.00000000000E+00 0.  1.
<mgrwt>
<rscale>  0 0.32231931E+04</rscale>
<asrwt>0</asrwt>
<pdfrwt beam="1">  1        1 0.22116030E+00 0.32231931E+04</pdfrwt>
<pdfrwt beam="2">  1       -1 0.27795775E+00 0.32231931E+04</pdfrwt>
<totfact> 0.27701428E-01</totfact>
</mgrwt>
</event>
<event>
 6    1  0.5040916E-004  0.3707949E+03  0.7818608E-02  0.1054389E+00
          4   -1    0    0  501    0  0.00000000000E+00  0.00000000000E+00  0.11309389063E+03  0.11309389063E+03  0.00000000000E+00 0.  1.
         -4   -1    0    0    0  501 -0.00000000000E+00 -0.00000000000E+00 -0.30392635554E+03  0.30392635554E+03  0.00000000000E+00 0. -1.
         23    2    1    2    0    0  0.83718005778E+02 -0.80364277207E+02  0.45673709374E+02  0.15357709858E+03  0.89625420154E+02 0.  0.
         13    1    3    3    0    0  0.83615376803E+02 -0.38545645503E+02  0.57584688111E+00  0.92074044252E+02  0.00000000000E+00 0. -1.
        -13    1    3    3    0    0  0.10262897517E+00 -0.41818631704E+02  0.45097862493E+02  0.61503054328E+02  0.00000000000E+00 0.  1.
         22    1    1    2    0    0 -0.83718005778E+02  0.80364277207E+02 -0.23650617428E+03  0.26344314759E+03  0.00000000000E+00 0. -1.
<mgrwt>
<rscale>  0 0.37079490E+03</rscale>
<asrwt>0</asrwt>
<pdfrwt beam="1">  1        4 0.17399060E-01 0.37079490E+03</pdfrwt>
<pdfrwt beam="2">  1       -4 0.46757901E-01 0.37079490E+03</pdfrwt>
<totfact> 0.24900784E+02</totfact>
</mgrwt>
</event>
<event>
 6    1  0.5040916E-004  0.2925868E+04  0.7818608E-02  0.8265222E-01
         -2   -1    0    0    0  501 -0.00000000000E+00  0.00000000000E+00  0.95720812407E+03  0.95720812407E+03  0.00000000000E+00 0. -1.
          2   -1    0    0  501    0  0.00000000000E+00 -0.00000000000E+00 -0.22358515097E+04  0.22358515097E+04  0.00000000000E+00 0.  1.
         23    2    1    2    0    0 -0.26631121160E+03 -0.11105103807E+04 -0.16352402168E+04  0.19966833271E+04  0.92621676737E+02 0.  0.
         13    1    3    3    0    0 -0.17767382201E+03 -0.87738955525E+03 -0.12411615959E+04  0.15303145186E+04  0.00000000000E+00 0. -1.
        -13    1    3    3    0    0 -0.88637389589E+02 -0.23312082546E+03 -0.39407862094E+03  0.46636880854E+03  0.00000000000E+00 0.  1.
         22    1    1    2    0    0  0.26631121160E+03  0.11105103807E+04  0.35659683119E+03  0.11963763066E+04  0.00000000000E+00 0. -1.
<mgrwt>
<rscale>  0 0.29258675E+04</rscale>
<asrwt>0</asrwt>
<pdfrwt beam="1">  1        2 0.34397715E+00 0.29258675E+04</pdfrwt>
<pdfrwt beam="2">  1       -2 0.14726279E+00 0.29258675E+04</pdfrwt>
<totfact> 0.13353527E+00</totfact>
</mgrwt>
</event>
<event>
 6    1  0.5040916E-004  0.1387457E+04  0.7818608E-02  0.8962948E-01
         -2   -1    0    0    0  501 -0.00000000000E+00  0.00000000000E+00  0.89133326548E+03  0.89133326548E+03  0.00000000000E+00 0. -1.
          2   -1    0    0  501    0  0.00000000000E+00 -0.00000000000E+00 -0.53993199696E+03  0.53993199696E+03  0.00000000000E+00 0.  1.
         23    2    1    2    0    0  0.64381965715E+03 -0.23682450962E+03  0.26131210271E+03  0.73937968152E+03  0.88366844075E+02 0.  0.
         11    1    3    3    0    0  0.35337441745E+03 -0.15889829403E+03  0.11015977550E+03  0.40281177104E+03  0.00000000000E+00 0.  1.
        -11    1    3    3    0    0  0.29044523970E+03 -0.77926215588E+02  0.15115232721E+03  0.33656791048E+03  0.00000000000E+00 0. -1.
         22    1    1    2    0    0 -0.64381965715E+03  0.23682450962E+03  0.90089165809E+02  0.69188558092E+03  0.00000000000E+00 0.  1.
<mgrwt>
<rscale>  0 0.13874572E+04</rscale>
<asrwt>0</asrwt>
<pdfrwt beam="1">  1        2 0.83066461E-01 0.13874572E+04</pdfrwt>
<pdfrwt beam="2">  1       -2 0.13712819E+00 0.13874572E+04</pdfrwt>
<totfact> 0.20762273E+01</totfact>
</mgrwt>
</event>
<event>
 6    1  0.5040916E-004  0.3289530E+04  0.7818608E-02  0.8165564E-01
         -2   -1    0    0    0  501 -0.00000000000E+00  0.00000000000E+00  0.16428028075E+04  0.16428028075E+04  0.00000000000E+00 0. -1.
          2   -1    0    0  501    0  0.00000000000E+00 -0.00000000000E+00 -0.16467299984E+04  0.16467299984E+04  0.00000000000E+00 0.  1.
         23    2    1    2    0    0 -0.21663570369E+03 -0.90835469749E+03  0.13505114928E+04  0.16443752352E+04  0.89718098456E+02 0.  0.
         11    1    3    3    0    0 -0.39266793211E+02 -0.20544769650E+03  0.24205907677E+03  0.31991129035E+03  0.00000000000E+00 0. -1.
        -11    1    3    3    0    0 -0.17736891048E+03 -0.70290700099E+03  0.11084524161E+04  0.13244639448E+04  0.00000000000E+00 0.  1.
         22    1    1    2    0    0  0.21663570369E+03  0.90835469749E+03 -0.13544386838E+04  0.16451575708E+04  0.00000000000E+00 0.  1.
<mgrwt>
<rscale>  0 0.32895305E+04</rscale>
<asrwt>0</asrwt>
<pdfrwt beam="1">  1        2 0.25334308E+00 0.32895305E+04</pdfrwt>
<pdfrwt beam="2">  1       -2 0.25273889E+00 0.32895305E+04</pdfrwt>
<totfact> 0.54264004E-01</totfact>
</mgrwt>
</event>
<event>
 6    1  0.5040916E-004  0.5372225E+03  0.7818608E-02  0.1004495E+00
          2   -1    0    0  501    0  0.00000000000E+00  0.00000000000E+00  0.38904904157E+04  0.38904904157E+04  0.00000000000E+00 0.  1.
         -2   -1    0    0    0  501 -0.00000000000E+00 -0.00000000000E+00 -0.18545737023E+02  0.18545737023E+02  0.00000000000E+00 0. -1.
         23    2    1    2    0    0  0.95330237092E+02  0.25780806393E+02  0.37486202031E+04  0.37510442847E+04  0.91800298089E+02 0.  0.
         13    1    3    3    0    0  0.50991300381E+02  0.46877070698E+02  0.30084243122E+04  0.30092215629E+04  0.00000000000E+00 0.  1.
        -13    1    3    3    0    0  0.44338936711E+02 -0.21096264305E+02  0.74019589092E+03  0.74182272182E+03  0.00000000000E+00 0. -1.
         22    1    1    2    0    0 -0.95330237092E+02 -0.25780806393E+02  0.12332447562E+03  0.15799186804E+03  0.00000000000E+00 0. -1.
<mgrwt>
<rscale>  0 0.53722253E+03</rscale>
<asrwt>0</asrwt>
<pdfrwt beam="1">  1        2 0.59853634E+00 0.53722253E+03</pdfrwt>
<pdfrwt beam="2">  1       -2 0.28531934E-02 0.53722253E+03</pdfrwt>
<totfact> 0.23152457E+02</totfact>
</mgrwt>
</event>
<event>
 6    1  0.5040916E-004  0.1170379E+04  0.7818608E-02  0.9139187E-01
          2   -1    0    0  501    0  0.00000000000E+00  0.00000000000E+00  0.73744531705E+03  0.73744531705E+03  0.00000000000E+00 0.  1.
         -2   -1    0    0    0  501 -0.00000000000E+00 -0.00000000000E+00 -0.46436875545E+03  0.46436875545E+03  0.00000000000E+00 0. -1.
         23    2    1    2    0    0  0.43168753480E+03  0.25244179591E+03  0.44234602760E+03  0.67386223744E+03  0.91319871264E+02 0.  0.
         11    1    3    3    0    0  0.22645653259E+02  0.10584394972E+02  0.56367389337E+02  0.61661475891E+02  0.00000000000E+00 0. -1.
        -11    1    3    3    0    0  0.40904188154E+03  0.24185740094E+03  0.38597863826E+03  0.61220076155E+03  0.00000000000E+00 0.  1.
         22    1    1    2    0    0 -0.43168753480E+03 -0.25244179591E+03 -0.16926946601E+03  0.52795183506E+03  0.00000000000E+00 0. -1.
<mgrwt>
<rscale>  0 0.11703787E+04</rscale>
<asrwt>0</asrwt>
<pdfrwt beam="1">  1        2 0.11345313E+00 0.11703787E+04</pdfrwt>
<pdfrwt beam="2">  1       -2 0.71441347E-01 0.11703787E+04</pdfrwt>
<totfact> 0.67397301E+01</totfact>
</mgrwt>
</event>
<event>
 6    1  0.5040916E-004  0.1232500E+04  0.7818608E-02  0.9084875E-01
          2   -1    0    0  501    0  0.00000000000E+00  0.00000000000E+00  0.14744791890E+04  0.14744791890E+04  0.00000000000E+00 0.  1.
         -2   -1    0    0    0  501 -0.00000000000E+00 -0.00000000000E+00 -0.25755816856E+03  0.25755816856E+03  0.00000000000E+00 0. -1.
         23    2    1    2    0    0  0.43037305651E+03 -0.21127117691E+03  0.75899667773E+02  0.49438384982E+03  0.93798472477E+02 0.  0.
         11    1    3    3    0    0  0.23906095508E+03 -0.72802453198E+02  0.14259331189E+02  0.25030714325E+03  0.00000000000E+00 0. -1.
        -11    1    3    3    0    0  0.19131210143E+03 -0.13846872371E+03  0.61640336585E+02  0.24407670658E+03  0.00000000000E+00 0.  1.
         22    1    1    2    0    0 -0.43037305651E+03  0.21127117691E+03  0.11410213527E+04  0.12376535078E+04  0.00000000000E+00 0. -1.
<mgrwt>
<rscale>  0 0.12325002E+04</rscale>
<asrwt>0</asrwt>
<pdfrwt beam="1">  1        2 0.22684295E+00 0.12325002E+04</pdfrwt>
<pdfrwt beam="2">  1       -2 0.39624334E-01 0.12325002E+04</pdfrwt>
<totfact> 0.77808102E+01</totfact>
</mgrwt>
</event>
<event>
 6    1  0.5040916E-004  0.1398865E+04  0.7818608E-02  0.8954641E-01
          2   -1    0    0  501    0  0.00000000000E+00  0.00000000000E+00  0.20039320538E+04  0.20039320538E+04  0.00000000000E+00 0.  1.
         -2   -1    0    0    0  501 -0.00000000000E+00 -0.00000000000E+00 -0.24412288796E+03  0.24412288796E+03  0.00000000000E+00 0. -1.
         23    2    1    2    0    0 -0.24455887988E+03  0.65205906099E+03  0.86305534310E+03  0.11126442305E+04  0.90125432543E+02 0.  0.
         13    1    3    3    0    0 -0.20452031108E+03  0.42606533291E+03  0.58955694973E+03  0.75560414407E+03  0.00000000000E+00 0. -1.
        -13    1    3    3    0    0 -0.40038568801E+02  0.22599372807E+03  0.27349839337E+03  0.35704008640E+03  0.00000000000E+00 0.  1.
         22    1    1    2    0    0  0.24455887988E+03 -0.65205906099E+03  0.89675382279E+03  0.11354107113E+04  0.00000000000E+00 0. -1.
<mgrwt>
<rscale>  0 0.13988648E+04</rscale>
<asrwt>0</asrwt>
<pdfrwt beam="1">  1        2 0.30829723E+00 0.13988648E+04</pdfrwt>
<pdfrwt beam="2">  1       -2 0.37557369E-01 0.13988648E+04</pdfrwt>
<totfact> 0.43298744E+01</totfact>
</mgrwt>
</event>
<event>
 6    1  0.5040916E-004  0.2320353E+04  0.7818608E-02  0.8469939E-01
          2   -1    0    0  501    0  0.00000000000E+00  0.00000000000E+00  0.12223953367E+04  0.12223953367E+04  0.00000000000E+00 0.  1.
         -2   -1    0    0    0  501 -0.00000000000E+00 -0.00000000000E+00 -0.11011245710E+04  0.11011245710E+04  0.00000000000E+00 0. -1.
         23    2    1    2    0    0  0.19747179178E+03 -0.75876115079E+03 -0.79309377737E+03  0.11190382308E+04  0.92386307304E+02 0.  0.
         13    1    3    3    0    0  0.15411046554E+03 -0.54555510190E+03 -0.62721333599E+03  0.84544483773E+03  0.00000000000E+00 0. -1.
        -13    1    3    3    0    0  0.43361326243E+02 -0.21320604889E+03 -0.16588044138E+03  0.27359339307E+03  0.00000000000E+00 0.  1.
         22    1    1    2    0    0 -0.19747179178E+03  0.75876115079E+03  0.91436454305E+03  0.12044816769E+04  0.00000000000E+00 0.  1.
<mgrwt>
<rscale>  0 0.23203530E+04</rscale>
<asrwt>0</asrwt>
<pdfrwt beam="1">  1        2 0.18806082E+00 0.23203530E+04</pdfrwt>
<pdfrwt beam="2">  1       -2 0.16940378E+00 0.23203530E+04</pdfrwt>
<totfact> 0.35781285E+00</totfact>
</mgrwt>
</event>
<event>
 6    1  0.5040916E-004  0.1393739E+04  0.7818608E-02  0.8958363E-01
          2   -1    0    0  501    0  0.00000000000E+00  0.00000000000E+00  0.92790029821E+03  0.92790029821E+03  0.00000000000E+00 0.  1.
         -2   -1    0    0    0  501 -0.00000000000E+00 -0.00000000000E+00 -0.52336121428E+03  0.52336121428E+03  0.00000000000E+00 0. -1.
         23    2    1    2    0    0 -0.37490092081E+03  0.17748386084E+03 -0.37627620248E+03  0.56711009289E+03  0.89324440236E+02 0.  0.
         11    1    3    3    0    0 -0.21092830846E+03  0.10979852325E+03 -0.27219765838E+03  0.36143883611E+03  0.00000000000E+00 0. -1.
        -11    1    3    3    0    0 -0.16397261235E+03  0.67685337587E+02 -0.10407854410E+03  0.20567125678E+03  0.00000000000E+00 0.  1.
         22    1    1    2    0    0  0.37490092081E+03 -0.17748386084E+03  0.78081528641E+03  0.88415141960E+03  0.00000000000E+00 0.  1.
<mgrwt>
<rscale>  0 0.13937389E+04</rscale>
<asrwt>0</asrwt>
<pdfrwt beam="1">  1        2 0.14275389E+00 0.13937389E+04</pdfrwt>
<pdfrwt beam="2">  1       -2 0.80517110E-01 0.13937389E+04</pdfrwt>
<totfact> 0.37265286E+01</totfact>
</mgrwt>
</event>
<event>
 6    1  0.5040916E-004  0.4642356E+04  0.7818608E-02  0.7886178E-01
         -2   -1    0    0    0  501 -0.00000000000E+00  0.00000000000E+00  0.30086880161E+04  0.30086880161E+04  0.00000000000E+00 0. -1.
          2   -1    0    0  501    0  0.00000000000E+00 -0.00000000000E+00 -0.17907694447E+04  0.17907694447E+04  0.00000000000E+00 0.  1.
         23    2    1    2    0    0  0.11970641388E+04 -0.19115277600E+04  0.45975979261E+02  0.22577355309E+04  0.91405728687E+02 0.  0.
         11    1    3    3    0    0  0.21470205430E+03 -0.33186200639E+03  0.42365605922E+02  0.39752258800E+03  0.00000000000E+00 0.  1.
        -11    1    3    3    0    0  0.98236208455E+03 -0.15796657536E+04  0.36103733397E+01  0.18602129429E+04  0.00000000000E+00 0. -1.
         22    1    1    2    0    0 -0.11970641388E+04  0.19115277600E+04  0.11719425921E+04  0.25417219299E+04  0.00000000000E+00 0. -1.
<mgrwt>
<rscale>  0 0.46423557E+04</rscale>
<asrwt>0</asrwt>
<pdfrwt beam="1">  1        2 0.27550299E+00 0.46423557E+04</pdfrwt>
<pdfrwt beam="2">  1       -2 0.46287508E+00 0.46423557E+04</pdfrwt>
<totfact> 0.18714805E-02</totfact>
</mgrwt>
</event>
<event>
 6    1  0.5040916E-004  0.3380251E+04  0.7818608E-02  0.8142770E-01
         -2   -1    0    0    0  501 -0.00000000000E+00  0.00000000000E+00  0.11378937411E+04  0.11378937411E+04  0.00000000000E+00 0. -1.
          2   -1    0    0  501    0  0.00000000000E+00 -0.00000000000E+00 -0.25103613561E+04  0.25103613561E+04  0.00000000000E+00 0.  1.
         23    2    1    2    0    0  0.10425583664E+04 -0.63606019225E+03 -0.19457765668E+04  0.22991132701E+04  0.91514289925E+02 0.  0.
         11    1    3    3    0    0  0.72167714399E+03 -0.43551332048E+03 -0.12617579740E+04  0.15174066486E+04  0.00000000000E+00 0.  1.
        -11    1    3    3    0    0  0.32088122245E+03 -0.20054687177E+03 -0.68401859280E+03  0.78170662144E+03  0.00000000000E+00 0. -1.
         22    1    1    2    0    0 -0.10425583664E+04  0.63606019225E+03  0.57330895179E+03  0.13491418272E+04  0.00000000000E+00 0. -1.
<mgrwt>
<rscale>  0 0.33802512E+04</rscale>
<asrwt>0</asrwt>
<pdfrwt beam="1">  1        2 0.38620944E+00 0.33802512E+04</pdfrwt>
<pdfrwt beam="2">  1       -2 0.17506058E+00 0.33802512E+04</pdfrwt>
<totfact> 0.55909410E-01</totfact>
</mgrwt>
</event>
<event>
 6    1  0.5040916E-004  0.1394456E+04  0.7818608E-02  0.8957842E-01
         -2   -1    0    0    0  501 -0.00000000000E+00  0.00000000000E+00  0.15372606103E+03  0.15372606103E+03  0.00000000000E+00 0. -1.
          2   -1    0    0  501    0  0.00000000000E+00 -0.00000000000E+00 -0.31622923089E+04  0.31622923089E+04  0.00000000000E+00 0.  1.
         23    2    1    2    0    0  0.24663179420E+03 -0.10902497019E+03 -0.30322896583E+04  0.30453220710E+04  0.80574552843E+02 0.  0.
         11    1    3    3    0    0  0.90436015330E+02 -0.22368536898E+02 -0.69487901613E+03  0.70109619266E+03  0.00000000000E+00 0.  1.
        -11    1    3    3    0    0  0.15619577887E+03 -0.86656433295E+02 -0.23374106422E+04  0.23442258784E+04  0.00000000000E+00 0. -1.
         22    1    1    2    0    0 -0.24663179420E+03  0.10902497019E+03  0.23723410400E+02  0.27069629890E+03  0.00000000000E+00 0. -1.
<mgrwt>
<rscale>  0 0.13944558E+04</rscale>
<asrwt>0</asrwt>
<pdfrwt beam="1">  1        2 0.48650647E+00 0.13944558E+04</pdfrwt>
<pdfrwt beam="2">  1       -2 0.23650165E-01 0.13944558E+04</pdfrwt>
<totfact> 0.21438020E+01</totfact>
</mgrwt>
</event>
<event>
 6    1  0.5040916E-004  0.4667324E+04  0.7818608E-02  0.7881981E-01
          2   -1    0    0  501    0  0.00000000000E+00  0.00000000000E+00  0.29144644214E+04  0.29144644214E+04  0.00000000000E+00 0.  1.
         -2   -1    0    0    0  501 -0.00000000000E+00 -0.00000000000E+00 -0.18686035143E+04  0.18686035143E+04  0.00000000000E+00 0. -1.
         23    2    1    2    0    0  0.49241987224E+03  0.10646079838E+04  0.25895684806E+04  0.28442795094E+04  0.90518074679E+02 0.  0.
         13    1    3    3    0    0  0.39872059533E+03  0.82246779209E+03  0.19317049064E+04  0.21370342130E+04  0.00000000000E+00 0. -1.
        -13    1    3    3    0    0  0.93699276910E+02  0.24214019171E+03  0.65786357422E+03  0.70724529636E+03  0.00000000000E+00 0.  1.
         22    1    1    2    0    0 -0.49241987224E+03 -0.10646079838E+04 -0.15437075735E+04  0.19387884264E+04  0.00000000000E+00 0. -1.
<mgrwt>
<rscale>  0 0.46673241E+04</rscale>
<asrwt>0</asrwt>
<pdfrwt beam="1">  1        2 0.44837914E+00 0.46673241E+04</pdfrwt>
<pdfrwt beam="2">  1       -2 0.28747747E+00 0.46673241E+04</pdfrwt>
<totfact> 0.55759662E-02</totfact>
</mgrwt>
</event>
<event>
 6    1  0.5040916E-004  0.3201575E+04  0.7818608E-02  0.8188401E-01
          2   -1    0    0  501    0  0.00000000000E+00  0.00000000000E+00  0.26504129329E+04  0.26504129329E+04  0.00000000000E+00 0.  1.
         -2   -1    0    0    0  501 -0.00000000000E+00 -0.00000000000E+00 -0.96683849076E+03  0.96683849076E+03  0.00000000000E+00 0. -1.
         23    2    1    2    0    0 -0.13077139064E+04  0.86683785595E+03  0.49027772034E+03  0.16460891787E+04  0.87828307444E+02 0.  0.
         13    1    3    3    0    0 -0.58007023798E+03  0.35315131922E+03  0.17572075920E+03  0.70148066294E+03  0.00000000000E+00 0. -1.
        -13    1    3    3    0    0 -0.72764366845E+03  0.51368653672E+03  0.31455696114E+03  0.94460851577E+03  0.00000000000E+00 0.  1.
         22    1    1    2    0    0  0.13077139064E+04 -0.86683785595E+03  0.11932967218E+04  0.19711622449E+04  0.00000000000E+00 0.  1.
<mgrwt>
<rscale>  0 0.32015754E+04</rscale>
<asrwt>0</asrwt>
<pdfrwt beam="1">  1        2 0.40775583E+00 0.32015754E+04</pdfrwt>
<pdfrwt beam="2">  1       -2 0.14874438E+00 0.32015754E+04</pdfrwt>
<totfact> 0.73281056E-01</totfact>
</mgrwt>
</event>
<event>
 6    1  0.5040916E-004  0.3074683E+04  0.7818608E-02  0.8222720E-01
         -2   -1    0    0    0  501 -0.00000000000E+00  0.00000000000E+00  0.11540660445E+04  0.11540660445E+04  0.00000000000E+00 0. -1.
          2   -1    0    0  501    0  0.00000000000E+00 -0.00000000000E+00 -0.20479063742E+04  0.20479063742E+04  0.00000000000E+00 0.  1.
         23    2    1    2    0    0  0.44419835100E+03  0.10176339268E+04 -0.15523587495E+04  0.19110279996E+04  0.96536750482E+02 0.  0.
         13    1    3    3    0    0  0.97071990149E+02  0.31817385695E+03 -0.50199704673E+03  0.60221143250E+03  0.00000000000E+00 0. -1.
        -13    1    3    3    0    0  0.34712636085E+03  0.69946006986E+03 -0.10503617028E+04  0.13088165671E+04  0.00000000000E+00 0.  1.
         22    1    1    2    0    0 -0.44419835100E+03 -0.10176339268E+04  0.65851841979E+03  0.12909444191E+04  0.00000000000E+00 0. -1.
<mgrwt>
<rscale>  0 0.30746832E+04</rscale>
<asrwt>0</asrwt>
<pdfrwt beam="1">  1        2 0.31506252E+00 0.30746832E+04</pdfrwt>
<pdfrwt beam="2">  1       -2 0.17754862E+00 0.30746832E+04</pdfrwt>
<totfact> 0.10080783E+00</totfact>
</mgrwt>
</event>
<event>
 6    1  0.5040916E-004  0.1387460E+04  0.7818608E-02  0.8962946E-01
          2   -1    0    0  501    0  0.00000000000E+00  0.00000000000E+00  0.65114204658E+03  0.65114204658E+03  0.00000000000E+00 0.  1.
         -2   -1    0    0    0  501 -0.00000000000E+00 -0.00000000000E+00 -0.73910306498E+03  0.73910306498E+03  0.00000000000E+00 0. -1.
         23    2    1    2    0    0  0.46802120304E+02 -0.40958350018E+03 -0.59907641735E+03  0.73359601720E+03  0.96547814856E+02 0.  0.
         13    1    3    3    0    0  0.75195108202E+02 -0.31442040325E+03 -0.43846856970E+03  0.54476525301E+03  0.00000000000E+00 0.  1.
        -13    1    3    3    0    0 -0.28392987898E+02 -0.95163096932E+02 -0.16060784765E+03  0.18883076419E+03  0.00000000000E+00 0. -1.
         22    1    1    2    0    0 -0.46802120304E+02  0.40958350018E+03  0.51111539894E+03  0.65664909436E+03  0.00000000000E+00 0.  1.
<mgrwt>
<rscale>  0 0.13874597E+04</rscale>
<asrwt>0</asrwt>
<pdfrwt beam="1">  1        2 0.10017570E+00 0.13874597E+04</pdfrwt>
<pdfrwt beam="2">  1       -2 0.11370816E+00 0.13874597E+04</pdfrwt>
<totfact> 0.26491208E+01</totfact>
</mgrwt>
</event>
<event>
 6    1  0.5040916E-004  0.2839678E+04  0.7818608E-02  0.8291055E-01
         -2   -1    0    0    0  501 -0.00000000000E+00  0.00000000000E+00  0.53161276437E+03  0.53161276437E+03  0.00000000000E+00 0. -1.
          2   -1    0    0  501    0  0.00000000000E+00 -0.00000000000E+00 -0.37921261848E+04  0.37921261848E+04  0.00000000000E+00 0.  1.
         23    2    1    2    0    0 -0.36276160577E+03 -0.68299136145E+03  0.17848354358E+03  0.79885975964E+03  0.90814964624E+02 0.  0.
         13    1    3    3    0    0 -0.82524795718E+02 -0.16992593134E+03  0.83693070694E+02  0.20661484490E+03  0.00000000000E+00 0. -1.
        -13    1    3    3    0    0 -0.28023681005E+03 -0.51306543011E+03  0.94790472883E+02  0.59224491474E+03  0.00000000000E+00 0.  1.
         22    1    1    2    0    0  0.36276160577E+03  0.68299136145E+03 -0.34389969640E+04  0.35248791895E+04  0.00000000000E+00 0.  1.
<mgrwt>
<rscale>  0 0.28396779E+04</rscale>
<asrwt>0</asrwt>
<pdfrwt beam="1">  1        2 0.58340402E+00 0.28396779E+04</pdfrwt>
<pdfrwt beam="2">  1       -2 0.81786580E-01 0.28396779E+04</pdfrwt>
<totfact> 0.56799448E-01</totfact>
</mgrwt>
</event>
<event>
 6    1  0.5040916E-004  0.2043609E+04  0.7818608E-02  0.8586499E-01
          2   -1    0    0  501    0  0.00000000000E+00  0.00000000000E+00  0.10382786057E+04  0.10382786057E+04  0.00000000000E+00 0.  1.
         -2   -1    0    0    0  501 -0.00000000000E+00 -0.00000000000E+00 -0.10055913151E+04  0.10055913151E+04  0.00000000000E+00 0. -1.
         23    2    1    2    0    0 -0.68194072171E+03 -0.75821920921E+03  0.27350613653E+02  0.10240817088E+04  0.89753958807E+02 0.  0.
         13    1    3    3    0    0 -0.12932158327E+03 -0.19714576100E+03 -0.60120777735E+01  0.23585306455E+03  0.00000000000E+00 0. -1.
        -13    1    3    3    0    0 -0.55261913844E+03 -0.56107344821E+03  0.33362691427E+02  0.78822864426E+03  0.00000000000E+00 0.  1.
         22    1    1    2    0    0  0.68194072171E+03  0.75821920921E+03  0.53366770155E+01  0.10197882120E+04  0.00000000000E+00 0.  1.
<mgrwt>
<rscale>  0 0.20436085E+04</rscale>
<asrwt>0</asrwt>
<pdfrwt beam="1">  1        2 0.15973517E+00 0.20436085E+04</pdfrwt>
<pdfrwt beam="2">  1       -2 0.15470636E+00 0.20436085E+04</pdfrwt>
<totfact> 0.60818352E+00</totfact>
</mgrwt>
</event>
<event>
 6    1  0.5040916E-004  0.3821554E+04  0.7818608E-02  0.8041545E-01
          2   -1    0    0  501    0  0.00000000000E+00  0.00000000000E+00  0.24140315147E+04  0.24140315147E+04  0.00000000000E+00 0.  1.
         -2   -1    0    0    0  501 -0.00000000000E+00 -0.00000000000E+00 -0.15124363811E+04  0.15124363811E+04  0.00000000000E+00 0. -1.
         23    2    1    2    0    0  0.83467245458E+02 -0.26075598478E+03  0.23928850149E+04  0.24102535392E+04  0.91994369335E+02 0.  0.
         13    1    3    3    0    0  0.43185745996E+02 -0.12079473434E+03  0.15096994281E+04  0.15151398417E+04  0.00000000000E+00 0.  1.
        -13    1    3    3    0    0  0.40281499462E+02 -0.13996125044E+03  0.88318558680E+03  0.89511369756E+03  0.00000000000E+00 0. -1.
         22    1    1    2    0    0 -0.83467245458E+02  0.26075598478E+03 -0.14912898814E+04  0.15162143565E+04  0.00000000000E+00 0. -1.
<mgrwt>
<rscale>  0 0.38215542E+04</rscale>
<asrwt>0</asrwt>
<pdfrwt beam="1">  1        2 0.37138946E+00 0.38215542E+04</pdfrwt>
<pdfrwt beam="2">  1       -2 0.23268252E+00 0.38215542E+04</pdfrwt>
<totfact> 0.25694286E-01</totfact>
</mgrwt>
</event>
<event>
 6    1  0.5040916E-004  0.2430495E+04  0.7818608E-02  0.8428174E-01
          2   -1    0    0  501    0  0.00000000000E+00  0.00000000000E+00  0.29681146566E+04  0.29681146566E+04  0.00000000000E+00 0.  1.
         -2   -1    0    0    0  501 -0.00000000000E+00 -0.00000000000E+00 -0.49756368822E+03  0.49756368822E+03  0.00000000000E+00 0. -1.
         23    2    1    2    0    0  0.35262517634E+03 -0.80477793612E+03  0.24305264242E+04  0.25861250460E+04  0.92585167563E+02 0.  0.
         13    1    3    3    0    0  0.28779928898E+03 -0.72069497980E+03  0.20895682638E+04  0.22290188904E+04  0.00000000000E+00 0.  1.
        -13    1    3    3    0    0  0.64825887365E+02 -0.84082956322E+02  0.34095816032E+03  0.35710615552E+03  0.00000000000E+00 0. -1.
         22    1    1    2    0    0 -0.35262517634E+03  0.80477793612E+03  0.40024544249E+02  0.87955329890E+03  0.00000000000E+00 0. -1.
<mgrwt>
<rscale>  0 0.24304947E+04</rscale>
<asrwt>0</asrwt>
<pdfrwt beam="1">  1        2 0.45663302E+00 0.24304947E+04</pdfrwt>
<pdfrwt beam="2">  1       -2 0.76548261E-01 0.24304947E+04</pdfrwt>
<totfact> 0.24958234E+00</totfact>
</mgrwt>
</event>
<event>
 6    1  0.5040916E-004  0.1132123E+04  0.7818608E-02  0.9174436E-01
          2   -1    0    0  501    0  0.00000000000E+00  0.00000000000E+00  0.11127268516E+04  0.11127268516E+04  0.00000000000E+00 0.  1.
         -2   -1    0    0    0  501 -0.00000000000E+00 -0.00000000000E+00 -0.28796445934E+03  0.28796445934E+03  0.00000000000E+00 0. -1.
         23    2    1    2    0    0 -0.15699430601E+03  0.47471232887E+03  0.98214651030E+02  0.51872156792E+03  0.97092430437E+02 0.  0.
         11    1    3    3    0    0 -0.88216769046E+02  0.25939793955E+03  0.10281108870E+03  0.29264245991E+03  0.00000000000E+00 0. -1.
        -11    1    3    3    0    0 -0.68777536967E+02  0.21531438932E+03 -0.45964376671E+01  0.22607910801E+03  0.00000000000E+00 0.  1.
         22    1    1    2    0    0  0.15699430601E+03 -0.47471232887E+03  0.72654774120E+03  0.88196974298E+03  0.00000000000E+00 0.  1.
<mgrwt>
<rscale>  0 0.11321233E+04</rscale>
<asrwt>0</asrwt>
<pdfrwt beam="1">  1        2 0.17118874E+00 0.11321233E+04</pdfrwt>
<pdfrwt beam="2">  1       -2 0.44302225E-01 0.11321233E+04</pdfrwt>
<totfact> 0.10239416E+02</totfact>
</mgrwt>
</event>
<event>
 6    1  0.5040916E-004  0.2106019E+04  0.7818608E-02  0.8558597E-01
         -2   -1    0    0    0  501 -0.00000000000E+00  0.00000000000E+00  0.39545829876E+03  0.39545829876E+03  0.00000000000E+00 0. -1.
          2   -1    0    0  501    0  0.00000000000E+00 -0.00000000000E+00 -0.28039075173E+04  0.28039075173E+04  0.00000000000E+00 0.  1.
         23    2    1    2    0    0 -0.32962229266E+03 -0.77213976450E+03 -0.24581541619E+03  0.87948744967E+03  0.90676808254E+02 0.  0.
         11    1    3    3    0    0 -0.15539186670E+03 -0.36661813531E+03 -0.16380623192E+03  0.43056703426E+03  0.00000000000E+00 0. -1.
        -11    1    3    3    0    0 -0.17423042596E+03 -0.40552162918E+03 -0.82009184268E+02  0.44892041541E+03  0.00000000000E+00 0.  1.
         22    1    1    2    0    0  0.32962229266E+03  0.77213976450E+03 -0.21626338023E+04  0.23198783664E+04  0.00000000000E+00 0.  1.
<mgrwt>
<rscale>  0 0.21060185E+04</rscale>
<asrwt>0</asrwt>
<pdfrwt beam="1">  1        2 0.43137039E+00 0.21060185E+04</pdfrwt>
<pdfrwt beam="2">  1       -2 0.60839739E-01 0.21060185E+04</pdfrwt>
<totfact> 0.53327177E+00</totfact>
</mgrwt>
</event>
<event>
 6    1  0.5040916E-004  0.2700923E+04  0.7818608E-02  0.8334705E-01
          2   -1    0    0  501    0  0.00000000000E+00  0.00000000000E+00  0.17753146617E+04  0.17753146617E+04  0.00000000000E+00 0.  1.
         -2   -1    0    0    0  501 -0.00000000000E+00 -0.00000000000E+00 -0.10272807215E+04  0.10272807215E+04  0.00000000000E+00 0. -1.
         23    2    1    2    0    0 -0.10792398589E+04  0.53240028111E+03 -0.25789047808E+03  0.12341271280E+04  0.91397685606E+02 0.  0.
         11    1    3    3    0    0 -0.14657784642E+03  0.10846045959E+03 -0.42876123885E+02  0.18731550485E+03  0.00000000000E+00 0.  1.
        -11    1    3    3    0    0 -0.93266201249E+03  0.42393982151E+03 -0.21501435419E+03  0.10468116231E+04  0.00000000000E+00 0. -1.
         22    1    1    2    0    0  0.10792398589E+04 -0.53240028111E+03  0.10059244183E+04  0.15684682552E+04  0.00000000000E+00 0.  1.
<mgrwt>
<rscale>  0 0.27009232E+04</rscale>
<asrwt>0</asrwt>
<pdfrwt beam="1">  1        2 0.27312533E+00 0.27009232E+04</pdfrwt>
<pdfrwt beam="2">  1       -2 0.15804319E+00 0.27009232E+04</pdfrwt>
<totfact> 0.20351071E+00</totfact>
</mgrwt>
</event>
<event>
 6    1  0.5040916E-004  0.2014004E+04  0.7818608E-02  0.8600101E-01
         -2   -1    0    0    0  501 -0.00000000000E+00  0.00000000000E+00  0.81731591193E+03  0.81731591193E+03  0.00000000000E+00 0. -1.
          2   -1    0    0  501    0  0.00000000000E+00 -0.00000000000E+00 -0.12407111123E+04  0.12407111123E+04  0.00000000000E+00 0.  1.
         23    2    1    2    0    0 -0.19321696197E+03 -0.85805288084E+03  0.28485305776E+03  0.92877809869E+03  0.88881670692E+02 0.  0.
         13    1    3    3    0    0 -0.14694020828E+03 -0.46626940606E+03  0.14010874430E+03  0.50855584164E+03  0.00000000000E+00 0. -1.
        -13    1    3    3    0    0 -0.46276753686E+02 -0.39178347478E+03  0.14474431346E+03  0.42022225705E+03  0.00000000000E+00 0.  1.
         22    1    1    2    0    0  0.19321696197E+03  0.85805288084E+03 -0.70824825815E+03  0.11292489256E+04  0.00000000000E+00 0.  1.
<mgrwt>
<rscale>  0 0.20140039E+04</rscale>
<asrwt>0</asrwt>
<pdfrwt beam="1">  1        2 0.19087863E+00 0.20140039E+04</pdfrwt>
<pdfrwt beam="2">  1       -2 0.12574091E+00 0.20140039E+04</pdfrwt>
<totfact> 0.78542918E+00</totfact>
</mgrwt>
</event>
<event>
 6    1  0.5040916E-004  0.3775349E+04  0.7818608E-02  0.8051466E-01
          2   -1    0    0  501    0  0.00000000000E+00  0.00000000000E+00  0.34827816861E+04  0.34827816861E+04  0.00000000000E+00 0.  1.
         -2   -1    0    0    0  501 -0.00000000000E+00 -0.00000000000E+00 -0.10231232629E+04  0.10231232629E+04  0.00000000000E+00 0. -1.
         23    2    1    2    0    0 -0.20794553567E+03 -0.18033142131E+04  0.61750900567E+03  0.19196532262E+04  0.92561546678E+02 0.  0.
         13    1    3    3    0    0 -0.14907015126E+03 -0.11725621554E+04  0.44609152048E+03  0.12633770470E+04  0.00000000000E+00 0.  1.
        -13    1    3    3    0    0 -0.58875384407E+02 -0.63075205768E+03  0.17141748518E+03  0.65627617920E+03  0.00000000000E+00 0. -1.
         22    1    1    2    0    0  0.20794553567E+03  0.18033142131E+04  0.18421494175E+04  0.25862517228E+04  0.00000000000E+00 0.  1.
<mgrwt>
<rscale>  0 0.37753490E+04</rscale>
<asrwt>0</asrwt>
<pdfrwt beam="1">  1        2 0.53581256E+00 0.37753490E+04</pdfrwt>
<pdfrwt beam="2">  1       -2 0.15740358E+00 0.37753490E+04</pdfrwt>
<totfact> 0.17654053E-01</totfact>
</mgrwt>
</event>
<event>
 6    1  0.5040916E-004  0.2395717E+04  0.7818608E-02  0.8441109E-01
         -2   -1    0    0    0  501 -0.00000000000E+00  0.00000000000E+00  0.61994488581E+03  0.61994488581E+03  0.00000000000E+00 0. -1.
          2   -1    0    0  501    0  0.00000000000E+00 -0.00000000000E+00 -0.23145039590E+04  0.23145039590E+04  0.00000000000E+00 0.  1.
         23    2    1    2    0    0  0.90667951847E+03  0.54792469195E+03 -0.15289138163E+04  0.18621953447E+04  0.88909094016E+02 0.  0.
         13    1    3    3    0    0  0.59857162166E+03  0.31245735094E+03 -0.98381551760E+03  0.11932353310E+04  0.00000000000E+00 0.  1.
        -13    1    3    3    0    0  0.30810789680E+03  0.23546734101E+03 -0.54509829867E+03  0.66896001373E+03  0.00000000000E+00 0. -1.
         22    1    1    2    0    0 -0.90667951847E+03 -0.54792469195E+03 -0.16564525686E+03  0.10722535001E+04  0.00000000000E+00 0.  1.
<mgrwt>
<rscale>  0 0.23957169E+04</rscale>
<asrwt>0</asrwt>
<pdfrwt beam="1">  1        2 0.35607753E+00 0.23957169E+04</pdfrwt>
<pdfrwt beam="2">  1       -2 0.95376137E-01 0.23957169E+04</pdfrwt>
<totfact> 0.36945978E+00</totfact>
</mgrwt>
</event>
<event>
 6    1  0.5040916E-004  0.1711390E+04  0.7818608E-02  0.8754895E-01
         -2   -1    0    0    0  501 -0.00000000000E+00  0.00000000000E+00  0.31159570365E+03  0.31159570365E+03  0.00000000000E+00 0. -1.
          2   -1    0    0  501    0  0.00000000000E+00 -0.00000000000E+00 -0.23498847073E+04  0.23498847073E+04  0.00000000000E+00 0.  1.
         23    2    1    2    0    0 -0.36890187699E+03 -0.54921678169E+03 -0.18398175712E+03  0.69267797477E+03  0.90696315454E+02 0.  0.
         13    1    3    3    0    0 -0.35367048698E+03 -0.48110884552E+03 -0.17550403274E+03  0.62237464610E+03  0.00000000000E+00 0. -1.
        -13    1    3    3    0    0 -0.15231390011E+02 -0.68107936179E+02 -0.84777243812E+01  0.70303328676E+02  0.00000000000E+00 0.  1.
         22    1    1    2    0    0  0.36890187699E+03  0.54921678169E+03 -0.18543072465E+04  0.19688024362E+04  0.00000000000E+00 0.  1.
<mgrwt>
<rscale>  0 0.17113901E+04</rscale>
<asrwt>0</asrwt>
<pdfrwt beam="1">  1        2 0.36152072E+00 0.17113901E+04</pdfrwt>
<pdfrwt beam="2">  1       -2 0.47937802E-01 0.17113901E+04</pdfrwt>
<totfact> 0.16661712E+01</totfact>
</mgrwt>
</event>
<event>
 6    1  0.5040916E-004  0.4442059E+04  0.7818608E-02  0.7920860E-01
         -2   -1    0    0    0  501 -0.00000000000E+00  0.00000000000E+00  0.21245832438E+04  0.21245832438E+04  0.00000000000E+00 0. -1.
          2   -1    0    0  501    0  0.00000000000E+00 -0.00000000000E+00 -0.23218536664E+04  0.23218536664E+04  0.00000000000E+00 0.  1.
         23    2    1    2    0    0 -0.16898241950E+04  0.71911190172E+03  0.11500818000E+04  0.21687218822E+04  0.89658899219E+02 0.  0.
         13    1    3    3    0    0 -0.63680940246E+03  0.28320253663E+03  0.38714873516E+03  0.79725405923E+03  0.00000000000E+00 0.  1.
        -13    1    3    3    0    0 -0.10530147925E+04  0.43590936509E+03  0.76293306486E+03  0.13714678229E+04  0.00000000000E+00 0. -1.
         22    1    1    2    0    0  0.16898241950E+04 -0.71911190172E+03 -0.13473522226E+04  0.22777150281E+04  0.00000000000E+00 0.  1.
<mgrwt>
<rscale>  0 0.44420587E+04</rscale>
<asrwt>0</asrwt>
<pdfrwt beam="1">  1        2 0.35720825E+00 0.44420587E+04</pdfrwt>
<pdfrwt beam="2">  1       -2 0.32685896E+00 0.44420587E+04</pdfrwt>
<totfact> 0.72823216E-02</totfact>
</mgrwt>
</event>
<event>
 6    1  0.5040916E-004  0.2410081E+04  0.7818608E-02  0.8435739E-01
          2   -1    0    0  501    0  0.00000000000E+00  0.00000000000E+00  0.26786541616E+04  0.26786541616E+04  0.00000000000E+00 0.  1.
         -2   -1    0    0    0  501 -0.00000000000E+00 -0.00000000000E+00 -0.54210891841E+03  0.54210891841E+03  0.00000000000E+00 0. -1.
         23    2    1    2    0    0  0.91926966139E+03  0.49691472011E+03  0.27247322162E+03  0.10837685899E+04  0.91278422691E+02 0.  0.
         11    1    3    3    0    0  0.43348435362E+03  0.19600016344E+03  0.15532083039E+03  0.50044910756E+03  0.00000000000E+00 0.  1.
        -11    1    3    3    0    0  0.48578530777E+03  0.30091455666E+03  0.11715239123E+03  0.58331948230E+03  0.00000000000E+00 0. -1.
         22    1    1    2    0    0 -0.91926966139E+03 -0.49691472011E+03  0.18640720216E+04  0.21369944902E+04  0.00000000000E+00 0.  1.
<mgrwt>
<rscale>  0 0.24100808E+04</rscale>
<asrwt>0</asrwt>
<pdfrwt beam="1">  1        2 0.41210063E+00 0.24100808E+04</pdfrwt>
<pdfrwt beam="2">  1       -2 0.83401374E-01 0.24100808E+04</pdfrwt>
<totfact> 0.30908169E+00</totfact>
</mgrwt>
</event>
<event>
 6    1  0.5040916E-004  0.8304920E+03  0.7818608E-02  0.9516900E-01
          2   -1    0    0  501    0  0.00000000000E+00  0.00000000000E+00  0.10428959846E+04  0.10428959846E+04  0.00000000000E+00 0. -1.
         -2   -1    0    0    0  501 -0.00000000000E+00 -0.00000000000E+00 -0.16533696470E+03  0.16533696470E+03  0.00000000000E+00 0.  1.
         23    2    1    2    0    0  0.20012566588E+03 -0.31381604567E+03  0.18336831851E+03  0.42055819246E+03  0.68661927959E+02 0.  0.
         13    1    3    3    0    0  0.19593246103E+03 -0.26770204700E+03  0.16732873430E+03  0.37155459972E+03  0.00000000000E+00 0. -1.
        -13    1    3    3    0    0  0.41932048566E+01 -0.46113998663E+02  0.16039584215E+02  0.49003592740E+02  0.00000000000E+00 0.  1.
         22    1    1    2    0    0 -0.20012566588E+03  0.31381604567E+03  0.69419070135E+03  0.78767475680E+03  0.00000000000E+00 0. -1.
<mgrwt>
<rscale>  0 0.83049204E+03</rscale>
<asrwt>0</asrwt>
<pdfrwt beam="1">  1        2 0.16044553E+00 0.83049204E+03</pdfrwt>
<pdfrwt beam="2">  1       -2 0.25436457E-01 0.83049204E+03</pdfrwt>
<totfact> 0.32980956E+02</totfact>
</mgrwt>
</event>
<event>
 6    1  0.5040916E-004  0.1378188E+04  0.7818608E-02  0.8969760E-01
          2   -1    0    0  501    0  0.00000000000E+00  0.00000000000E+00  0.57986261081E+03  0.57986261081E+03  0.00000000000E+00 0.  1.
         -2   -1    0    0    0  501 -0.00000000000E+00 -0.00000000000E+00 -0.81890149501E+03  0.81890149501E+03  0.00000000000E+00 0. -1.
         23    2    1    2    0    0 -0.23401478909E+03 -0.11836731405E+03  0.52306847908E+03  0.59279799257E+03  0.95053056976E+02 0.  0.
         11    1    3    3    0    0 -0.13775816913E+03 -0.17311318404E+02  0.27926582012E+03  0.31187560532E+03  0.00000000000E+00 0.  1.
        -11    1    3    3    0    0 -0.96256619959E+02 -0.10105599565E+03  0.24380265896E+03  0.28092238725E+03  0.00000000000E+00 0. -1.
         22    1    1    2    0    0  0.23401478909E+03  0.11836731405E+03 -0.76210736328E+03  0.80596611325E+03  0.00000000000E+00 0. -1.
<mgrwt>
<rscale>  0 0.13781877E+04</rscale>
<asrwt>0</asrwt>
<pdfrwt beam="1">  1        2 0.89209632E-01 0.13781877E+04</pdfrwt>
<pdfrwt beam="2">  1       -2 0.12598485E+00 0.13781877E+04</pdfrwt>
<totfact> 0.23676727E+01</totfact>
</mgrwt>
</event>
<event>
 6    1  0.5040916E-004  0.9976913E+03  0.7818608E-02  0.9311081E-01
         -2   -1    0    0    0  501 -0.00000000000E+00  0.00000000000E+00  0.23120924330E+03  0.23120924330E+03  0.00000000000E+00 0.  1.
          2   -1    0    0  501    0  0.00000000000E+00 -0.00000000000E+00 -0.10762846578E+04  0.10762846578E+04  0.00000000000E+00 0. -1.
         23    2    1    2    0    0 -0.18151883418E+03 -0.42807091743E+03 -0.20523615843E+03  0.51655264466E+03  0.92254845247E+02 0.  0.
         13    1    3    3    0    0 -0.65921421211E+02 -0.64511685663E+02 -0.32757044608E+02  0.97879596101E+02  0.00000000000E+00 0.  1.
        -13    1    3    3    0    0 -0.11559741297E+03 -0.36355923177E+03 -0.17247911382E+03  0.41867304856E+03  0.00000000000E+00 0. -1.
         22    1    1    2    0    0  0.18151883418E+03  0.42807091743E+03 -0.63983925608E+03  0.79094125643E+03  0.00000000000E+00 0. -1.
<mgrwt>
<rscale>  0 0.99769126E+03</rscale>
<asrwt>0</asrwt>
<pdfrwt beam="1">  1        2 0.16558225E+00 0.99769126E+03</pdfrwt>
<pdfrwt beam="2">  1       -2 0.35570653E-01 0.99769126E+03</pdfrwt>
<totfact> 0.16692129E+02</totfact>
</mgrwt>
</event>
<event>
 6    1  0.5040916E-004  0.3892626E+04  0.7818608E-02  0.8026565E-01
         -2   -1    0    0    0  501 -0.00000000000E+00  0.00000000000E+00  0.22508917670E+04  0.22508917670E+04  0.00000000000E+00 0.  1.
          2   -1    0    0  501    0  0.00000000000E+00 -0.00000000000E+00 -0.16829484822E+04  0.16829484822E+04  0.00000000000E+00 0. -1.
         23    2    1    2    0    0  0.13474437527E+04 -0.53595421446E+03 -0.10262076192E+04  0.17788069105E+04  0.90555841077E+02 0.  0.
         13    1    3    3    0    0  0.42889444430E+03 -0.21025207516E+03 -0.31167896440E+03  0.57035090630E+03  0.00000000000E+00 0. -1.
        -13    1    3    3    0    0  0.91854930837E+03 -0.32570213930E+03 -0.71452865482E+03  0.12084560042E+04  0.00000000000E+00 0.  1.
         22    1    1    2    0    0 -0.13474437527E+04  0.53595421446E+03  0.15941509040E+04  0.21550333388E+04  0.00000000000E+00 0.  1.
<mgrwt>
<rscale>  0 0.38926263E+04</rscale>
<asrwt>0</asrwt>
<pdfrwt beam="1">  1        2 0.25891515E+00 0.38926263E+04</pdfrwt>
<pdfrwt beam="2">  1       -2 0.34629104E+00 0.38926263E+04</pdfrwt>
<totfact> 0.13092092E-01</totfact>
</mgrwt>
</event>
<event>
 6    1  0.5040916E-004  0.1839318E+04  0.7818608E-02  0.8685665E-01
         -2   -1    0    0    0  501 -0.00000000000E+00  0.00000000000E+00  0.27859870918E+03  0.27859870918E+03  0.00000000000E+00 0. -1.
          2   -1    0    0  501    0  0.00000000000E+00 -0.00000000000E+00 -0.30358106716E+04  0.30358106716E+04  0.00000000000E+00 0.  1.
         23    2    1    2    0    0 -0.36351731534E+03  0.76538126881E+03 -0.20152627466E+04  0.21881580926E+04  0.93800721036E+02 0.  0.
         13    1    3    3    0    0 -0.28977813330E+03  0.54676908582E+03 -0.15460282639E+04  0.16652721077E+04  0.00000000000E+00 0. -1.
        -13    1    3    3    0    0 -0.73739182042E+02  0.21861218299E+03 -0.46923448266E+03  0.52288598493E+03  0.00000000000E+00 0.  1.
         22    1    1    2    0    0  0.36351731534E+03 -0.76538126881E+03 -0.74194921577E+03  0.11262512881E+04  0.00000000000E+00 0. -1.
<mgrwt>
<rscale>  0 0.18393183E+04</rscale>
<asrwt>0</asrwt>
<pdfrwt beam="1">  1        2 0.46704782E+00 0.18393183E+04</pdfrwt>
<pdfrwt beam="2">  1       -2 0.42861338E-01 0.18393183E+04</pdfrwt>
<totfact> 0.80587123E+00</totfact>
</mgrwt>
</event>
<event>
 6    1  0.5040916E-004  0.3246355E+04  0.7818608E-02  0.8176681E-01
         -2   -1    0    0    0  501 -0.00000000000E+00  0.00000000000E+00  0.10967001993E+04  0.10967001993E+04  0.00000000000E+00 0. -1.
          2   -1    0    0  501    0  0.00000000000E+00 -0.00000000000E+00 -0.24023935057E+04  0.24023935057E+04  0.00000000000E+00 0.  1.
         23    2    1    2    0    0 -0.21019307247E+03 -0.10503256485E+04 -0.19665135736E+04  0.22405038109E+04  0.72914990028E+02 0.  0.
         13    1    3    3    0    0 -0.13333690643E+03 -0.51863051016E+03 -0.10278587990E+04  0.11589866467E+04  0.00000000000E+00 0.  1.
        -13    1    3    3    0    0 -0.76856166041E+02 -0.53169513839E+03 -0.93865477470E+03  0.10815171642E+04  0.00000000000E+00 0. -1.
         22    1    1    2    0    0  0.21019307247E+03  0.10503256485E+04  0.66082026728E+03  0.12585898940E+04  0.00000000000E+00 0. -1.
<mgrwt>
<rscale>  0 0.32463551E+04</rscale>
<asrwt>0</asrwt>
<pdfrwt beam="1">  1        2 0.36959899E+00 0.32463551E+04</pdfrwt>
<pdfrwt beam="2">  1       -2 0.16872311E+00 0.32463551E+04</pdfrwt>
<totfact> 0.72347735E-01</totfact>
</mgrwt>
</event>
<event>
 6    1  0.5040916E-004  0.1760120E+04  0.7818608E-02  0.8727799E-01
         -2   -1    0    0    0  501 -0.00000000000E+00  0.00000000000E+00  0.59882517496E+03  0.59882517496E+03  0.00000000000E+00 0. -1.
          2   -1    0    0  501    0  0.00000000000E+00 -0.00000000000E+00 -0.12933758569E+04  0.12933758569E+04  0.00000000000E+00 0.  1.
         23    2    1    2    0    0  0.12165350348E+03 -0.43490242752E+03 -0.11572585708E+04  0.12456422281E+04  0.91855671217E+02 0.  0.
         11    1    3    3    0    0  0.17901349273E+02 -0.95070586203E+02 -0.36034130901E+03  0.37310150582E+03  0.00000000000E+00 0.  1.
        -11    1    3    3    0    0  0.10375215420E+03 -0.33983184132E+03 -0.79691726177E+03  0.87254072225E+03  0.00000000000E+00 0. -1.
         22    1    1    2    0    0 -0.12165350348E+03  0.43490242752E+03  0.46270788884E+03  0.64655880380E+03  0.00000000000E+00 0. -1.
<mgrwt>
<rscale>  0 0.17601205E+04</rscale>
<asrwt>0</asrwt>
<pdfrwt beam="1">  1        2 0.19898090E+00 0.17601205E+04</pdfrwt>
<pdfrwt beam="2">  1       -2 0.92126952E-01 0.17601205E+04</pdfrwt>
<totfact> 0.15816888E+01</totfact>
</mgrwt>
</event>
<event>
 6    1  0.5040916E-004  0.3283825E+04  0.7818608E-02  0.8167023E-01
         -2   -1    0    0    0  501 -0.00000000000E+00  0.00000000000E+00  0.85683535308E+03  0.85683535308E+03  0.00000000000E+00 0.  1.
          2   -1    0    0  501    0  0.00000000000E+00 -0.00000000000E+00 -0.31463174279E+04  0.31463174279E+04  0.00000000000E+00 0. -1.
         23    2    1    2    0    0  0.17383984539E+02  0.12508494560E+04  0.14807355226E+03  0.12633345389E+04  0.95717374400E+02 0.  0.
         13    1    3    3    0    0  0.29242882480E+02  0.11123662257E+04  0.15836870973E+03  0.11239637069E+04  0.00000000000E+00 0. -1.
        -13    1    3    3    0    0 -0.11858897941E+02  0.13848323031E+03 -0.10295157466E+02  0.13937083198E+03  0.00000000000E+00 0.  1.
         22    1    1    2    0    0 -0.17383984539E+02 -0.12508494560E+04 -0.24375556270E+04  0.27398182420E+04  0.00000000000E+00 0. -1.
<mgrwt>
<rscale>  0 0.32838246E+04</rscale>
<asrwt>0</asrwt>
<pdfrwt beam="1">  1        2 0.48404883E+00 0.32838246E+04</pdfrwt>
<pdfrwt beam="2">  1       -2 0.13182082E+00 0.32838246E+04</pdfrwt>
<totfact> 0.49220398E-01</totfact>
</mgrwt>
</event>
<event>
 6    1  0.5040916E-004  0.2130857E+04  0.7818608E-02  0.8547771E-01
         -2   -1    0    0    0  501 -0.00000000000E+00  0.00000000000E+00  0.93673909479E+03  0.93673909479E+03  0.00000000000E+00 0. -1.
          2   -1    0    0  501    0  0.00000000000E+00 -0.00000000000E+00 -0.12117969976E+04  0.12117969976E+04  0.00000000000E+00 0.  1.
         23    2    1    2    0    0 -0.58846167499E+02 -0.56617410699E+03  0.76802786572E+03  0.96024155341E+03  0.90449143283E+02 0.  0.
         11    1    3    3    0    0 -0.41650174398E+02 -0.49482526915E+03  0.71127190419E+03  0.86746441178E+03  0.00000000000E+00 0.  1.
        -11    1    3    3    0    0 -0.17195993101E+02 -0.71348837842E+02  0.56755961530E+02  0.92777141632E+02  0.00000000000E+00 0. -1.
         22    1    1    2    0    0  0.58846167499E+02  0.56617410699E+03 -0.10430857685E+04  0.11882945390E+04  0.00000000000E+00 0.  1.
<mgrwt>
<rscale>  0 0.21308568E+04</rscale>
<asrwt>0</asrwt>
<pdfrwt beam="1">  1        2 0.18643031E+00 0.21308568E+04</pdfrwt>
<pdfrwt beam="2">  1       -2 0.14411371E+00 0.21308568E+04</pdfrwt>
<totfact> 0.57050172E+00</totfact>
</mgrwt>
</event>
<event>
 6    1  0.5040916E-004  0.2843986E+04  0.7818608E-02  0.8289741E-01
         -2   -1    0    0    0  501 -0.00000000000E+00  0.00000000000E+00  0.92977632386E+03  0.92977632386E+03  0.00000000000E+00 0. -1.
          2   -1    0    0  501    0  0.00000000000E+00 -0.00000000000E+00 -0.21747854683E+04  0.21747854683E+04  0.00000000000E+00 0.  1.
         23    2    1    2    0    0 -0.10809288344E+04  0.72016454440E+03  0.49767064509E+01  0.13019224096E+04  0.89067821491E+02 0.  0.
         11    1    3    3    0    0 -0.81658256708E+03  0.58183358599E+03  0.24129646038E+02  0.10029554579E+04  0.00000000000E+00 0. -1.
        -11    1    3    3    0    0 -0.26434626737E+03  0.13833095840E+03 -0.19152939587E+02  0.29896695172E+03  0.00000000000E+00 0.  1.
         22    1    1    2    0    0  0.10809288344E+04 -0.72016454440E+03 -0.12499858509E+04  0.18026393826E+04  0.00000000000E+00 0.  1.
<mgrwt>
<rscale>  0 0.28439860E+04</rscale>
<asrwt>0</asrwt>
<pdfrwt beam="1">  1        2 0.33458238E+00 0.28439860E+04</pdfrwt>
<pdfrwt beam="2">  1       -2 0.14304251E+00 0.28439860E+04</pdfrwt>
<totfact> 0.15707337E+00</totfact>
</mgrwt>
</event>
<event>
 6    1  0.7938304E-004  0.4378198E+04  0.7818608E-02  0.7932315E-01
          2   -1    0    0  501    0  0.00000000000E+00  0.00000000000E+00  0.31393220217E+04  0.31393220217E+04  0.00000000000E+00 0.  1.
         -2   -1    0    0    0  501 -0.00000000000E+00 -0.00000000000E+00 -0.15264937329E+04  0.15264937329E+04  0.00000000000E+00 0. -1.
         23    2    1    2    0    0 -0.54262973146E+03 -0.94605558786E+03  0.28283816964E+04  0.30327088115E+04  0.90063942737E+02 0.  0.
         11    1    3    3    0    0 -0.19227152507E+03 -0.29814801130E+03  0.10273324776E+04  0.10868636508E+04  0.00000000000E+00 0.  1.
        -11    1    3    3    0    0 -0.35035820639E+03 -0.64790757656E+03  0.18010492189E+04  0.19458451607E+04  0.00000000000E+00 0. -1.
         22    1    1    2    0    0  0.54262973146E+03  0.94605558786E+03 -0.12155534076E+04  0.16331069431E+04  0.00000000000E+00 0. -1.
<mgrwt>
<rscale>  0 0.43781984E+04</rscale>
<asrwt>0</asrwt>
<pdfrwt beam="1">  1        2 0.48297262E+00 0.43781984E+04</pdfrwt>
<pdfrwt beam="2">  1       -2 0.23484519E+00 0.43781984E+04</pdfrwt>
<totfact> 0.86564568E-02</totfact>
</mgrwt>
</event>
<event>
 6    1  0.5040916E-004  0.3096211E+04  0.7818608E-02  0.8216779E-01
          2   -1    0    0  501    0  0.00000000000E+00  0.00000000000E+00  0.15930059382E+04  0.15930059382E+04  0.00000000000E+00 0.  1.
         -2   -1    0    0    0  501 -0.00000000000E+00 -0.00000000000E+00 -0.15044703562E+04  0.15044703562E+04  0.00000000000E+00 0. -1.
         23    2    1    2    0    0 -0.90953928259E+03  0.11228772609E+04  0.59599726777E+03  0.15659305353E+04  0.93865055466E+02 0.  0.
         11    1    3    3    0    0 -0.75523638918E+02  0.13852732833E+03  0.71623556812E+02  0.17327312146E+03  0.00000000000E+00 0. -1.
        -11    1    3    3    0    0 -0.83401564367E+03  0.98434993261E+03  0.52437371095E+03  0.13926574139E+04  0.00000000000E+00 0.  1.
         22    1    1    2    0    0  0.90953928259E+03 -0.11228772609E+04 -0.50746168579E+03  0.15315457591E+04  0.00000000000E+00 0. -1.
<mgrwt>
<rscale>  0 0.30962107E+04</rscale>
<asrwt>0</asrwt>
<pdfrwt beam="1">  1        2 0.24507784E+00 0.30962107E+04</pdfrwt>
<pdfrwt beam="2">  1       -2 0.23145698E+00 0.30962107E+04</pdfrwt>
<totfact> 0.80017959E-01</totfact>
</mgrwt>
</event>
<event>
 6    1  0.5040916E-004  0.2407875E+04  0.7818608E-02  0.8436561E-01
          2   -1    0    0  501    0  0.00000000000E+00  0.00000000000E+00  0.12168360205E+04  0.12168360205E+04  0.00000000000E+00 0.  1.
         -2   -1    0    0    0  501 -0.00000000000E+00 -0.00000000000E+00 -0.11911752846E+04  0.11911752846E+04  0.00000000000E+00 0. -1.
         23    2    1    2    0    0 -0.10867093809E+04  0.44412712715E+03 -0.24647160402E+03  0.12029211865E+04  0.89916326260E+02 0.  0.
         13    1    3    3    0    0 -0.55568040169E+03  0.24772435492E+03 -0.86090276118E+02  0.61445878664E+03  0.00000000000E+00 0. -1.
        -13    1    3    3    0    0 -0.53102897919E+03  0.19640277224E+03 -0.16038132790E+03  0.58846239983E+03  0.00000000000E+00 0.  1.
         22    1    1    2    0    0  0.10867093809E+04 -0.44412712715E+03  0.27213233993E+03  0.12050901186E+04  0.00000000000E+00 0.  1.
<mgrwt>
<rscale>  0 0.24078746E+04</rscale>
<asrwt>0</asrwt>
<pdfrwt beam="1">  1        2 0.18720554E+00 0.24078746E+04</pdfrwt>
<pdfrwt beam="2">  1       -2 0.18325774E+00 0.24078746E+04</pdfrwt>
<totfact> 0.28640921E+00</totfact>
</mgrwt>
</event>
<event>
 6    1  0.5040916E-004  0.2731446E+04  0.7818608E-02  0.8324874E-01
         -1   -1    0    0    0  501 -0.00000000000E+00  0.00000000000E+00  0.12830807666E+04  0.12830807666E+04  0.00000000000E+00 0. -1.
          1   -1    0    0  501    0  0.00000000000E+00 -0.00000000000E+00 -0.14536876455E+04  0.14536876455E+04  0.00000000000E+00 0.  1.
         23    2    1    2    0    0 -0.44925755923E+03  0.98505986880E+03 -0.91711953824E+03  0.14216804112E+04  0.88834928539E+02 0.  0.
         13    1    3    3    0    0 -0.82338911886E+02  0.14082578193E+03 -0.10401221631E+03  0.19346870137E+03  0.00000000000E+00 0.  1.
        -13    1    3    3    0    0 -0.36691864734E+03  0.84423408687E+03 -0.81310732193E+03  0.12282117098E+04  0.00000000000E+00 0. -1.
         22    1    1    2    0    0  0.44925755923E+03 -0.98505986880E+03  0.74651265934E+03  0.13150880009E+04  0.00000000000E+00 0. -1.
<mgrwt>
<rscale>  0 0.27314455E+04</rscale>
<asrwt>0</asrwt>
<pdfrwt beam="1">  1        1 0.22364425E+00 0.27314455E+04</pdfrwt>
<pdfrwt beam="2">  1       -1 0.19739704E+00 0.27314455E+04</pdfrwt>
<totfact> 0.96255790E-01</totfact>
</mgrwt>
</event>
<event>
 6    1  0.5040916E-004  0.2184007E+04  0.7818608E-02  0.8525114E-01
         -2   -1    0    0    0  501 -0.00000000000E+00  0.00000000000E+00  0.13053237365E+04  0.13053237365E+04  0.00000000000E+00 0.  1.
          2   -1    0    0  501    0  0.00000000000E+00 -0.00000000000E+00 -0.91354473034E+03  0.91354473034E+03  0.00000000000E+00 0. -1.
         23    2    1    2    0    0  0.99248173854E+03 -0.44707405725E+03  0.25229337814E+03  0.11214389910E+04  0.95279839890E+02 0.  0.
         11    1    3    3    0    0  0.55769228028E+03 -0.20523175264E+03  0.11450263626E+03  0.60518724829E+03  0.00000000000E+00 0.  1.
        -11    1    3    3    0    0  0.43478945825E+03 -0.24184230461E+03  0.13779074188E+03  0.51625174271E+03  0.00000000000E+00 0. -1.
         22    1    1    2    0    0 -0.99248173854E+03  0.44707405725E+03  0.13948562801E+03  0.10974294758E+04  0.00000000000E+00 0.  1.
<mgrwt>
<rscale>  0 0.21840070E+04</rscale>
<asrwt>0</asrwt>
<pdfrwt beam="1">  1        2 0.14054534E+00 0.21840070E+04</pdfrwt>
<pdfrwt beam="2">  1       -2 0.20081903E+00 0.21840070E+04</pdfrwt>
<totfact> 0.34506913E+00</totfact>
</mgrwt>
</event>
<event>
 6    1  0.5040916E-004  0.5878052E+03  0.7818608E-02  0.9931034E-01
          2   -1    0    0  501    0  0.00000000000E+00  0.00000000000E+00  0.33419843587E+03  0.33419843587E+03  0.00000000000E+00 0.  1.
         -2   -1    0    0    0  501 -0.00000000000E+00 -0.00000000000E+00 -0.25846541497E+03  0.25846541497E+03  0.00000000000E+00 0. -1.
         23    2    1    2    0    0  0.22444198397E+03 -0.14762681632E+03  0.13970936352E+03  0.31651017355E+03  0.92152605156E+02 0.  0.
         13    1    3    3    0    0  0.69669358076E+02 -0.99118666652E+02  0.49140752649E+02  0.13074074768E+03  0.00000000000E+00 0.  1.
        -13    1    3    3    0    0  0.15477262590E+03 -0.48508149671E+02  0.90568610870E+02  0.18576942587E+03  0.00000000000E+00 0. -1.
         22    1    1    2    0    0 -0.22444198397E+03  0.14762681632E+03 -0.63976342617E+02  0.27615367729E+03  0.00000000000E+00 0. -1.
<mgrwt>
<rscale>  0 0.58780520E+03</rscale>
<asrwt>0</asrwt>
<pdfrwt beam="1">  1        2 0.51415144E-01 0.58780520E+03</pdfrwt>
<pdfrwt beam="2">  1       -2 0.39763910E-01 0.58780520E+03</pdfrwt>
<totfact> 0.58647734E+02</totfact>
</mgrwt>
</event>
<event>
 6    1  0.5040916E-004  0.1280417E+04  0.7818608E-02  0.9045240E-01
          2   -1    0    0  501    0  0.00000000000E+00  0.00000000000E+00  0.12710223569E+04  0.12710223569E+04  0.00000000000E+00 0.  1.
         -2   -1    0    0    0  501 -0.00000000000E+00 -0.00000000000E+00 -0.32247037327E+03  0.32247037327E+03  0.00000000000E+00 0. -1.
         23    2    1    2    0    0  0.36986765311E+03 -0.47599212121E+03  0.22028579955E+03  0.64811332742E+03  0.90302111940E+02 0.  0.
         11    1    3    3    0    0  0.14568691693E+03 -0.20674466345E+03  0.47020717135E+02  0.25725275795E+03  0.00000000000E+00 0.  1.
        -11    1    3    3    0    0  0.22418073617E+03 -0.26924745776E+03  0.17326508242E+03  0.39086056947E+03  0.00000000000E+00 0. -1.
         22    1    1    2    0    0 -0.36986765311E+03  0.47599212121E+03  0.72826618403E+03  0.94537940271E+03  0.00000000000E+00 0.  1.
<mgrwt>
<rscale>  0 0.12804172E+04</rscale>
<asrwt>0</asrwt>
<pdfrwt beam="1">  1        2 0.19554190E+00 0.12804172E+04</pdfrwt>
<pdfrwt beam="2">  1       -2 0.49610827E-01 0.12804172E+04</pdfrwt>
<totfact> 0.64856668E+01</totfact>
</mgrwt>
</event>
<event>
 6    1  0.5040916E-004  0.2014272E+04  0.7818608E-02  0.8599977E-01
          2   -1    0    0  501    0  0.00000000000E+00  0.00000000000E+00  0.17509286944E+04  0.17509286944E+04  0.00000000000E+00 0.  1.
         -2   -1    0    0    0  501 -0.00000000000E+00 -0.00000000000E+00 -0.57930576982E+03  0.57930576982E+03  0.00000000000E+00 0. -1.
         23    2    1    2    0    0  0.58108235360E+02  0.97530652957E+03  0.31424633551E+03  0.10303521583E+04  0.90969320011E+02 0.  0.
         13    1    3    3    0    0 -0.20728792387E+02  0.36951082198E+03  0.10694504070E+03  0.38523391871E+03  0.00000000000E+00 0.  1.
        -13    1    3    3    0    0  0.78837027747E+02  0.60579570759E+03  0.20730129481E+03  0.64511823964E+03  0.00000000000E+00 0. -1.
         22    1    1    2    0    0 -0.58108235360E+02 -0.97530652957E+03  0.85737658904E+03  0.12998823059E+04  0.00000000000E+00 0.  1.
<mgrwt>
<rscale>  0 0.20142722E+04</rscale>
<asrwt>0</asrwt>
<pdfrwt beam="1">  1        2 0.26937364E+00 0.20142722E+04</pdfrwt>
<pdfrwt beam="2">  1       -2 0.89123965E-01 0.20142722E+04</pdfrwt>
<totfact> 0.92158390E+00</totfact>
</mgrwt>
</event>
<event>
 6    1  0.5040916E-004  0.1824339E+04  0.7818608E-02  0.8693462E-01
         -2   -1    0    0    0  501 -0.00000000000E+00  0.00000000000E+00  0.51753256792E+03  0.51753256792E+03  0.00000000000E+00 0. -1.
          2   -1    0    0  501    0  0.00000000000E+00 -0.00000000000E+00 -0.16077318075E+04  0.16077318075E+04  0.00000000000E+00 0.  1.
         23    2    1    2    0    0  0.67624059000E+03 -0.33979918082E+03 -0.11347669951E+04  0.13671409662E+04  0.92808778180E+02 0.  0.
         13    1    3    3    0    0  0.29538167675E+03 -0.10579878188E+03 -0.42322984043E+03  0.52684648147E+03  0.00000000000E+00 0.  1.
        -13    1    3    3    0    0  0.38085891325E+03 -0.23400039894E+03 -0.71153715472E+03  0.84029448472E+03  0.00000000000E+00 0. -1.
         22    1    1    2    0    0 -0.67624059000E+03  0.33979918082E+03  0.44567755521E+02  0.75812340927E+03  0.00000000000E+00 0. -1.
<mgrwt>
<rscale>  0 0.18243394E+04</rscale>
<asrwt>0</asrwt>
<pdfrwt beam="1">  1        2 0.24734336E+00 0.18243394E+04</pdfrwt>
<pdfrwt beam="2">  1       -2 0.79620395E-01 0.18243394E+04</pdfrwt>
<totfact> 0.14534777E+01</totfact>
</mgrwt>
</event>
<event>
 6    1  0.5040916E-004  0.2224673E+04  0.7818608E-02  0.8508228E-01
          2   -1    0    0  501    0  0.00000000000E+00  0.00000000000E+00  0.21893453751E+04  0.21893453751E+04  0.00000000000E+00 0. -1.
         -2   -1    0    0    0  501 -0.00000000000E+00 -0.00000000000E+00 -0.56514245512E+03  0.56514245512E+03  0.00000000000E+00 0.  1.
         23    2    1    2    0    0 -0.41158865690E+03  0.30638033684E+03  0.20327733497E+04  0.20985885016E+04  0.92908958170E+02 0.  0.
         11    1    3    3    0    0 -0.26433412435E+03  0.24437114055E+03  0.13276009124E+04  0.13755413357E+04  0.00000000000E+00 0.  1.
        -11    1    3    3    0    0 -0.14725453255E+03  0.62009196296E+02  0.70517243734E+03  0.72304716593E+03  0.00000000000E+00 0. -1.
         22    1    1    2    0    0  0.41158865690E+03 -0.30638033684E+03 -0.40857042969E+03  0.65589932864E+03  0.00000000000E+00 0.  1.
<mgrwt>
<rscale>  0 0.22246726E+04</rscale>
<asrwt>0</asrwt>
<pdfrwt beam="1">  1        2 0.33682236E+00 0.22246726E+04</pdfrwt>
<pdfrwt beam="2">  1       -2 0.86944994E-01 0.22246726E+04</pdfrwt>
<totfact> 0.54638158E+00</totfact>
</mgrwt>
</event>
<event>
 6    1  0.5040916E-004  0.2066796E+04  0.7818608E-02  0.8576013E-01
         -2   -1    0    0    0  501 -0.00000000000E+00  0.00000000000E+00  0.61400464893E+03  0.61400464893E+03  0.00000000000E+00 0. -1.
          2   -1    0    0  501    0  0.00000000000E+00 -0.00000000000E+00 -0.17392567507E+04  0.17392567507E+04  0.00000000000E+00 0.  1.
         23    2    1    2    0    0  0.25379158971E+02 -0.29827796131E+03  0.56013811959E+03  0.64149212717E+03  0.90241854353E+02 0.  0.
         11    1    3    3    0    0 -0.26051879136E+02 -0.19976784566E+03  0.35425659879E+03  0.40753359414E+03  0.00000000000E+00 0. -1.
        -11    1    3    3    0    0  0.51431038107E+02 -0.98510115652E+02  0.20588152080E+03  0.23395853302E+03  0.00000000000E+00 0.  1.
         22    1    1    2    0    0 -0.25379158971E+02  0.29827796131E+03 -0.16853902214E+04  0.17117692725E+04  0.00000000000E+00 0.  1.
<mgrwt>
<rscale>  0 0.20667963E+04</rscale>
<asrwt>0</asrwt>
<pdfrwt beam="1">  1        2 0.26757796E+00 0.20667963E+04</pdfrwt>
<pdfrwt beam="2">  1       -2 0.94462255E-01 0.20667963E+04</pdfrwt>
<totfact> 0.81389861E+00</totfact>
</mgrwt>
</event>
<event>
 6    1  0.5040916E-004  0.1946345E+04  0.7818608E-02  0.8632125E-01
         -2   -1    0    0    0  501 -0.00000000000E+00  0.00000000000E+00  0.14226889501E+04  0.14226889501E+04  0.00000000000E+00 0. -1.
          2   -1    0    0  501    0  0.00000000000E+00 -0.00000000000E+00 -0.66568631855E+03  0.66568631855E+03  0.00000000000E+00 0.  1.
         23    2    1    2    0    0 -0.81437065814E+03 -0.26051752788E+03  0.87318023851E+03  0.12254927810E+04  0.91213355122E+02 0.  0.
         13    1    3    3    0    0 -0.50712898131E+03 -0.20695750528E+03  0.54156117219E+03  0.77025951205E+03  0.00000000000E+00 0. -1.
        -13    1    3    3    0    0 -0.30724167683E+03 -0.53560022605E+02  0.33161906631E+03  0.45523326894E+03  0.00000000000E+00 0.  1.
         22    1    1    2    0    0  0.81437065814E+03  0.26051752788E+03 -0.11617760694E+03  0.86288248767E+03  0.00000000000E+00 0. -1.
<mgrwt>
<rscale>  0 0.19463449E+04</rscale>
<asrwt>0</asrwt>
<pdfrwt beam="1">  1        2 0.10241328E+00 0.19463449E+04</pdfrwt>
<pdfrwt beam="2">  1       -2 0.21887522E+00 0.19463449E+04</pdfrwt>
<totfact> 0.40896227E+00</totfact>
</mgrwt>
</event>
<event>
 6    1  0.5040916E-004  0.8854276E+03  0.7818608E-02  0.9443983E-01
         -2   -1    0    0    0  501 -0.00000000000E+00  0.00000000000E+00  0.12062024351E+03  0.12062024351E+03  0.00000000000E+00 0. -1.
          2   -1    0    0  501    0  0.00000000000E+00 -0.00000000000E+00 -0.16248971734E+04  0.16248971734E+04  0.00000000000E+00 0.  1.
         23    2    1    2    0    0 -0.30984967769E+03 -0.29400730243E+03 -0.56829053589E+03  0.71667454921E+03  0.90670610792E+02 0.  0.
         11    1    3    3    0    0 -0.23206473787E+03 -0.25454676103E+03 -0.49323453141E+03  0.60160485294E+03  0.00000000000E+00 0. -1.
        -11    1    3    3    0    0 -0.77784939824E+02 -0.39460541403E+02 -0.75056004482E+02  0.11506969627E+03  0.00000000000E+00 0.  1.
         22    1    1    2    0    0  0.30984967769E+03  0.29400730243E+03 -0.93598639397E+03  0.10288428677E+04  0.00000000000E+00 0.  1.
<mgrwt>
<rscale>  0 0.88542756E+03</rscale>
<asrwt>0</asrwt>
<pdfrwt beam="1">  1        2 0.24998418E+00 0.88542756E+03</pdfrwt>
<pdfrwt beam="2">  1       -2 0.18556960E-01 0.88542756E+03</pdfrwt>
<totfact> 0.26440456E+02</totfact>
</mgrwt>
</event>
<event>
 6    1  0.5040916E-004  0.2933348E+04  0.7818608E-02  0.8263024E-01
         -2   -1    0    0    0  501 -0.00000000000E+00  0.00000000000E+00  0.15226343212E+04  0.15226343212E+04  0.00000000000E+00 0. -1.
          2   -1    0    0  501    0  0.00000000000E+00 -0.00000000000E+00 -0.14127707911E+04  0.14127707911E+04  0.00000000000E+00 0.  1.
         23    2    1    2    0    0  0.40903153417E+03 -0.96272794620E+03 -0.97186852695E+03  0.14306472788E+04  0.89840459843E+02 0.  0.
         11    1    3    3    0    0  0.34201147148E+03 -0.78313242490E+03 -0.74567433464E+03  0.11341509842E+04  0.00000000000E+00 0.  1.
        -11    1    3    3    0    0  0.67020062689E+02 -0.17959552130E+03 -0.22619419231E+03  0.29649629460E+03  0.00000000000E+00 0. -1.
         22    1    1    2    0    0 -0.40903153417E+03  0.96272794620E+03  0.10817320570E+04  0.15047578335E+04  0.00000000000E+00 0. -1.
<mgrwt>
<rscale>  0 0.29333485E+04</rscale>
<asrwt>0</asrwt>
<pdfrwt beam="1">  1        2 0.21734935E+00 0.29333485E+04</pdfrwt>
<pdfrwt beam="2">  1       -2 0.23425143E+00 0.29333485E+04</pdfrwt>
<totfact> 0.98502043E-01</totfact>
</mgrwt>
</event>
<event>
 6    1  0.5040916E-004  0.4509874E+04  0.7818608E-02  0.7908910E-01
          2   -1    0    0  501    0  0.00000000000E+00  0.00000000000E+00  0.29849798660E+04  0.29849798660E+04  0.00000000000E+00 0.  1.
         -2   -1    0    0    0  501 -0.00000000000E+00 -0.00000000000E+00 -0.17034424004E+04  0.17034424004E+04  0.00000000000E+00 0. -1.
         23    2    1    2    0    0 -0.17667437716E+04  0.11872836739E+04  0.14116674149E+04  0.25558276306E+04  0.91781863480E+02 0.  0.
         11    1    3    3    0    0 -0.11775770934E+04  0.84288710886E+03  0.96188123335E+03  0.17384941749E+04  0.00000000000E+00 0.  1.
        -11    1    3    3    0    0 -0.58916667823E+03  0.34439656500E+03  0.44978618160E+03  0.81733345574E+03  0.00000000000E+00 0. -1.
         22    1    1    2    0    0  0.17667437716E+04 -0.11872836739E+04 -0.13012994940E+03  0.21325946357E+04  0.00000000000E+00 0.  1.
<mgrwt>
<rscale>  0 0.45098742E+04</rscale>
<asrwt>0</asrwt>
<pdfrwt beam="1">  1        2 0.45922767E+00 0.45098742E+04</pdfrwt>
<pdfrwt beam="2">  1       -2 0.26206806E+00 0.45098742E+04</pdfrwt>
<totfact> 0.72963907E-02</totfact>
</mgrwt>
</event>
<event>
 6    1  0.5040916E-004  0.1109271E+04  0.7818608E-02  0.9196202E-01
          2   -1    0    0  501    0  0.00000000000E+00  0.00000000000E+00  0.56644935967E+03  0.56644935967E+03  0.00000000000E+00 0.  1.
         -2   -1    0    0    0  501 -0.00000000000E+00 -0.00000000000E+00 -0.54306845566E+03  0.54306845566E+03  0.00000000000E+00 0. -1.
         23    2    1    2    0    0 -0.49871595703E+03  0.20742554661E+02 -0.22084308518E+03  0.55382615958E+03  0.93829032777E+02 0.  0.
         11    1    3    3    0    0 -0.25210964765E+02  0.14715796725E+02 -0.33852771506E+02  0.44700755657E+02  0.00000000000E+00 0.  1.
        -11    1    3    3    0    0 -0.47350499227E+03  0.60267579359E+01 -0.18699031367E+03  0.50912540392E+03  0.00000000000E+00 0. -1.
         22    1    1    2    0    0  0.49871595703E+03 -0.20742554661E+02  0.24422398918E+03  0.55569165575E+03  0.00000000000E+00 0.  1.
<mgrwt>
<rscale>  0 0.11092714E+04</rscale>
<asrwt>0</asrwt>
<pdfrwt beam="1">  1        2 0.87146055E-01 0.11092714E+04</pdfrwt>
<pdfrwt beam="2">  1       -2 0.83548993E-01 0.11092714E+04</pdfrwt>
<totfact> 0.66129680E+01</totfact>
</mgrwt>
</event>
<event>
 6    1  0.5040916E-004  0.3287927E+04  0.7818608E-02  0.8165974E-01
         -2   -1    0    0    0  501 -0.00000000000E+00  0.00000000000E+00  0.17047455195E+04  0.17047455195E+04  0.00000000000E+00 0. -1.
          2   -1    0    0  501    0  0.00000000000E+00 -0.00000000000E+00 -0.15853487735E+04  0.15853487735E+04  0.00000000000E+00 0.  1.
         23    2    1    2    0    0 -0.63853317868E+03 -0.12654862625E+04 -0.77104487841E+03  0.16161569024E+04  0.90955087241E+02 0.  0.
         13    1    3    3    0    0 -0.24678550123E+03 -0.44262726239E+03 -0.23237659640E+03  0.55751310261E+03  0.00000000000E+00 0.  1.
        -13    1    3    3    0    0 -0.39174767745E+03 -0.82285900013E+03 -0.53866828201E+03  0.10586437998E+04  0.00000000000E+00 0. -1.
         22    1    1    2    0    0  0.63853317868E+03  0.12654862625E+04  0.89044162447E+03  0.16739373906E+04  0.00000000000E+00 0. -1.
<mgrwt>
<rscale>  0 0.32879271E+04</rscale>
<asrwt>0</asrwt>
<pdfrwt beam="1">  1        2 0.24389981E+00 0.32879271E+04</pdfrwt>
<pdfrwt beam="2">  1       -2 0.26226854E+00 0.32879271E+04</pdfrwt>
<totfact> 0.51343255E-01</totfact>
</mgrwt>
</event>
<event>
 6    1  0.5040916E-004  0.6764845E+03  0.7818608E-02  0.9758314E-01
          2   -1    0    0  501    0  0.00000000000E+00  0.00000000000E+00  0.23866719694E+03  0.23866719694E+03  0.00000000000E+00 0.  1.
         -2   -1    0    0    0  501 -0.00000000000E+00 -0.00000000000E+00 -0.47936130970E+03  0.47936130970E+03  0.00000000000E+00 0. -1.
         23    2    1    2    0    0 -0.10004618538E+03 -0.27903183098E+03  0.33081171734E+02  0.31451777778E+03  0.99795123649E+02 0.  0.
         11    1    3    3    0    0 -0.90941748406E+02 -0.12664237705E+03 -0.89719041099E+01  0.15617038238E+03  0.00000000000E+00 0.  1.
        -11    1    3    3    0    0 -0.91044369732E+01 -0.15238945393E+03  0.42053075844E+02  0.15834739540E+03  0.00000000000E+00 0. -1.
         22    1    1    2    0    0  0.10004618538E+03  0.27903183098E+03 -0.27377528450E+03  0.40351072887E+03  0.00000000000E+00 0. -1.
<mgrwt>
<rscale>  0 0.67648450E+03</rscale>
<asrwt>0</asrwt>
<pdfrwt beam="1">  1        2 0.36718030E-01 0.67648450E+03</pdfrwt>
<pdfrwt beam="2">  1       -2 0.73747894E-01 0.67648450E+03</pdfrwt>
<totfact> 0.23734916E+02</totfact>
</mgrwt>
</event>
<event>
 6    1  0.5040916E-004  0.2856276E+04  0.7818608E-02  0.8286007E-01
          2   -1    0    0  501    0  0.00000000000E+00  0.00000000000E+00  0.21332721604E+04  0.21332721604E+04  0.00000000000E+00 0.  1.
         -2   -1    0    0    0  501 -0.00000000000E+00 -0.00000000000E+00 -0.95607982418E+03  0.95607982418E+03  0.00000000000E+00 0. -1.
         23    2    1    2    0    0  0.47427516777E+03 -0.82642346521E+03 -0.55957751090E+03  0.11083718786E+04  0.86304993292E+02 0.  0.
         13    1    3    3    0    0  0.46901382763E+03 -0.78543723165E+03 -0.52700885812E+03  0.10557575251E+04  0.00000000000E+00 0. -1.
        -13    1    3    3    0    0  0.52613401483E+01 -0.40986233555E+02 -0.32568652777E+02  0.52614353411E+02  0.00000000000E+00 0.  1.
         22    1    1    2    0    0 -0.47427516777E+03  0.82642346521E+03  0.17367698471E+04  0.19809801060E+04  0.00000000000E+00 0.  1.
<mgrwt>
<rscale>  0 0.28562762E+04</rscale>
<asrwt>0</asrwt>
<pdfrwt beam="1">  1        2 0.32819572E+00 0.28562762E+04</pdfrwt>
<pdfrwt beam="2">  1       -2 0.14708920E+00 0.28562762E+04</pdfrwt>
<totfact> 0.15386271E+00</totfact>
</mgrwt>
</event>
<event>
 6    1  0.5040916E-004  0.2256855E+04  0.7818608E-02  0.8495129E-01
          2   -1    0    0  501    0  0.00000000000E+00  0.00000000000E+00  0.12422967843E+04  0.12422967843E+04  0.00000000000E+00 0.  1.
         -2   -1    0    0    0  501 -0.00000000000E+00 -0.00000000000E+00 -0.10249956133E+04  0.10249956133E+04  0.00000000000E+00 0. -1.
         23    2    1    2    0    0  0.73315688023E+03 -0.33405370145E+03 -0.68226461834E+03  0.10596792575E+04  0.91237234443E+02 0.  0.
         13    1    3    3    0    0  0.37089462967E+03 -0.21897272389E+03 -0.36515072484E+03  0.56466532740E+03  0.00000000000E+00 0.  1.
        -13    1    3    3    0    0  0.36226225056E+03 -0.11508097756E+03 -0.31711389350E+03  0.49501393014E+03  0.00000000000E+00 0. -1.
         22    1    1    2    0    0 -0.73315688023E+03  0.33405370145E+03  0.89956578936E+03  0.12076131400E+04  0.00000000000E+00 0.  1.
<mgrwt>
<rscale>  0 0.22568551E+04</rscale>
<asrwt>0</asrwt>
<pdfrwt beam="1">  1        2 0.19112258E+00 0.22568551E+04</pdfrwt>
<pdfrwt beam="2">  1       -2 0.15769163E+00 0.22568551E+04</pdfrwt>
<totfact> 0.42617304E+00</totfact>
</mgrwt>
</event>
<event>
 6    1  0.5040916E-004  0.9255113E+03  0.7818608E-02  0.9394241E-01
          2   -1    0    0  501    0  0.00000000000E+00  0.00000000000E+00  0.21498233102E+04  0.21498233102E+04  0.00000000000E+00 0.  1.
         -2   -1    0    0    0  501 -0.00000000000E+00 -0.00000000000E+00 -0.99609488774E+02  0.99609488774E+02  0.00000000000E+00 0. -1.
         23    2    1    2    0    0  0.40047637074E+02  0.27478916852E+03  0.19210269126E+04  0.19431614197E+04  0.91755128109E+02 0.  0.
         11    1    3    3    0    0  0.69403152363E+02  0.21010151619E+03  0.14806745221E+04  0.14971160559E+04  0.00000000000E+00 0.  1.
        -11    1    3    3    0    0 -0.29355515289E+02  0.64687652327E+02  0.44035239057E+03  0.44604536375E+03  0.00000000000E+00 0. -1.
         22    1    1    2    0    0 -0.40047637074E+02 -0.27478916852E+03  0.12918690880E+03  0.30627137929E+03  0.00000000000E+00 0. -1.
<mgrwt>
<rscale>  0 0.92551132E+03</rscale>
<asrwt>0</asrwt>
<pdfrwt beam="1">  1        2 0.33074201E+00 0.92551132E+03</pdfrwt>
<pdfrwt beam="2">  1       -2 0.15324538E-01 0.92551132E+03</pdfrwt>
<totfact> 0.18851479E+02</totfact>
</mgrwt>
</event>
<event>
 6    1  0.5040916E-004  0.6949494E+03  0.7818608E-02  0.9725909E-01
          2   -1    0    0  501    0  0.00000000000E+00  0.00000000000E+00  0.18599031026E+03  0.18599031026E+03  0.00000000000E+00 0.  1.
         -2   -1    0    0    0  501 -0.00000000000E+00 -0.00000000000E+00 -0.64916647186E+03  0.64916647186E+03  0.00000000000E+00 0. -1.
         23    2    1    2    0    0  0.26495008726E+03  0.13559941620E+03 -0.42826119715E+03  0.53548228344E+03  0.12144081883E+03 0.  0.
         13    1    3    3    0    0  0.83874198422E+02  0.54775133041E+02 -0.24812048570E+03  0.26757984188E+03  0.00000000000E+00 0. -1.
        -13    1    3    3    0    0  0.18107588884E+03  0.80824283162E+02 -0.18014071146E+03  0.26790244156E+03  0.00000000000E+00 0.  1.
         22    1    1    2    0    0 -0.26495008726E+03 -0.13559941620E+03 -0.34914964455E+02  0.29967449868E+03  0.00000000000E+00 0.  1.
<mgrwt>
<rscale>  0 0.69494942E+03</rscale>
<asrwt>0</asrwt>
<pdfrwt beam="1">  1        2 0.28613894E-01 0.69494942E+03</pdfrwt>
<pdfrwt beam="2">  1       -2 0.99871765E-01 0.69494942E+03</pdfrwt>
<totfact> 0.15721208E+02</totfact>
</mgrwt>
</event>
<event>
 6    1  0.5040916E-004  0.2638557E+04  0.7818608E-02  0.8355221E-01
         -2   -1    0    0    0  501 -0.00000000000E+00  0.00000000000E+00  0.11044374801E+04  0.11044374801E+04  0.00000000000E+00 0. -1.
          2   -1    0    0  501    0  0.00000000000E+00 -0.00000000000E+00 -0.15759113374E+04  0.15759113374E+04  0.00000000000E+00 0.  1.
         23    2    1    2    0    0  0.16877263703E+03  0.43878948508E+03  0.10144253595E+04  0.11218505347E+04  0.92029325829E+02 0.  0.
         13    1    3    3    0    0  0.20327329657E+02  0.46948700401E+02  0.56106136095E+02  0.75929436372E+02  0.00000000000E+00 0.  1.
        -13    1    3    3    0    0  0.14844530738E+03  0.39184078468E+03  0.95831922345E+03  0.10459210983E+04  0.00000000000E+00 0. -1.
         22    1    1    2    0    0 -0.16877263703E+03 -0.43878948508E+03 -0.14858992168E+04  0.15584982829E+04  0.00000000000E+00 0.  1.
<mgrwt>
<rscale>  0 0.26385568E+04</rscale>
<asrwt>0</asrwt>
<pdfrwt beam="1">  1        2 0.24244790E+00 0.26385568E+04</pdfrwt>
<pdfrwt beam="2">  1       -2 0.16991346E+00 0.26385568E+04</pdfrwt>
<totfact> 0.21653808E+00</totfact>
</mgrwt>
</event>
<event>
 6    1  0.5040916E-004  0.3026875E+04  0.7818608E-02  0.8236098E-01
          2   -1    0    0  501    0  0.00000000000E+00  0.00000000000E+00  0.92557513947E+03  0.92557513947E+03  0.00000000000E+00 0.  1.
         -2   -1    0    0    0  501 -0.00000000000E+00 -0.00000000000E+00 -0.24746697156E+04  0.24746697156E+04  0.00000000000E+00 0. -1.
         23    2    1    2    0    0  0.18036507902E+03  0.49491914558E+03 -0.23674119031E+04  0.24270440689E+04  0.91800168429E+02 0.  0.
         11    1    3    3    0    0  0.16770088808E+03  0.34146833806E+03 -0.17216148254E+04  0.17631454338E+04  0.00000000000E+00 0.  1.
        -11    1    3    3    0    0  0.12664190935E+02  0.15345080753E+03 -0.64579707776E+03  0.66389863512E+03  0.00000000000E+00 0. -1.
         22    1    1    2    0    0 -0.18036507902E+03 -0.49491914558E+03  0.81831732704E+03  0.97320078613E+03  0.00000000000E+00 0.  1.
<mgrwt>
<rscale>  0 0.30268748E+04</rscale>
<asrwt>0</asrwt>
<pdfrwt beam="1">  1        2 0.14239618E+00 0.30268748E+04</pdfrwt>
<pdfrwt beam="2">  1       -2 0.38071841E+00 0.30268748E+04</pdfrwt>
<totfact> 0.23832303E-01</totfact>
</mgrwt>
</event>
<event>
 6    1  0.5040916E-004  0.4401176E+04  0.7818608E-02  0.7928170E-01
          2   -1    0    0  501    0  0.00000000000E+00  0.00000000000E+00  0.40188362660E+04  0.40188362660E+04  0.00000000000E+00 0.  1.
         -2   -1    0    0    0  501 -0.00000000000E+00 -0.00000000000E+00 -0.12049724293E+04  0.12049724293E+04  0.00000000000E+00 0. -1.
         23    2    1    2    0    0 -0.42008511421E+03  0.21179128925E+04  0.19061063392E+04  0.28815768114E+04  0.90647780867E+02 0.  0.
         13    1    3    3    0    0 -0.20642000947E+03  0.85328910079E+03  0.74058596403E+03  0.11485552142E+04  0.00000000000E+00 0. -1.
        -13    1    3    3    0    0 -0.21366510473E+03  0.12646237918E+04  0.11655203751E+04  0.17330215973E+04  0.00000000000E+00 0.  1.
         22    1    1    2    0    0  0.42008511421E+03 -0.21179128925E+04  0.90775749756E+03  0.23422318839E+04  0.00000000000E+00 0.  1.
<mgrwt>
<rscale>  0 0.44011757E+04</rscale>
<asrwt>0</asrwt>
<pdfrwt beam="1">  1        2 0.61828250E+00 0.44011757E+04</pdfrwt>
<pdfrwt beam="2">  1       -2 0.18538038E+00 0.44011757E+04</pdfrwt>
<totfact> 0.41836433E-02</totfact>
</mgrwt>
</event>
<event>
 6    1  0.5040916E-004  0.4110410E+04  0.7818608E-02  0.7982636E-01
         -2   -1    0    0    0  501 -0.00000000000E+00  0.00000000000E+00  0.21148822091E+04  0.21148822091E+04  0.00000000000E+00 0. -1.
          2   -1    0    0  501    0  0.00000000000E+00 -0.00000000000E+00 -0.19972118771E+04  0.19972118771E+04  0.00000000000E+00 0.  1.
         23    2    1    2    0    0 -0.54040448460E+03 -0.19663364608E+04  0.30622240117E+03  0.20641517123E+04  0.91837076311E+02 0.  0.
         13    1    3    3    0    0 -0.48969976382E+03 -0.18100759336E+04  0.25715291126E+03  0.18926986986E+04  0.00000000000E+00 0.  1.
        -13    1    3    3    0    0 -0.50704720776E+02 -0.15626052721E+03  0.49069489903E+02  0.17145301372E+03  0.00000000000E+00 0. -1.
         22    1    1    2    0    0  0.54040448460E+03  0.19663364608E+04 -0.18855206921E+03  0.20479423739E+04  0.00000000000E+00 0.  1.
<mgrwt>
<rscale>  0 0.41104101E+04</rscale>
<asrwt>0</asrwt>
<pdfrwt beam="1">  1        2 0.30726337E+00 0.41104101E+04</pdfrwt>
<pdfrwt beam="2">  1       -2 0.32536649E+00 0.41104101E+04</pdfrwt>
<totfact> 0.11627868E-01</totfact>
</mgrwt>
</event>
<event>
 6    1  0.5040916E-004  0.2090584E+04  0.7818608E-02  0.8565402E-01
          2   -1    0    0  501    0  0.00000000000E+00  0.00000000000E+00  0.24624935871E+04  0.24624935871E+04  0.00000000000E+00 0.  1.
         -2   -1    0    0    0  501 -0.00000000000E+00 -0.00000000000E+00 -0.44371109254E+03  0.44371109254E+03  0.00000000000E+00 0. -1.
         23    2    1    2    0    0  0.54475766960E+03  0.76564302082E+03  0.16415469023E+04  0.18936451279E+04  0.90804646016E+02 0.  0.
         13    1    3    3    0    0  0.14518036560E+03  0.15205888900E+03  0.41340689608E+03  0.46379360281E+03  0.00000000000E+00 0. -1.
        -13    1    3    3    0    0  0.39957730400E+03  0.61358413182E+03  0.12281400063E+04  0.14298515250E+04  0.00000000000E+00 0.  1.
         22    1    1    2    0    0 -0.54475766960E+03 -0.76564302082E+03  0.37723559224E+03  0.10125595518E+04  0.00000000000E+00 0. -1.
<mgrwt>
<rscale>  0 0.20905843E+04</rscale>
<asrwt>0</asrwt>
<pdfrwt beam="1">  1        2 0.37884516E+00 0.20905843E+04</pdfrwt>
<pdfrwt beam="2">  1       -2 0.68263246E-01 0.20905843E+04</pdfrwt>
<totfact> 0.66289840E+00</totfact>
</mgrwt>
</event>
<event>
 6    1  0.5165945E-004  0.4719385E+04  0.7818608E-02  0.7873316E-01
         -2   -1    0    0    0  501 -0.00000000000E+00  0.00000000000E+00  0.21083145423E+04  0.21083145423E+04  0.00000000000E+00 0. -1.
          2   -1    0    0  501    0  0.00000000000E+00 -0.00000000000E+00 -0.26410427204E+04  0.26410427204E+04  0.00000000000E+00 0.  1.
         23    2    1    2    0    0  0.20764711001E+03  0.14042694431E+04 -0.21622960334E+04  0.25882044717E+04  0.90489005562E+02 0.  0.
         13    1    3    3    0    0  0.12174733311E+03  0.56582442930E+03 -0.83760308817E+03  0.10181152347E+04  0.00000000000E+00 0.  1.
        -13    1    3    3    0    0  0.85899776894E+02  0.83844501378E+03 -0.13246929453E+04  0.15700892370E+04  0.00000000000E+00 0. -1.
         22    1    1    2    0    0 -0.20764711001E+03 -0.14042694431E+04  0.16295678553E+04  0.21611527910E+04  0.00000000000E+00 0. -1.
<mgrwt>
<rscale>  0 0.47193850E+04</rscale>
<asrwt>0</asrwt>
<pdfrwt beam="1">  1        2 0.40631426E+00 0.47193850E+04</pdfrwt>
<pdfrwt beam="2">  1       -2 0.32435608E+00 0.47193850E+04</pdfrwt>
<totfact> 0.48214119E-02</totfact>
</mgrwt>
</event>
<event>
 6    1  0.5040916E-004  0.1862191E+04  0.7818608E-02  0.8673909E-01
         -2   -1    0    0    0  501 -0.00000000000E+00  0.00000000000E+00  0.10710328407E+04  0.10710328407E+04  0.00000000000E+00 0. -1.
          2   -1    0    0  501    0  0.00000000000E+00 -0.00000000000E+00 -0.80944176476E+03  0.80944176476E+03  0.00000000000E+00 0.  1.
         23    2    1    2    0    0  0.29435034124E+03  0.13436565685E+03  0.10103104545E+04  0.10648294859E+04  0.91860582056E+02 0.  0.
         11    1    3    3    0    0  0.20555781548E+03  0.12247419950E+03  0.82503174725E+03  0.85902929462E+03  0.00000000000E+00 0.  1.
        -11    1    3    3    0    0  0.88792525755E+02  0.11891457352E+02  0.18527870726E+03  0.20580019133E+03  0.00000000000E+00 0. -1.
         22    1    1    2    0    0 -0.29435034124E+03 -0.13436565685E+03 -0.74871937857E+03  0.81564511950E+03  0.00000000000E+00 0.  1.
<mgrwt>
<rscale>  0 0.18621909E+04</rscale>
<asrwt>0</asrwt>
<pdfrwt beam="1">  1        2 0.12452950E+00 0.18621909E+04</pdfrwt>
<pdfrwt beam="2">  1       -2 0.16477428E+00 0.18621909E+04</pdfrwt>
<totfact> 0.73994978E+00</totfact>
</mgrwt>
</event>
<event>
 6    1  0.5040916E-004  0.3514260E+04  0.7818608E-02  0.8110419E-01
         -2   -1    0    0    0  501 -0.00000000000E+00  0.00000000000E+00  0.14019853675E+04  0.14019853675E+04  0.00000000000E+00 0. -1.
          2   -1    0    0  501    0  0.00000000000E+00 -0.00000000000E+00 -0.22022380743E+04  0.22022380743E+04  0.00000000000E+00 0.  1.
         23    2    1    2    0    0  0.14945558825E+04 -0.60337656168E+03 -0.11145906782E+04  0.19621001451E+04  0.98813147628E+02 0.  0.
         11    1    3    3    0    0  0.97272950324E+03 -0.44036421463E+03 -0.75564108196E+03  0.13080966221E+04  0.00000000000E+00 0. -1.
        -11    1    3    3    0    0  0.52182637927E+03 -0.16301234705E+03 -0.35894959628E+03  0.65400352297E+03  0.00000000000E+00 0.  1.
         22    1    1    2    0    0 -0.14945558825E+04  0.60337656168E+03  0.31433797143E+03  0.16421232967E+04  0.00000000000E+00 0. -1.
<mgrwt>
<rscale>  0 0.35142598E+04</rscale>
<asrwt>0</asrwt>
<pdfrwt beam="1">  1        2 0.33880586E+00 0.35142598E+04</pdfrwt>
<pdfrwt beam="2">  1       -2 0.21569006E+00 0.35142598E+04</pdfrwt>
<totfact> 0.44490929E-01</totfact>
</mgrwt>
</event>
<event>
 6    1  0.5040916E-004  0.4402516E+04  0.7818608E-02  0.7927929E-01
          2   -1    0    0  501    0  0.00000000000E+00  0.00000000000E+00  0.30693862465E+04  0.30693862465E+04  0.00000000000E+00 0.  1.
         -2   -1    0    0    0  501 -0.00000000000E+00 -0.00000000000E+00 -0.15786661714E+04  0.15786661714E+04  0.00000000000E+00 0. -1.
         23    2    1    2    0    0  0.21255540270E+04 -0.29021298142E+03  0.23024307323E+03  0.21598792390E+04  0.99312426130E+02 0.  0.
         13    1    3    3    0    0  0.56718198206E+03 -0.11457051475E+03  0.37703683839E+02  0.57986495963E+03  0.00000000000E+00 0. -1.
        -13    1    3    3    0    0  0.15583720449E+04 -0.17564246667E+03  0.19253938939E+03  0.15800142793E+04  0.00000000000E+00 0.  1.
         22    1    1    2    0    0 -0.21255540270E+04  0.29021298142E+03  0.12604770019E+04  0.24881731790E+04  0.00000000000E+00 0. -1.
<mgrwt>
<rscale>  0 0.44025158E+04</rscale>
<asrwt>0</asrwt>
<pdfrwt beam="1">  1        2 0.47221327E+00 0.44025158E+04</pdfrwt>
<pdfrwt beam="2">  1       -2 0.24287172E+00 0.44025158E+04</pdfrwt>
<totfact> 0.85416906E-02</totfact>
</mgrwt>
</event>
<event>
 6    1  0.5040916E-004  0.3185158E+04  0.7818608E-02  0.8192748E-01
          2   -1    0    0  501    0  0.00000000000E+00  0.00000000000E+00  0.19731154305E+04  0.19731154305E+04  0.00000000000E+00 0.  1.
         -2   -1    0    0    0  501 -0.00000000000E+00 -0.00000000000E+00 -0.12854328725E+04  0.12854328725E+04  0.00000000000E+00 0. -1.
         23    2    1    2    0    0 -0.36884288790E+03  0.12332535517E+04 -0.61280452437E+03  0.14287324516E+04  0.93742382785E+02 0.  0.
         11    1    3    3    0    0 -0.27053536788E+03  0.85475348744E+03 -0.38107524074E+03  0.97417208370E+03  0.00000000000E+00 0.  1.
        -11    1    3    3    0    0 -0.98307520017E+02  0.37850006427E+03 -0.23172928363E+03  0.45456036787E+03  0.00000000000E+00 0. -1.
         22    1    1    2    0    0  0.36884288790E+03 -0.12332535517E+04  0.13004870824E+04  0.18298158515E+04  0.00000000000E+00 0.  1.
<mgrwt>
<rscale>  0 0.31851577E+04</rscale>
<asrwt>0</asrwt>
<pdfrwt beam="1">  1        2 0.30355622E+00 0.31851577E+04</pdfrwt>
<pdfrwt beam="2">  1       -2 0.19775890E+00 0.31851577E+04</pdfrwt>
<totfact> 0.80231050E-01</totfact>
</mgrwt>
</event>
<event>
 6    1  0.5040916E-004  0.4237161E+04  0.7818608E-02  0.7958341E-01
         -2   -1    0    0    0  501 -0.00000000000E+00  0.00000000000E+00  0.13427457633E+04  0.13427457633E+04  0.00000000000E+00 0. -1.
          2   -1    0    0  501    0  0.00000000000E+00 -0.00000000000E+00 -0.33426905667E+04  0.33426905667E+04  0.00000000000E+00 0.  1.
         23    2    1    2    0    0  0.17075126892E+04  0.12253794504E+04 -0.71419791417E+03  0.22216385615E+04  0.91895899581E+02 0.  0.
         11    1    3    3    0    0  0.12177845795E+04  0.87520031656E+03 -0.55319217905E+03  0.15984356299E+04  0.00000000000E+00 0. -1.
        -11    1    3    3    0    0  0.48972810971E+03  0.35017913379E+03 -0.16100573511E+03  0.62320293158E+03  0.00000000000E+00 0.  1.
         22    1    1    2    0    0 -0.17075126892E+04 -0.12253794504E+04 -0.12857468892E+04  0.24637977685E+04  0.00000000000E+00 0.  1.
<mgrwt>
<rscale>  0 0.42371611E+04</rscale>
<asrwt>0</asrwt>
<pdfrwt beam="1">  1        2 0.51426008E+00 0.42371611E+04</pdfrwt>
<pdfrwt beam="2">  1       -2 0.20657627E+00 0.42371611E+04</pdfrwt>
<totfact> 0.97105248E-02</totfact>
</mgrwt>
</event>
<event>
 6    1  0.5040916E-004  0.1047474E+04  0.7818608E-02  0.9257956E-01
          2   -1    0    0  501    0  0.00000000000E+00  0.00000000000E+00  0.71490368483E+03  0.71490368483E+03  0.00000000000E+00 0. -1.
         -2   -1    0    0    0  501 -0.00000000000E+00 -0.00000000000E+00 -0.38368868985E+03  0.38368868985E+03  0.00000000000E+00 0.  1.
         23    2    1    2    0    0 -0.19638689510E+03  0.46048989023E+03  0.31356411525E+03  0.59766293341E+03  0.90883309908E+02 0.  0.
         13    1    3    3    0    0 -0.82055564965E+02  0.25101666894E+03  0.21049170916E+03  0.33771177571E+03  0.00000000000E+00 0. -1.
        -13    1    3    3    0    0 -0.11433133014E+03  0.20947322130E+03  0.10307240609E+03  0.25995115770E+03  0.00000000000E+00 0.  1.
         22    1    1    2    0    0  0.19638689510E+03 -0.46048989023E+03  0.17650879725E+02  0.50092944127E+03  0.00000000000E+00 0.  1.
<mgrwt>
<rscale>  0 0.10474740E+04</rscale>
<asrwt>0</asrwt>
<pdfrwt beam="1">  1        2 0.10998518E+00 0.10474740E+04</pdfrwt>
<pdfrwt beam="2">  1       -2 0.59029029E-01 0.10474740E+04</pdfrwt>
<totfact> 0.10653786E+02</totfact>
</mgrwt>
</event>
<event>
 6    1  0.5040916E-004  0.2040914E+04  0.7818608E-02  0.8587727E-01
         -2   -1    0    0    0  501 -0.00000000000E+00  0.00000000000E+00  0.51196352136E+03  0.51196352136E+03  0.00000000000E+00 0. -1.
          2   -1    0    0  501    0  0.00000000000E+00 -0.00000000000E+00 -0.20339975855E+04  0.20339975855E+04  0.00000000000E+00 0.  1.
         23    2    1    2    0    0  0.83786143191E+03 -0.33027413282E+03 -0.13558030353E+04  0.16301415085E+04  0.89814727143E+02 0.  0.
         13    1    3    3    0    0  0.26935914419E+03 -0.64522989444E+02 -0.44156344982E+03  0.52124451550E+03  0.00000000000E+00 0.  1.
        -13    1    3    3    0    0  0.56850228772E+03 -0.26575114338E+03 -0.91423958547E+03  0.11088969930E+04  0.00000000000E+00 0. -1.
         22    1    1    2    0    0 -0.83786143191E+03  0.33027413282E+03 -0.16623102887E+03  0.91581959842E+03  0.00000000000E+00 0. -1.
<mgrwt>
<rscale>  0 0.20409141E+04</rscale>
<asrwt>0</asrwt>
<pdfrwt beam="1">  1        2 0.31292271E+00 0.20409141E+04</pdfrwt>
<pdfrwt beam="2">  1       -2 0.78763618E-01 0.20409141E+04</pdfrwt>
<totfact> 0.84779414E+00</totfact>
</mgrwt>
</event>
<event>
 6    1  0.5040916E-004  0.1775747E+04  0.7818608E-02  0.8719304E-01
         -1   -1    0    0    0  501 -0.00000000000E+00  0.00000000000E+00  0.51379613749E+03  0.51379613749E+03  0.00000000000E+00 0. -1.
          1   -1    0    0  501    0  0.00000000000E+00 -0.00000000000E+00 -0.15343035995E+04  0.15343035995E+04  0.00000000000E+00 0.  1.
         23    2    1    2    0    0 -0.72869871556E+03 -0.41347728443E+03 -0.84210256738E+03  0.11914822091E+04  0.92346292345E+02 0.  0.
         13    1    3    3    0    0 -0.59642309475E+03 -0.35915097219E+03 -0.73824563953E+03  0.10147495026E+04  0.00000000000E+00 0.  1.
        -13    1    3    3    0    0 -0.13227562081E+03 -0.54326312235E+02 -0.10385692784E+03  0.17673270643E+03  0.00000000000E+00 0. -1.
         22    1    1    2    0    0  0.72869871556E+03  0.41347728443E+03 -0.17840489466E+03  0.85661752798E+03  0.00000000000E+00 0. -1.
<mgrwt>
<rscale>  0 0.17757469E+04</rscale>
<asrwt>0</asrwt>
<pdfrwt beam="1">  1        1 0.23604671E+00 0.17757469E+04</pdfrwt>
<pdfrwt beam="2">  1       -1 0.79045560E-01 0.17757469E+04</pdfrwt>
<totfact> 0.93710377E+00</totfact>
</mgrwt>
</event>
<event>
 6    1  0.5985553E-004  0.2688751E+04  0.7818608E-02  0.8338664E-01
          2   -1    0    0  501    0  0.00000000000E+00  0.00000000000E+00  0.19219206415E+04  0.19219206415E+04  0.00000000000E+00 0.  1.
         -2   -1    0    0    0  501 -0.00000000000E+00 -0.00000000000E+00 -0.94038504501E+03  0.94038504501E+03  0.00000000000E+00 0. -1.
         23    2    1    2    0    0  0.53068637882E+03  0.97531781563E+02 -0.81775584471E+03  0.98385148918E+03  0.89992500414E+02 0.  0.
         11    1    3    3    0    0  0.36862190041E+03  0.45291956071E+02 -0.49386214365E+03  0.61792660056E+03  0.00000000000E+00 0. -1.
        -11    1    3    3    0    0  0.16206447842E+03  0.52239825492E+02 -0.32389370106E+03  0.36592488862E+03  0.00000000000E+00 0.  1.
         22    1    1    2    0    0 -0.53068637882E+03 -0.97531781563E+02  0.17992914412E+04  0.18784541973E+04  0.00000000000E+00 0.  1.
<mgrwt>
<rscale>  0 0.26887510E+04</rscale>
<asrwt>0</asrwt>
<pdfrwt beam="1">  1        2 0.29568010E+00 0.26887510E+04</pdfrwt>
<pdfrwt beam="2">  1       -2 0.14467462E+00 0.26887510E+04</pdfrwt>
<totfact> 0.21372807E+00</totfact>
</mgrwt>
</event>
<event>
 6    1  0.5040916E-004  0.1637241E+04  0.7818608E-02  0.8797990E-01
         -1   -1    0    0    0  501 -0.00000000000E+00  0.00000000000E+00  0.65512252453E+03  0.65512252453E+03  0.00000000000E+00 0.  1.
          1   -1    0    0  501    0  0.00000000000E+00 -0.00000000000E+00 -0.10229224785E+04  0.10229224785E+04  0.00000000000E+00 0. -1.
         23    2    1    2    0    0 -0.79656096239E+03  0.11364762487E+03 -0.32373338388E+03  0.87221188626E+03  0.92331583170E+02 0.  0.
         11    1    3    3    0    0 -0.58607979332E+03  0.54121453769E+02 -0.20449568649E+03  0.62308678504E+03  0.00000000000E+00 0.  1.
        -11    1    3    3    0    0 -0.21048116907E+03  0.59526171105E+02 -0.11923769739E+03  0.24912510122E+03  0.00000000000E+00 0. -1.
         22    1    1    2    0    0  0.79656096239E+03 -0.11364762487E+03 -0.44066570073E+02  0.80583311675E+03  0.00000000000E+00 0.  1.
<mgrwt>
<rscale>  0 0.16372410E+04</rscale>
<asrwt>0</asrwt>
<pdfrwt beam="1">  1        1 0.15737269E+00 0.16372410E+04</pdfrwt>
<pdfrwt beam="2">  1       -1 0.10078808E+00 0.16372410E+04</pdfrwt>
<totfact> 0.13005949E+01</totfact>
</mgrwt>
</event>
<event>
 6    1  0.5040916E-004  0.3820661E+04  0.7818608E-02  0.8041736E-01
         -2   -1    0    0    0  501 -0.00000000000E+00  0.00000000000E+00  0.14701540053E+04  0.14701540053E+04  0.00000000000E+00 0.  1.
          2   -1    0    0  501    0  0.00000000000E+00 -0.00000000000E+00 -0.24822992074E+04  0.24822992074E+04  0.00000000000E+00 0. -1.
         23    2    1    2    0    0 -0.10179246305E+04 -0.10560574180E+04 -0.17707238197E+04  0.23011297004E+04  0.91144001095E+02 0.  0.
         13    1    3    3    0    0 -0.31665501494E+03 -0.27082724387E+03 -0.51646866245E+03  0.66359451007E+03  0.00000000000E+00 0.  1.
        -13    1    3    3    0    0 -0.70126961552E+03 -0.78523017418E+03 -0.12542551572E+04  0.16375351903E+04  0.00000000000E+00 0. -1.
         22    1    1    2    0    0  0.10179246305E+04  0.10560574180E+04  0.75857861756E+03  0.16513235124E+04  0.00000000000E+00 0.  1.
<mgrwt>
<rscale>  0 0.38206607E+04</rscale>
<asrwt>0</asrwt>
<pdfrwt beam="1">  1        2 0.38189218E+00 0.38206607E+04</pdfrwt>
<pdfrwt beam="2">  1       -2 0.22617754E+00 0.38206607E+04</pdfrwt>
<totfact> 0.25777310E-01</totfact>
</mgrwt>
</event>
<event>
 6    1  0.5040916E-004  0.1706699E+04  0.7818608E-02  0.8757553E-01
          2   -1    0    0  501    0  0.00000000000E+00  0.00000000000E+00  0.15082542576E+04  0.15082542576E+04  0.00000000000E+00 0.  1.
         -2   -1    0    0    0  501 -0.00000000000E+00 -0.00000000000E+00 -0.48281330996E+03  0.48281330996E+03  0.00000000000E+00 0. -1.
         23    2    1    2    0    0 -0.60561024984E+03 -0.80223654084E+02 -0.17712186719E+03  0.64223216878E+03  0.88827886333E+02 0.  0.
         13    1    3    3    0    0 -0.32657136497E+03 -0.11643253620E+02 -0.61586495129E+02  0.33253167992E+03  0.00000000000E+00 0.  1.
        -13    1    3    3    0    0 -0.27903888488E+03 -0.68580400463E+02 -0.11553537206E+03  0.30970048886E+03  0.00000000000E+00 0. -1.
         22    1    1    2    0    0  0.60561024984E+03  0.80223654084E+02  0.12025628148E+04  0.13488353988E+04  0.00000000000E+00 0.  1.
<mgrwt>
<rscale>  0 0.17066988E+04</rscale>
<asrwt>0</asrwt>
<pdfrwt beam="1">  1        2 0.23203911E+00 0.17066988E+04</pdfrwt>
<pdfrwt beam="2">  1       -2 0.74278971E-01 0.17066988E+04</pdfrwt>
<totfact> 0.19483530E+01</totfact>
</mgrwt>
</event>
<event>
 6    1  0.5040916E-004  0.9894623E+03  0.7818608E-02  0.9320178E-01
         -2   -1    0    0    0  501 -0.00000000000E+00  0.00000000000E+00  0.14670025790E+03  0.14670025790E+03  0.00000000000E+00 0.  1.
          2   -1    0    0  501    0  0.00000000000E+00 -0.00000000000E+00 -0.16684285317E+04  0.16684285317E+04  0.00000000000E+00 0. -1.
         23    2    1    2    0    0  0.32653805647E+03 -0.19332240489E+03 -0.13379907895E+04  0.13935127111E+04  0.87508105786E+02 0.  0.
         13    1    3    3    0    0  0.26385060167E+02 -0.50048470431E+02 -0.21314650058E+03  0.22052766607E+03  0.00000000000E+00 0.  1.
        -13    1    3    3    0    0  0.30015299630E+03 -0.14327393446E+03 -0.11248442889E+04  0.11729850450E+04  0.00000000000E+00 0. -1.
         22    1    1    2    0    0 -0.32653805647E+03  0.19332240489E+03 -0.18373748436E+03  0.42161607858E+03  0.00000000000E+00 0.  1.
<mgrwt>
<rscale>  0 0.98946227E+03</rscale>
<asrwt>0</asrwt>
<pdfrwt beam="1">  1        2 0.25668131E+00 0.98946227E+03</pdfrwt>
<pdfrwt beam="2">  1       -2 0.22569270E-01 0.98946227E+03</pdfrwt>
<totfact> 0.17602165E+02</totfact>
</mgrwt>
</event>
<event>
 6    1  0.5545144E-004  0.2968089E+04  0.7818608E-02  0.8252902E-01
         -2   -1    0    0    0  501 -0.00000000000E+00  0.00000000000E+00  0.75428984117E+03  0.75428984117E+03  0.00000000000E+00 0. -1.
          2   -1    0    0  501    0  0.00000000000E+00 -0.00000000000E+00 -0.29198170428E+04  0.29198170428E+04  0.00000000000E+00 0.  1.
         23    2    1    2    0    0 -0.32868425926E+03  0.54918634372E+03 -0.27392910223E+04  0.28145465870E+04  0.91204183112E+02 0.  0.
         13    1    3    3    0    0 -0.15525011938E+03  0.18048208825E+03 -0.93695805833E+03  0.96672994513E+03  0.00000000000E+00 0. -1.
        -13    1    3    3    0    0 -0.17343413988E+03  0.36870425548E+03 -0.18023329639E+04  0.18478166418E+04  0.00000000000E+00 0.  1.
         22    1    1    2    0    0  0.32868425926E+03 -0.54918634372E+03  0.57376382061E+03  0.85956029705E+03  0.00000000000E+00 0. -1.
<mgrwt>
<rscale>  0 0.29680892E+04</rscale>
<asrwt>0</asrwt>
<pdfrwt beam="1">  1        2 0.44920262E+00 0.29680892E+04</pdfrwt>
<pdfrwt beam="2">  1       -2 0.11604459E+00 0.29680892E+04</pdfrwt>
<totfact> 0.96637299E-01</totfact>
</mgrwt>
</event>
<event>
 6    1  0.5040916E-004  0.2818173E+04  0.7818608E-02  0.8297648E-01
         -2   -1    0    0    0  501 -0.00000000000E+00  0.00000000000E+00  0.64988955553E+03  0.64988955553E+03  0.00000000000E+00 0. -1.
          2   -1    0    0  501    0  0.00000000000E+00 -0.00000000000E+00 -0.30551727210E+04  0.30551727210E+04  0.00000000000E+00 0.  1.
         23    2    1    2    0    0 -0.12574643569E+04  0.52731040177E+03 -0.16632611051E+04  0.21526868043E+04  0.91378910045E+02 0.  0.
         13    1    3    3    0    0 -0.92674880865E+02  0.35138201549E+02 -0.16119716031E+03  0.18922962570E+03  0.00000000000E+00 0. -1.
        -13    1    3    3    0    0 -0.11647894760E+04  0.49217220022E+03 -0.15020639448E+04  0.19634571786E+04  0.00000000000E+00 0.  1.
         22    1    1    2    0    0  0.12574643569E+04 -0.52731040177E+03 -0.74202206036E+03  0.15523754722E+04  0.00000000000E+00 0. -1.
<mgrwt>
<rscale>  0 0.28181731E+04</rscale>
<asrwt>0</asrwt>
<pdfrwt beam="1">  1        2 0.47002658E+00 0.28181731E+04</pdfrwt>
<pdfrwt beam="2">  1       -2 0.99983008E-01 0.28181731E+04</pdfrwt>
<totfact> 0.11533744E+00</totfact>
</mgrwt>
</event>
<event>
 6    1  0.5040916E-004  0.2524478E+04  0.7818608E-02  0.8394317E-01
         -2   -1    0    0    0  501 -0.00000000000E+00  0.00000000000E+00  0.13915336732E+04  0.13915336732E+04  0.00000000000E+00 0. -1.
          2   -1    0    0  501    0  0.00000000000E+00 -0.00000000000E+00 -0.11449577341E+04  0.11449577341E+04  0.00000000000E+00 0.  1.
         23    2    1    2    0    0  0.10317429128E+04 -0.45195677892E+03 -0.44510291111E+03  0.12146827979E+04  0.92624672569E+02 0.  0.
         13    1    3    3    0    0  0.55725424369E+03 -0.21861363654E+03 -0.27914397941E+03  0.66048889123E+03  0.00000000000E+00 0. -1.
        -13    1    3    3    0    0  0.47448866911E+03 -0.23334314238E+03 -0.16595893170E+03  0.55419390670E+03  0.00000000000E+00 0.  1.
         22    1    1    2    0    0 -0.10317429128E+04  0.45195677892E+03  0.69167885013E+03  0.13218086094E+04  0.00000000000E+00 0. -1.
<mgrwt>
<rscale>  0 0.25244780E+04</rscale>
<asrwt>0</asrwt>
<pdfrwt beam="1">  1        2 0.17614734E+00 0.25244780E+04</pdfrwt>
<pdfrwt beam="2">  1       -2 0.21408210E+00 0.25244780E+04</pdfrwt>
<totfact> 0.19616652E+00</totfact>
</mgrwt>
</event>
<event>
 6    1  0.5040916E-004  0.2005684E+04  0.7818608E-02  0.8603968E-01
          2   -1    0    0  501    0  0.00000000000E+00  0.00000000000E+00  0.81000866300E+03  0.81000866300E+03  0.00000000000E+00 0.  1.
         -2   -1    0    0    0  501 -0.00000000000E+00 -0.00000000000E+00 -0.12415814707E+04  0.12415814707E+04  0.00000000000E+00 0. -1.
         23    2    1    2    0    0  0.78511906182E+03  0.85161776732E+02 -0.84503583449E+03  0.11601776904E+04  0.90896877129E+02 0.  0.
         11    1    3    3    0    0  0.30872023054E+03  0.68065463107E+02 -0.29614829327E+03  0.43317998525E+03  0.00000000000E+00 0.  1.
        -11    1    3    3    0    0  0.47639883128E+03  0.17096313626E+02 -0.54888754122E+03  0.72699770515E+03  0.00000000000E+00 0. -1.
         22    1    1    2    0    0 -0.78511906182E+03 -0.85161776732E+02  0.41346302683E+03  0.89141244326E+03  0.00000000000E+00 0.  1.
<mgrwt>
<rscale>  0 0.20056837E+04</rscale>
<asrwt>0</asrwt>
<pdfrwt beam="1">  1        2 0.12461672E+00 0.20056837E+04</pdfrwt>
<pdfrwt beam="2">  1       -2 0.19101253E+00 0.20056837E+04</pdfrwt>
<totfact> 0.47983274E+00</totfact>
</mgrwt>
</event>
<event>
 6    1  0.5040916E-004  0.6125605E+04  0.7818608E-02  0.7675021E-01
          1   -1    0    0  501    0  0.00000000000E+00  0.00000000000E+00  0.34750827676E+04  0.34750827676E+04  0.00000000000E+00 0.  1.
         -1   -1    0    0    0  501 -0.00000000000E+00 -0.00000000000E+00 -0.26994346027E+04  0.26994346027E+04  0.00000000000E+00 0. -1.
         23    2    1    2    0    0  0.24400248979E+04  0.48415101450E+03 -0.14123394819E+04  0.28616011852E+04  0.77037805677E+02 0.  0.
         11    1    3    3    0    0  0.13287655629E+04  0.24178496884E+03 -0.73005460297E+03  0.15352711863E+04  0.00000000000E+00 0. -1.
        -11    1    3    3    0    0  0.11112593350E+04  0.24236604565E+03 -0.68228487892E+03  0.13263299988E+04  0.00000000000E+00 0.  1.
         22    1    1    2    0    0 -0.24400248979E+04 -0.48415101450E+03  0.21879876468E+04  0.33129161852E+04  0.00000000000E+00 0.  1.
<mgrwt>
<rscale>  0 0.61256048E+04</rscale>
<asrwt>0</asrwt>
<pdfrwt beam="1">  1        1 0.53462812E+00 0.61256048E+04</pdfrwt>
<pdfrwt beam="2">  1       -1 0.41529763E+00 0.61256048E+04</pdfrwt>
<totfact> 0.97241044E-04</totfact>
</mgrwt>
</event>
<event>
 6    1  0.8551792E-004  0.3144295E+04  0.7818608E-02  0.8203686E-01
         -2   -1    0    0    0  501 -0.00000000000E+00  0.00000000000E+00  0.12845309161E+04  0.12845309161E+04  0.00000000000E+00 0. -1.
          2   -1    0    0  501    0  0.00000000000E+00 -0.00000000000E+00 -0.19241637042E+04  0.19241637042E+04  0.00000000000E+00 0.  1.
         23    2    1    2    0    0 -0.77008125808E+03  0.24648265546E+02  0.10769057323E+04  0.13271693951E+04  0.89554262457E+02 0.  0.
         13    1    3    3    0    0 -0.54235295836E+03  0.34391481343E+02  0.69263914402E+03  0.88038542086E+03  0.00000000000E+00 0. -1.
        -13    1    3    3    0    0 -0.22772829972E+03 -0.97432157963E+01  0.38426658832E+03  0.44678397425E+03  0.00000000000E+00 0.  1.
         22    1    1    2    0    0  0.77008125808E+03 -0.24648265546E+02 -0.17165385204E+04  0.18815252252E+04  0.00000000000E+00 0.  1.
<mgrwt>
<rscale>  0 0.31442950E+04</rscale>
<asrwt>0</asrwt>
<pdfrwt beam="1">  1        2 0.29602519E+00 0.31442950E+04</pdfrwt>
<pdfrwt beam="2">  1       -2 0.19762014E+00 0.31442950E+04</pdfrwt>
<totfact> 0.85887657E-01</totfact>
</mgrwt>
</event>
<event>
 6    1  0.5040916E-004  0.3795851E+04  0.7818608E-02  0.8047046E-01
          2   -1    0    0  501    0  0.00000000000E+00  0.00000000000E+00  0.17608900332E+04  0.17608900332E+04  0.00000000000E+00 0.  1.
         -2   -1    0    0    0  501 -0.00000000000E+00 -0.00000000000E+00 -0.20456250385E+04  0.20456250385E+04  0.00000000000E+00 0. -1.
         23    2    1    2    0    0 -0.18210707390E+04  0.34326808202E+03 -0.54838114652E+03  0.19347135597E+04  0.90901393956E+02 0.  0.
         11    1    3    3    0    0 -0.74332676274E+03  0.13941414364E+03 -0.17733779501E+03  0.77680092250E+03  0.00000000000E+00 0. -1.
        -11    1    3    3    0    0 -0.10777439763E+04  0.20385393838E+03 -0.37104335151E+03  0.11579126372E+04  0.00000000000E+00 0.  1.
         22    1    1    2    0    0  0.18210707390E+04 -0.34326808202E+03  0.26364614129E+03  0.18718015120E+04  0.00000000000E+00 0. -1.
<mgrwt>
<rscale>  0 0.37958508E+04</rscale>
<asrwt>0</asrwt>
<pdfrwt beam="1">  1        2 0.27090616E+00 0.37958508E+04</pdfrwt>
<pdfrwt beam="2">  1       -2 0.31471154E+00 0.37958508E+04</pdfrwt>
<totfact> 0.18779282E-01</totfact>
</mgrwt>
</event>
<event>
 6    1  0.5040916E-004  0.3231065E+04  0.7818608E-02  0.8180661E-01
          1   -1    0    0  501    0  0.00000000000E+00  0.00000000000E+00  0.30011316230E+04  0.30011316230E+04  0.00000000000E+00 0.  1.
         -1   -1    0    0    0  501 -0.00000000000E+00 -0.00000000000E+00 -0.86965372649E+03  0.86965372649E+03  0.00000000000E+00 0. -1.
         23    2    1    2    0    0  0.11844664624E+03 -0.46205779839E+03  0.29141202104E+04  0.29542396557E+04  0.88928767383E+02 0.  0.
         11    1    3    3    0    0  0.14041066479E+01 -0.17736924121E+03  0.10819360527E+04  0.10963792416E+04  0.00000000000E+00 0. -1.
        -11    1    3    3    0    0  0.11704253960E+03 -0.28468855718E+03  0.18321841577E+04  0.18578604142E+04  0.00000000000E+00 0.  1.
         22    1    1    2    0    0 -0.11844664624E+03  0.46205779839E+03 -0.78264231395E+03  0.91654569371E+03  0.00000000000E+00 0. -1.
<mgrwt>
<rscale>  0 0.32310650E+04</rscale>
<asrwt>0</asrwt>
<pdfrwt beam="1">  1        1 0.46171255E+00 0.32310650E+04</pdfrwt>
<pdfrwt beam="2">  1       -1 0.13379288E+00 0.32310650E+04</pdfrwt>
<totfact> 0.23446456E-01</totfact>
</mgrwt>
</event>
<event>
 6    1  0.5040916E-004  0.1032802E+04  0.7818608E-02  0.9273282E-01
         -2   -1    0    0    0  501 -0.00000000000E+00  0.00000000000E+00  0.11380911972E+04  0.11380911972E+04  0.00000000000E+00 0. -1.
          2   -1    0    0  501    0  0.00000000000E+00 -0.00000000000E+00 -0.23431344562E+03  0.23431344562E+03  0.00000000000E+00 0.  1.
         23    2    1    2    0    0 -0.17033281386E+03 -0.59062965188E+02  0.10927158484E+04  0.11112546748E+04  0.91418409498E+02 0.  0.
         11    1    3    3    0    0 -0.97345382457E+02 -0.72823202930E+02  0.53647898985E+03  0.55008094761E+03  0.00000000000E+00 0. -1.
        -11    1    3    3    0    0 -0.72987431406E+02  0.13760237742E+02  0.55623685858E+03  0.56117372723E+03  0.00000000000E+00 0.  1.
         22    1    1    2    0    0  0.17033281386E+03  0.59062965188E+02 -0.18893809686E+03  0.26114996799E+03  0.00000000000E+00 0.  1.
<mgrwt>
<rscale>  0 0.10328021E+04</rscale>
<asrwt>0</asrwt>
<pdfrwt beam="1">  1        2 0.36048223E-01 0.10328021E+04</pdfrwt>
<pdfrwt beam="2">  1       -2 0.17509095E+00 0.10328021E+04</pdfrwt>
<totfact> 0.28282334E+01</totfact>
</mgrwt>
</event>
<event>
 6    1  0.5040916E-004  0.1989358E+04  0.7818608E-02  0.8611612E-01
          2   -1    0    0  501    0  0.00000000000E+00  0.00000000000E+00  0.19124050692E+04  0.19124050692E+04  0.00000000000E+00 0.  1.
         -2   -1    0    0    0  501 -0.00000000000E+00 -0.00000000000E+00 -0.51735173110E+03  0.51735173110E+03  0.00000000000E+00 0. -1.
         23    2    1    2    0    0 -0.85481444407E+03 -0.50462920310E+03  0.69122669726E+03  0.12129041770E+04  0.89352276251E+02 0.  0.
         13    1    3    3    0    0 -0.70639478778E+03 -0.40714260071E+03  0.52545857835E+03  0.96998217049E+03  0.00000000000E+00 0. -1.
        -13    1    3    3    0    0 -0.14841965630E+03 -0.97486602384E+02  0.16576811891E+03  0.24292200655E+03  0.00000000000E+00 0.  1.
         22    1    1    2    0    0  0.85481444407E+03  0.50462920310E+03  0.70382664088E+03  0.12168526233E+04  0.00000000000E+00 0.  1.
<mgrwt>
<rscale>  0 0.19893578E+04</rscale>
<asrwt>0</asrwt>
<pdfrwt beam="1">  1        2 0.29421616E+00 0.19893578E+04</pdfrwt>
<pdfrwt beam="2">  1       -2 0.79592575E-01 0.19893578E+04</pdfrwt>
<totfact> 0.97167561E+00</totfact>
</mgrwt>
</event>
<event>
 6    1  0.5040916E-004  0.1223437E+04  0.7818608E-02  0.9092586E-01
         -2   -1    0    0    0  501 -0.00000000000E+00  0.00000000000E+00  0.31850900682E+03  0.31850900682E+03  0.00000000000E+00 0. -1.
          2   -1    0    0  501    0  0.00000000000E+00 -0.00000000000E+00 -0.11748465825E+04  0.11748465825E+04  0.00000000000E+00 0.  1.
         23    2    1    2    0    0 -0.93285054722E+01 -0.60777019281E+03 -0.43927442752E+03  0.75618986995E+03  0.96899269664E+02 0.  0.
         13    1    3    3    0    0 -0.31721122469E+02 -0.29185097059E+03 -0.16227567573E+03  0.33543496177E+03  0.00000000000E+00 0.  1.
        -13    1    3    3    0    0  0.22392616997E+02 -0.31591922222E+03 -0.27699875179E+03  0.42075490818E+03  0.00000000000E+00 0. -1.
         22    1    1    2    0    0  0.93285054722E+01  0.60777019281E+03 -0.41706314820E+03  0.73716571940E+03  0.00000000000E+00 0.  1.
<mgrwt>
<rscale>  0 0.12234365E+04</rscale>
<asrwt>0</asrwt>
<pdfrwt beam="1">  1        2 0.18074563E+00 0.12234365E+04</pdfrwt>
<pdfrwt beam="2">  1       -2 0.49001386E-01 0.12234365E+04</pdfrwt>
<totfact> 0.76167248E+01</totfact>
</mgrwt>
</event>
<event>
 6    1  0.5040916E-004  0.1160673E+04  0.7818608E-02  0.9147993E-01
          2   -1    0    0  501    0  0.00000000000E+00  0.00000000000E+00  0.96842791766E+03  0.96842791766E+03  0.00000000000E+00 0.  1.
         -2   -1    0    0    0  501 -0.00000000000E+00 -0.00000000000E+00 -0.34777033025E+03  0.34777033025E+03  0.00000000000E+00 0. -1.
         23    2    1    2    0    0 -0.90858227686E+02 -0.36699727607E+03  0.80609799626E+03  0.89509212897E+03  0.91944122125E+02 0.  0.
         13    1    3    3    0    0 -0.40831077683E+02 -0.66443212805E+02  0.10628590799E+03  0.13182781068E+03  0.00000000000E+00 0. -1.
        -13    1    3    3    0    0 -0.50027150003E+02 -0.30055406326E+03  0.69981208827E+03  0.76326431829E+03  0.00000000000E+00 0.  1.
         22    1    1    2    0    0  0.90858227686E+02  0.36699727607E+03 -0.18544040884E+03  0.42110611894E+03  0.00000000000E+00 0. -1.
<mgrwt>
<rscale>  0 0.11606731E+04</rscale>
<asrwt>0</asrwt>
<pdfrwt beam="1">  1        2 0.14898891E+00 0.11606731E+04</pdfrwt>
<pdfrwt beam="2">  1       -2 0.53503128E-01 0.11606731E+04</pdfrwt>
<totfact> 0.85989435E+01</totfact>
</mgrwt>
</event>
<event>
 6    1  0.5040916E-004  0.1399760E+04  0.7818608E-02  0.8953992E-01
          2   -1    0    0  501    0  0.00000000000E+00  0.00000000000E+00  0.30613273525E+03  0.30613273525E+03  0.00000000000E+00 0.  1.
         -2   -1    0    0    0  501 -0.00000000000E+00 -0.00000000000E+00 -0.16000642165E+04  0.16000642165E+04  0.00000000000E+00 0. -1.
         23    2    1    2    0    0  0.21080503932E+03 -0.66275354820E+03 -0.58742056691E+03  0.91481473366E+03  0.90233276752E+02 0.  0.
         11    1    3    3    0    0  0.24817886582E+02 -0.53542229190E+02 -0.21649394164E+02  0.62860115086E+02  0.00000000000E+00 0.  1.
        -11    1    3    3    0    0  0.18598715274E+03 -0.60921131901E+03 -0.56577117275E+03  0.85195461858E+03  0.00000000000E+00 0. -1.
         22    1    1    2    0    0 -0.21080503932E+03  0.66275354820E+03 -0.70651091436E+03  0.99138221810E+03  0.00000000000E+00 0.  1.
<mgrwt>
<rscale>  0 0.13997600E+04</rscale>
<asrwt>0</asrwt>
<pdfrwt beam="1">  1        2 0.47097344E-01 0.13997600E+04</pdfrwt>
<pdfrwt beam="2">  1       -2 0.24616372E+00 0.13997600E+04</pdfrwt>
<totfact> 0.70956208E+00</totfact>
</mgrwt>
</event>
<event>
 6    1  0.5040916E-004  0.4422785E+04  0.7818608E-02  0.7924296E-01
         -2   -1    0    0    0  501 -0.00000000000E+00  0.00000000000E+00  0.19197729988E+04  0.19197729988E+04  0.00000000000E+00 0. -1.
          2   -1    0    0  501    0  0.00000000000E+00 -0.00000000000E+00 -0.25473095095E+04  0.25473095095E+04  0.00000000000E+00 0.  1.
         23    2    1    2    0    0 -0.18091224979E+04 -0.48590307062E+03  0.87122588469E+03  0.20680588061E+04  0.93843895363E+02 0.  0.
         11    1    3    3    0    0 -0.63436244549E+03 -0.18143967773E+03  0.25914219202E+03  0.70886581564E+03  0.00000000000E+00 0.  1.
        -11    1    3    3    0    0 -0.11747600524E+04 -0.30446339289E+03  0.61208369267E+03  0.13591929904E+04  0.00000000000E+00 0. -1.
         22    1    1    2    0    0  0.18091224979E+04  0.48590307062E+03 -0.14987623954E+04  0.23990237023E+04  0.00000000000E+00 0. -1.
<mgrwt>
<rscale>  0 0.44227847E+04</rscale>
<asrwt>0</asrwt>
<pdfrwt beam="1">  1        2 0.39189377E+00 0.44227847E+04</pdfrwt>
<pdfrwt beam="2">  1       -2 0.29534969E+00 0.44227847E+04</pdfrwt>
<totfact> 0.84538257E-02</totfact>
</mgrwt>
</event>
<event>
 6    1  0.5040916E-004  0.7851648E+04  0.7818608E-02  0.7495461E-01
         -2   -1    0    0    0  501 -0.00000000000E+00  0.00000000000E+00  0.37752871341E+04  0.37752871341E+04  0.00000000000E+00 0. -1.
          2   -1    0    0  501    0  0.00000000000E+00 -0.00000000000E+00 -0.40823630216E+04  0.40823630216E+04  0.00000000000E+00 0.  1.
         23    2    1    2    0    0 -0.47796190544E+03  0.94287740875E+03  0.36296856786E+04  0.37814316853E+04  0.84510792700E+02 0.  0.
         13    1    3    3    0    0 -0.28514855158E+03  0.49314007773E+03  0.18517930531E+04  0.19374298295E+04  0.00000000000E+00 0. -1.
        -13    1    3    3    0    0 -0.19281335387E+03  0.44973733102E+03  0.17778926254E+04  0.18440018557E+04  0.00000000000E+00 0.  1.
         22    1    1    2    0    0  0.47796190544E+03 -0.94287740875E+03 -0.39367615661E+04  0.40762184705E+04  0.00000000000E+00 0.  1.
<mgrwt>
<rscale>  0 0.78516476E+04</rscale>
<asrwt>0</asrwt>
<pdfrwt beam="1">  1        2 0.62805585E+00 0.78516476E+04</pdfrwt>
<pdfrwt beam="2">  1       -2 0.58081341E+00 0.78516476E+04</pdfrwt>
<totfact> 0.10725101E-04</totfact>
</mgrwt>
</event>
<event>
 6    1  0.5040916E-004  0.2583357E+04  0.7818608E-02  0.8373877E-01
          2   -1    0    0  501    0  0.00000000000E+00  0.00000000000E+00  0.13878171728E+04  0.13878171728E+04  0.00000000000E+00 0.  1.
         -2   -1    0    0    0  501 -0.00000000000E+00 -0.00000000000E+00 -0.12021994279E+04  0.12021994279E+04  0.00000000000E+00 0. -1.
         23    2    1    2    0    0  0.82539885261E+03  0.12992388573E+03  0.10783534810E+04  0.13672571900E+04  0.91556057483E+02 0.  0.
         13    1    3    3    0    0  0.15818642628E+03  0.11067038797E+02  0.26201436245E+03  0.30626287881E+03  0.00000000000E+00 0.  1.
        -13    1    3    3    0    0  0.66721242633E+03  0.11885684693E+03  0.81633911852E+03  0.10609943112E+04  0.00000000000E+00 0. -1.
         22    1    1    2    0    0 -0.82539885261E+03 -0.12992388573E+03 -0.89273573605E+03  0.12227594107E+04  0.00000000000E+00 0. -1.
<mgrwt>
<rscale>  0 0.25833567E+04</rscale>
<asrwt>0</asrwt>
<pdfrwt beam="1">  1        2 0.21351033E+00 0.25833567E+04</pdfrwt>
<pdfrwt beam="2">  1       -2 0.18495376E+00 0.25833567E+04</pdfrwt>
<totfact> 0.21842803E+00</totfact>
</mgrwt>
</event>
<event>
 6    1  0.5040916E-004  0.5207820E+03  0.7818608E-02  0.1008492E+00
         -2   -1    0    0    0  501 -0.00000000000E+00  0.00000000000E+00  0.54142594411E+03  0.54142594411E+03  0.00000000000E+00 0. -1.
          2   -1    0    0  501    0  0.00000000000E+00 -0.00000000000E+00 -0.12523128403E+03  0.12523128403E+03  0.00000000000E+00 0.  1.
         23    2    1    2    0    0  0.10103656525E+03 -0.16084534644E+03  0.23008266364E+01  0.21125881098E+03  0.92441216041E+02 0.  0.
         13    1    3    3    0    0  0.10625820631E+02 -0.18227699463E+02 -0.32597420432E+02  0.38829742603E+02  0.00000000000E+00 0.  1.
        -13    1    3    3    0    0  0.90410744617E+02 -0.14261764698E+03  0.34898247068E+02  0.17242906837E+03  0.00000000000E+00 0. -1.
         22    1    1    2    0    0 -0.10103656525E+03  0.16084534644E+03  0.41389383345E+03  0.45539841716E+03  0.00000000000E+00 0. -1.
<mgrwt>
<rscale>  0 0.52078197E+03</rscale>
<asrwt>0</asrwt>
<pdfrwt beam="1">  1        2 0.19266352E-01 0.52078197E+03</pdfrwt>
<pdfrwt beam="2">  1       -2 0.83296298E-01 0.52078197E+03</pdfrwt>
<totfact> 0.37858746E+02</totfact>
</mgrwt>
</event>
<event>
 6    1  0.5040916E-004  0.2301707E+04  0.7818608E-02  0.8477248E-01
          2   -1    0    0  501    0  0.00000000000E+00  0.00000000000E+00  0.12504251350E+04  0.12504251350E+04  0.00000000000E+00 0.  1.
         -2   -1    0    0    0  501 -0.00000000000E+00 -0.00000000000E+00 -0.10592104977E+04  0.10592104977E+04  0.00000000000E+00 0. -1.
         23    2    1    2    0    0  0.50814245674E+03 -0.67606794224E+03  0.87630080519E+03  0.12212332823E+04  0.90724912894E+02 0.  0.
         11    1    3    3    0    0  0.38518114707E+03 -0.45449258806E+03  0.64657024686E+03  0.87919344446E+03  0.00000000000E+00 0.  1.
        -11    1    3    3    0    0  0.12296130967E+03 -0.22157535419E+03  0.22973055833E+03  0.34203983787E+03  0.00000000000E+00 0. -1.
         22    1    1    2    0    0 -0.50814245674E+03  0.67606794224E+03 -0.68508616787E+03  0.10884023504E+04  0.00000000000E+00 0. -1.
<mgrwt>
<rscale>  0 0.23017067E+04</rscale>
<asrwt>0</asrwt>
<pdfrwt beam="1">  1        2 0.19237310E+00 0.23017067E+04</pdfrwt>
<pdfrwt beam="2">  1       -2 0.16295546E+00 0.23017067E+04</pdfrwt>
<totfact> 0.38396461E+00</totfact>
</mgrwt>
</event>
<event>
 6    1  0.5040916E-004  0.2141202E+04  0.7818608E-02  0.8543308E-01
         -2   -1    0    0    0  501 -0.00000000000E+00  0.00000000000E+00  0.45052734176E+03  0.45052734176E+03  0.00000000000E+00 0. -1.
          2   -1    0    0  501    0  0.00000000000E+00 -0.00000000000E+00 -0.25441003751E+04  0.25441003751E+04  0.00000000000E+00 0.  1.
         23    2    1    2    0    0  0.35159480168E+03  0.89672308667E+03 -0.40163151914E+03  0.10477334500E+04  0.93307590289E+02 0.  0.
         13    1    3    3    0    0  0.21435805340E+03  0.45665356584E+03 -0.17404879601E+03  0.53364298706E+03  0.00000000000E+00 0. -1.
        -13    1    3    3    0    0  0.13723674829E+03  0.44006952083E+03 -0.22758272314E+03  0.51409046297E+03  0.00000000000E+00 0.  1.
         22    1    1    2    0    0 -0.35159480168E+03 -0.89672308667E+03 -0.16919415142E+04  0.19468942668E+04  0.00000000000E+00 0.  1.
<mgrwt>
<rscale>  0 0.21412023E+04</rscale>
<asrwt>0</asrwt>
<pdfrwt beam="1">  1        2 0.39140005E+00 0.21412023E+04</pdfrwt>
<pdfrwt beam="2">  1       -2 0.69311900E-01 0.21412023E+04</pdfrwt>
<totfact> 0.57263789E+00</totfact>
</mgrwt>
</event>
<event>
 6    1  0.5040916E-004  0.2368280E+04  0.7818608E-02  0.8451475E-01
          2   -1    0    0  501    0  0.00000000000E+00  0.00000000000E+00  0.21041404561E+04  0.21041404561E+04  0.00000000000E+00 0.  1.
         -2   -1    0    0    0  501 -0.00000000000E+00 -0.00000000000E+00 -0.66639468923E+03  0.66639468923E+03  0.00000000000E+00 0. -1.
         23    2    1    2    0    0  0.52984203320E+03  0.69750851296E+03  0.16489839297E+04  0.18694955972E+04  0.92817466256E+02 0.  0.
         13    1    3    3    0    0  0.20946060719E+03  0.32451766750E+03  0.80121739695E+03  0.88945757609E+03  0.00000000000E+00 0.  1.
        -13    1    3    3    0    0  0.32038142602E+03  0.37299084546E+03  0.84776653270E+03  0.98003802115E+03  0.00000000000E+00 0. -1.
         22    1    1    2    0    0 -0.52984203320E+03 -0.69750851296E+03 -0.21123816279E+03  0.90103954809E+03  0.00000000000E+00 0. -1.
<mgrwt>
<rscale>  0 0.23682804E+04</rscale>
<asrwt>0</asrwt>
<pdfrwt beam="1">  1        2 0.32371391E+00 0.23682804E+04</pdfrwt>
<pdfrwt beam="2">  1       -2 0.10252226E+00 0.23682804E+04</pdfrwt>
<totfact> 0.41011842E+00</totfact>
</mgrwt>
</event>
<event>
 6    1  0.5040916E-004  0.1744661E+04  0.7818608E-02  0.8736295E-01
          2   -1    0    0  501    0  0.00000000000E+00  0.00000000000E+00  0.47057016624E+03  0.47057016624E+03  0.00000000000E+00 0.  1.
         -2   -1    0    0    0  501 -0.00000000000E+00 -0.00000000000E+00 -0.16171023235E+04  0.16171023235E+04  0.00000000000E+00 0. -1.
         23    2    1    2    0    0 -0.19023131526E+03  0.35659219958E+03  0.34991783491E+03  0.53760522371E+03  0.56841316474E+02 0.  0.
         13    1    3    3    0    0 -0.94465241898E+02  0.16974866011E+03  0.20542780867E+03  0.28273463550E+03  0.00000000000E+00 0. -1.
        -13    1    3    3    0    0 -0.95766073367E+02  0.18684353948E+03  0.14449002625E+03  0.25487058821E+03  0.00000000000E+00 0.  1.
         22    1    1    2    0    0  0.19023131526E+03 -0.35659219958E+03 -0.14964499922E+04  0.15500672660E+04  0.00000000000E+00 0. -1.
<mgrwt>
<rscale>  0 0.17446606E+04</rscale>
<asrwt>0</asrwt>
<pdfrwt beam="1">  1        2 0.72395410E-01 0.17446606E+04</pdfrwt>
<pdfrwt beam="2">  1       -2 0.24878497E+00 0.17446606E+04</pdfrwt>
<totfact> 0.40954356E+00</totfact>
</mgrwt>
</event>
<event>
 6    1  0.6220388E-004  0.3199933E+04  0.7818608E-02  0.8188835E-01
         -2   -1    0    0    0  501 -0.00000000000E+00  0.00000000000E+00  0.10353118901E+04  0.10353118901E+04  0.00000000000E+00 0. -1.
          2   -1    0    0  501    0  0.00000000000E+00 -0.00000000000E+00 -0.24725810827E+04  0.24725810827E+04  0.00000000000E+00 0.  1.
         23    2    1    2    0    0 -0.85676910237E+03 -0.22435336280E+02  0.76008127726E+03  0.11493116776E+04  0.92936241767E+02 0.  0.
         11    1    3    3    0    0 -0.43298494570E+03 -0.12092183395E+02  0.44603011243E+03  0.62174355268E+03  0.00000000000E+00 0. -1.
        -11    1    3    3    0    0 -0.42378415667E+03 -0.10343152885E+02  0.31405116483E+03  0.52756812488E+03  0.00000000000E+00 0.  1.
         22    1    1    2    0    0  0.85676910237E+03  0.22435336280E+02 -0.21973504698E+04  0.23585812953E+04  0.00000000000E+00 0.  1.
<mgrwt>
<rscale>  0 0.31999329E+04</rscale>
<asrwt>0</asrwt>
<pdfrwt beam="1">  1        2 0.38039709E+00 0.31999329E+04</pdfrwt>
<pdfrwt beam="2">  1       -2 0.15927875E+00 0.31999329E+04</pdfrwt>
<totfact> 0.77522787E-01</totfact>
</mgrwt>
</event>
<event>
 6    1  0.5040916E-004  0.3432041E+04  0.7818608E-02  0.8130087E-01
         -2   -1    0    0    0  501 -0.00000000000E+00  0.00000000000E+00  0.14080644311E+04  0.14080644311E+04  0.00000000000E+00 0. -1.
          2   -1    0    0  501    0  0.00000000000E+00 -0.00000000000E+00 -0.20913289931E+04  0.20913289931E+04  0.00000000000E+00 0.  1.
         23    2    1    2    0    0  0.13385969217E+04  0.10558583349E+04 -0.15514239692E+03  0.17145708662E+04  0.94897575873E+02 0.  0.
         11    1    3    3    0    0  0.50735683326E+03  0.43408621016E+03 -0.98831205164E+02  0.67498844525E+03  0.00000000000E+00 0. -1.
        -11    1    3    3    0    0  0.83124008844E+03  0.62177212472E+03 -0.56311191757E+02  0.10395824210E+04  0.00000000000E+00 0.  1.
         22    1    1    2    0    0 -0.13385969217E+04 -0.10558583349E+04 -0.52812216509E+03  0.17848225579E+04  0.00000000000E+00 0.  1.
<mgrwt>
<rscale>  0 0.34320408E+04</rscale>
<asrwt>0</asrwt>
<pdfrwt beam="1">  1        2 0.32174292E+00 0.34320408E+04</pdfrwt>
<pdfrwt beam="2">  1       -2 0.21662530E+00 0.34320408E+04</pdfrwt>
<totfact> 0.50984093E-01</totfact>
</mgrwt>
</event>
<event>
 6    1  0.5040916E-004  0.1612471E+04  0.7818608E-02  0.8812923E-01
         -1   -1    0    0    0  501 -0.00000000000E+00  0.00000000000E+00  0.88749509842E+03  0.88749509842E+03  0.00000000000E+00 0.  1.
          1   -1    0    0  501    0  0.00000000000E+00 -0.00000000000E+00 -0.73241644670E+03  0.73241644670E+03  0.00000000000E+00 0. -1.
         23    2    1    2    0    0 -0.18374688981E+02  0.15286207672E+03  0.87016859682E+03  0.88843490621E+03  0.91753757378E+02 0.  0.
         13    1    3    3    0    0 -0.16550275617E+02  0.15069131477E+03  0.62050567834E+03  0.63875588516E+03  0.00000000000E+00 0.  1.
        -13    1    3    3    0    0 -0.18244133641E+01  0.21707619458E+01  0.24966291848E+03  0.24967902106E+03  0.00000000000E+00 0. -1.
         22    1    1    2    0    0  0.18374688981E+02 -0.15286207672E+03 -0.71508994510E+03  0.73147663891E+03  0.00000000000E+00 0. -1.
<mgrwt>
<rscale>  0 0.16124714E+04</rscale>
<asrwt>0</asrwt>
<pdfrwt beam="1">  1        1 0.11267945E+00 0.16124714E+04</pdfrwt>
<pdfrwt beam="2">  1       -1 0.13653771E+00 0.16124714E+04</pdfrwt>
<totfact> 0.10900951E+01</totfact>
</mgrwt>
</event>
<event>
 6    1  0.5040916E-004  0.3416110E+04  0.7818608E-02  0.8133964E-01
         -2   -1    0    0    0  501 -0.00000000000E+00  0.00000000000E+00  0.13619171733E+04  0.13619171733E+04  0.00000000000E+00 0. -1.
          2   -1    0    0  501    0  0.00000000000E+00 -0.00000000000E+00 -0.21421657013E+04  0.21421657013E+04  0.00000000000E+00 0.  1.
         23    2    1    2    0    0  0.16439205341E+04  0.37465917953E+03 -0.66234070771E+03  0.18138916199E+04  0.93077238789E+02 0.  0.
         11    1    3    3    0    0  0.27638766453E+03  0.40868720027E+02 -0.81026553152E+02  0.29090495991E+03  0.00000000000E+00 0. -1.
        -11    1    3    3    0    0  0.13675328696E+04  0.33379045950E+03 -0.58131415456E+03  0.15229866600E+04  0.00000000000E+00 0.  1.
         22    1    1    2    0    0 -0.16439205341E+04 -0.37465917953E+03 -0.11790782031E+03  0.16901912547E+04  0.00000000000E+00 0.  1.
<mgrwt>
<rscale>  0 0.34161102E+04</rscale>
<asrwt>0</asrwt>
<pdfrwt beam="1">  1        2 0.32956395E+00 0.34161102E+04</pdfrwt>
<pdfrwt beam="2">  1       -2 0.20952572E+00 0.34161102E+04</pdfrwt>
<totfact> 0.53096384E-01</totfact>
</mgrwt>
</event>
<event>
 6    1  0.5040916E-004  0.1483733E+04  0.7818608E-02  0.8895343E-01
          2   -1    0    0  501    0  0.00000000000E+00  0.00000000000E+00  0.12874932736E+04  0.12874932736E+04  0.00000000000E+00 0.  1.
         -2   -1    0    0    0  501 -0.00000000000E+00 -0.00000000000E+00 -0.42747070382E+03  0.42747070382E+03  0.00000000000E+00 0. -1.
         23    2    1    2    0    0  0.29741294438E+03 -0.62561537462E+03  0.13419909968E+03  0.71163513492E+03  0.92553284366E+02 0.  0.
         13    1    3    3    0    0  0.28424512001E+02 -0.14785561121E+03  0.26409659817E+02  0.15286171784E+03  0.00000000000E+00 0. -1.
        -13    1    3    3    0    0  0.26898843238E+03 -0.47775976341E+03  0.10778943986E+03  0.55877341708E+03  0.00000000000E+00 0.  1.
         22    1    1    2    0    0 -0.29741294438E+03  0.62561537462E+03  0.72582347011E+03  0.10033288425E+04  0.00000000000E+00 0.  1.
<mgrwt>
<rscale>  0 0.14837327E+04</rscale>
<asrwt>0</asrwt>
<pdfrwt beam="1">  1        2 0.19807589E+00 0.14837327E+04</pdfrwt>
<pdfrwt beam="2">  1       -2 0.65764724E-01 0.14837327E+04</pdfrwt>
<totfact> 0.34621776E+01</totfact>
</mgrwt>
</event>
<event>
 6    1  0.5040916E-004  0.6206110E+04  0.7818608E-02  0.7665359E-01
         -2   -1    0    0    0  501 -0.00000000000E+00  0.00000000000E+00  0.19879409893E+04  0.19879409893E+04  0.00000000000E+00 0. -1.
          2   -1    0    0  501    0  0.00000000000E+00 -0.00000000000E+00 -0.48436807732E+04  0.48436807732E+04  0.00000000000E+00 0.  1.
         23    2    1    2    0    0  0.26451601749E+03 -0.30063216260E+04 -0.63681806503E+03  0.30857504303E+04  0.91542490322E+02 0.  0.
         11    1    3    3    0    0  0.32482098997E+02 -0.14521475269E+03 -0.33853716917E+02  0.15260565292E+03  0.00000000000E+00 0. -1.
        -11    1    3    3    0    0  0.23203391849E+03 -0.28611068733E+04 -0.60296434811E+03  0.29331447774E+04  0.00000000000E+00 0.  1.
         22    1    1    2    0    0 -0.26451601749E+03  0.30063216260E+04 -0.22189217189E+04  0.37458713322E+04  0.00000000000E+00 0. -1.
<mgrwt>
<rscale>  0 0.62061104E+04</rscale>
<asrwt>0</asrwt>
<pdfrwt beam="1">  1        2 0.74518165E+00 0.62061104E+04</pdfrwt>
<pdfrwt beam="2">  1       -2 0.30583708E+00 0.62061104E+04</pdfrwt>
<totfact> 0.10098147E-03</totfact>
</mgrwt>
</event>
<event>
 6    1  0.5040916E-004  0.1917921E+04  0.7818608E-02  0.8645987E-01
         -2   -1    0    0    0  501 -0.00000000000E+00  0.00000000000E+00  0.57902998550E+03  0.57902998550E+03  0.00000000000E+00 0. -1.
          2   -1    0    0  501    0  0.00000000000E+00 -0.00000000000E+00 -0.15881817745E+04  0.15881817745E+04  0.00000000000E+00 0.  1.
         23    2    1    2    0    0 -0.77969345931E+03 -0.52116289141E+03 -0.29147090644E+03  0.98628056004E+03  0.90892265474E+02 0.  0.
         13    1    3    3    0    0 -0.64676799793E+03 -0.40755670993E+03 -0.20648569468E+03  0.79186340809E+03  0.00000000000E+00 0. -1.
        -13    1    3    3    0    0 -0.13292546138E+03 -0.11360618148E+03 -0.84985211765E+02  0.19441715195E+03  0.00000000000E+00 0.  1.
         22    1    1    2    0    0  0.77969345931E+03  0.52116289141E+03 -0.71768088259E+03  0.11809312000E+04  0.00000000000E+00 0. -1.
<mgrwt>
<rscale>  0 0.19179206E+04</rscale>
<asrwt>0</asrwt>
<pdfrwt beam="1">  1        2 0.24433566E+00 0.19179206E+04</pdfrwt>
<pdfrwt beam="2">  1       -2 0.89081535E-01 0.19179206E+04</pdfrwt>
<totfact> 0.11459499E+01</totfact>
</mgrwt>
</event>
<event>
 6    1  0.5040916E-004  0.3975495E+04  0.7818608E-02  0.8009508E-01
         -2   -1    0    0    0  501 -0.00000000000E+00  0.00000000000E+00  0.19028974166E+04  0.19028974166E+04  0.00000000000E+00 0. -1.
          2   -1    0    0  501    0  0.00000000000E+00 -0.00000000000E+00 -0.20763806095E+04  0.20763806095E+04  0.00000000000E+00 0.  1.
         23    2    1    2    0    0 -0.41116420331E+03 -0.10766461411E+04  0.15329246307E+04  0.19201397172E+04  0.94104701629E+02 0.  0.
         13    1    3    3    0    0 -0.50738664049E+02 -0.74384806319E+02  0.14413060720E+03  0.16994453028E+03  0.00000000000E+00 0.  1.
        -13    1    3    3    0    0 -0.36042553926E+03 -0.10022613347E+04  0.13887940235E+04  0.17501951869E+04  0.00000000000E+00 0. -1.
         22    1    1    2    0    0  0.41116420331E+03  0.10766461411E+04 -0.17064078235E+04  0.20591383089E+04  0.00000000000E+00 0.  1.
<mgrwt>
<rscale>  0 0.39754946E+04</rscale>
<asrwt>0</asrwt>
<pdfrwt beam="1">  1        2 0.31944317E+00 0.39754946E+04</pdfrwt>
<pdfrwt beam="2">  1       -2 0.29275345E+00 0.39754946E+04</pdfrwt>
<totfact> 0.16853623E-01</totfact>
</mgrwt>
</event>
<event>
 6    1  0.5040916E-004  0.4671678E+04  0.7818608E-02  0.7881252E-01
          2   -1    0    0  501    0  0.00000000000E+00  0.00000000000E+00  0.46740233204E+04  0.46740233204E+04  0.00000000000E+00 0. -1.
         -2   -1    0    0    0  501 -0.00000000000E+00 -0.00000000000E+00 -0.11673335630E+04  0.11673335630E+04  0.00000000000E+00 0.  1.
         23    2    1    2    0    0  0.16150491781E+04  0.14905642559E+04  0.27400957663E+04  0.35137332034E+04  0.89613432333E+02 0.  0.
         11    1    3    3    0    0  0.92511674256E+03  0.79699647565E+03  0.15460129931E+04  0.19700762789E+04  0.00000000000E+00 0.  1.
        -11    1    3    3    0    0  0.68993243558E+03  0.69356778021E+03  0.11940827732E+04  0.15436569245E+04  0.00000000000E+00 0. -1.
         22    1    1    2    0    0 -0.16150491781E+04 -0.14905642559E+04  0.76659399102E+03  0.23276236800E+04  0.00000000000E+00 0.  1.
<mgrwt>
<rscale>  0 0.46716782E+04</rscale>
<asrwt>0</asrwt>
<pdfrwt beam="1">  1        2 0.71908050E+00 0.46716782E+04</pdfrwt>
<pdfrwt beam="2">  1       -2 0.17958978E+00 0.46716782E+04</pdfrwt>
<totfact> 0.11033238E-02</totfact>
</mgrwt>
</event>
<event>
 6    1  0.5040916E-004  0.1385406E+04  0.7818608E-02  0.8964451E-01
         -2   -1    0    0    0  501 -0.00000000000E+00  0.00000000000E+00  0.20534136958E+03  0.20534136958E+03  0.00000000000E+00 0. -1.
          2   -1    0    0  501    0  0.00000000000E+00 -0.00000000000E+00 -0.23367784652E+04  0.23367784652E+04  0.00000000000E+00 0.  1.
         23    2    1    2    0    0 -0.18458757988E+03  0.28455613826E+03 -0.21722746463E+04  0.22004877579E+04  0.91238495425E+02 0.  0.
         13    1    3    3    0    0 -0.98242732501E+02  0.77638366259E+02 -0.67451699096E+03  0.68604119519E+03  0.00000000000E+00 0.  1.
        -13    1    3    3    0    0 -0.86344847378E+02  0.20691777200E+03 -0.14977576553E+04  0.15144465627E+04  0.00000000000E+00 0. -1.
         22    1    1    2    0    0  0.18458757988E+03 -0.28455613826E+03  0.40837550640E+02  0.34163207697E+03  0.00000000000E+00 0. -1.
<mgrwt>
<rscale>  0 0.13854058E+04</rscale>
<asrwt>0</asrwt>
<pdfrwt beam="1">  1        2 0.35950438E+00 0.13854058E+04</pdfrwt>
<pdfrwt beam="2">  1       -2 0.31590980E-01 0.13854058E+04</pdfrwt>
<totfact> 0.39276793E+01</totfact>
</mgrwt>
</event>
<event>
 6    1  0.5222256E-004  0.3240117E+04  0.7818608E-02  0.8178302E-01
          2   -1    0    0  501    0  0.00000000000E+00  0.00000000000E+00  0.23068127861E+04  0.23068127861E+04  0.00000000000E+00 0.  1.
         -2   -1    0    0    0  501 -0.00000000000E+00 -0.00000000000E+00 -0.11377560437E+04  0.11377560437E+04  0.00000000000E+00 0. -1.
         23    2    1    2    0    0  0.22028758227E+03 -0.15586591384E+04  0.98652364655E+03  0.18598722469E+04  0.89168048349E+02 0.  0.
         11    1    3    3    0    0  0.10963348176E+03 -0.10710387269E+04  0.66938716294E+03  0.12677628440E+04  0.00000000000E+00 0. -1.
        -11    1    3    3    0    0  0.11065410051E+03 -0.48762041156E+03  0.31713648360E+03  0.59210940286E+03  0.00000000000E+00 0.  1.
         22    1    1    2    0    0 -0.22028758227E+03  0.15586591384E+04  0.18253309585E+03  0.15846965829E+04  0.00000000000E+00 0. -1.
<mgrwt>
<rscale>  0 0.32401174E+04</rscale>
<asrwt>0</asrwt>
<pdfrwt beam="1">  1        2 0.35489427E+00 0.32401174E+04</pdfrwt>
<pdfrwt beam="2">  1       -2 0.17503939E+00 0.32401174E+04</pdfrwt>
<totfact> 0.74046047E-01</totfact>
</mgrwt>
</event>
<event>
 6    1  0.5040916E-004  0.3179215E+04  0.7818608E-02  0.8194328E-01
          2   -1    0    0  501    0  0.00000000000E+00  0.00000000000E+00  0.15019101985E+04  0.15019101985E+04  0.00000000000E+00 0.  1.
         -2   -1    0    0    0  501 -0.00000000000E+00 -0.00000000000E+00 -0.16824257773E+04  0.16824257773E+04  0.00000000000E+00 0. -1.
         23    2    1    2    0    0 -0.95433382167E+03 -0.50684280398E+03  0.10757029960E+04  0.15273122044E+04  0.88898610038E+02 0.  0.
         13    1    3    3    0    0 -0.27282824709E+03 -0.19076009080E+03  0.33915107657E+03  0.47523480237E+03  0.00000000000E+00 0. -1.
        -13    1    3    3    0    0 -0.68150557458E+03 -0.31608271318E+03  0.73655191944E+03  0.10520774020E+04  0.00000000000E+00 0.  1.
         22    1    1    2    0    0  0.95433382167E+03  0.50684280398E+03 -0.12562185748E+04  0.16570237714E+04  0.00000000000E+00 0. -1.
<mgrwt>
<rscale>  0 0.31792153E+04</rscale>
<asrwt>0</asrwt>
<pdfrwt beam="1">  1        2 0.23106311E+00 0.31792153E+04</pdfrwt>
<pdfrwt beam="2">  1       -2 0.25883473E+00 0.31792153E+04</pdfrwt>
<totfact> 0.60578240E-01</totfact>
</mgrwt>
</event>
<event>
 6    1  0.5040916E-004  0.2800927E+04  0.7818608E-02  0.8302981E-01
          2   -1    0    0  501    0  0.00000000000E+00  0.00000000000E+00  0.22396021740E+04  0.22396021740E+04  0.00000000000E+00 0.  1.
         -2   -1    0    0    0  501 -0.00000000000E+00 -0.00000000000E+00 -0.87573513057E+03  0.87573513057E+03  0.00000000000E+00 0. -1.
         23    2    1    2    0    0  0.55898749871E+03  0.61671722463E+03  0.19333241197E+04  0.21068292379E+04  0.90444054115E+02 0.  0.
         13    1    3    3    0    0  0.24264430028E+03  0.27523277083E+03  0.96579278449E+03  0.10331432801E+04  0.00000000000E+00 0. -1.
        -13    1    3    3    0    0  0.31634319842E+03  0.34148445380E+03  0.96753133520E+03  0.10736859578E+04  0.00000000000E+00 0.  1.
         22    1    1    2    0    0 -0.55898749871E+03 -0.61671722463E+03 -0.56945707626E+03  0.10085080667E+04  0.00000000000E+00 0. -1.
<mgrwt>
<rscale>  0 0.28009272E+04</rscale>
<asrwt>0</asrwt>
<pdfrwt beam="1">  1        2 0.34455418E+00 0.28009272E+04</pdfrwt>
<pdfrwt beam="2">  1       -2 0.13472848E+00 0.28009272E+04</pdfrwt>
<totfact> 0.16922824E+00</totfact>
</mgrwt>
</event>
<event>
 6    1  0.5040916E-004  0.2093526E+04  0.7818608E-02  0.8564101E-01
         -2   -1    0    0    0  501 -0.00000000000E+00  0.00000000000E+00  0.28948756650E+04  0.28948756650E+04  0.00000000000E+00 0. -1.
          2   -1    0    0  501    0  0.00000000000E+00 -0.00000000000E+00 -0.37850081089E+03  0.37850081089E+03  0.00000000000E+00 0.  1.
         23    2    1    2    0    0  0.31866556632E+03 -0.26299865425E+03  0.27610637289E+04  0.27931799737E+04  0.87552356134E+02 0.  0.
         11    1    3    3    0    0  0.13610506941E+03 -0.58329748602E+02  0.97982117175E+03  0.99094726302E+03  0.00000000000E+00 0. -1.
        -11    1    3    3    0    0  0.18256049691E+03 -0.20466890565E+03  0.17812425572E+04  0.18022327107E+04  0.00000000000E+00 0.  1.
         22    1    1    2    0    0 -0.31866556632E+03  0.26299865425E+03 -0.24468887478E+03  0.48019650221E+03  0.00000000000E+00 0.  1.
<mgrwt>
<rscale>  0 0.20935260E+04</rscale>
<asrwt>0</asrwt>
<pdfrwt beam="1">  1        2 0.58230896E-01 0.20935260E+04</pdfrwt>
<pdfrwt beam="2">  1       -2 0.44536547E+00 0.20935260E+04</pdfrwt>
<totfact> 0.29098564E-01</totfact>
</mgrwt>
</event>
<event>
 6    1  0.5040916E-004  0.1574795E+04  0.7818608E-02  0.8836184E-01
         -2   -1    0    0    0  501 -0.00000000000E+00  0.00000000000E+00  0.27883238246E+03  0.27883238246E+03  0.00000000000E+00 0. -1.
          2   -1    0    0  501    0  0.00000000000E+00 -0.00000000000E+00 -0.22235394766E+04  0.22235394766E+04  0.00000000000E+00 0.  1.
         23    2    1    2    0    0  0.29632866136E+03  0.69664123651E+03 -0.13016688439E+04  0.15090854556E+04  0.99385337543E+02 0.  0.
         11    1    3    3    0    0  0.17119637889E+03  0.41590593377E+03 -0.86712392911E+03  0.97682641975E+03  0.00000000000E+00 0.  1.
        -11    1    3    3    0    0  0.12513228247E+03  0.28073530274E+03 -0.43454491475E+03  0.53225903586E+03  0.00000000000E+00 0. -1.
         22    1    1    2    0    0 -0.29632866136E+03 -0.69664123651E+03 -0.64303825027E+03  0.99328640344E+03  0.00000000000E+00 0. -1.
<mgrwt>
<rscale>  0 0.15747950E+04</rscale>
<asrwt>0</asrwt>
<pdfrwt beam="1">  1        2 0.34208299E+00 0.15747950E+04</pdfrwt>
<pdfrwt beam="2">  1       -2 0.42897291E-01 0.15747950E+04</pdfrwt>
<totfact> 0.24815018E+01</totfact>
</mgrwt>
</event>
<event>
 6    1  0.5040916E-004  0.2984338E+04  0.7818608E-02  0.8248217E-01
          2   -1    0    0  501    0  0.00000000000E+00  0.00000000000E+00  0.26231247510E+04  0.26231247510E+04  0.00000000000E+00 0.  1.
         -2   -1    0    0    0  501 -0.00000000000E+00 -0.00000000000E+00 -0.84882280365E+03  0.84882280365E+03  0.00000000000E+00 0. -1.
         23    2    1    2    0    0 -0.39335229731E+03  0.10439898940E+04 -0.26235364763E+03  0.11497488247E+04  0.91934732145E+02 0.  0.
         13    1    3    3    0    0 -0.11255797861E+03  0.23393907768E+03 -0.29017438848E+02  0.26122557757E+03  0.00000000000E+00 0. -1.
        -13    1    3    3    0    0 -0.28079431870E+03  0.81005081632E+03 -0.23333620878E+03  0.88852324717E+03  0.00000000000E+00 0.  1.
         22    1    1    2    0    0  0.39335229731E+03 -0.10439898940E+04  0.20366555949E+04  0.23221987299E+04  0.00000000000E+00 0.  1.
<mgrwt>
<rscale>  0 0.29843379E+04</rscale>
<asrwt>0</asrwt>
<pdfrwt beam="1">  1        2 0.40355765E+00 0.29843379E+04</pdfrwt>
<pdfrwt beam="2">  1       -2 0.13058813E+00 0.29843379E+04</pdfrwt>
<totfact> 0.10850490E+00</totfact>
</mgrwt>
</event>
<event>
 6    1  0.5040916E-004  0.2577594E+04  0.7818608E-02  0.8375852E-01
         -2   -1    0    0    0  501 -0.00000000000E+00  0.00000000000E+00  0.48874531965E+03  0.48874531965E+03  0.00000000000E+00 0. -1.
          2   -1    0    0  501    0  0.00000000000E+00 -0.00000000000E+00 -0.33984930666E+04  0.33984930666E+04  0.00000000000E+00 0.  1.
         23    2    1    2    0    0 -0.78709429815E+03  0.74315896219E+03 -0.25076191640E+04  0.27324613192E+04  0.79926917614E+02 0.  0.
         13    1    3    3    0    0 -0.41768607648E+03  0.38074988583E+03 -0.12113886715E+04  0.13367477876E+04  0.00000000000E+00 0. -1.
        -13    1    3    3    0    0 -0.36940822167E+03  0.36240907636E+03 -0.12962304925E+04  0.13957135317E+04  0.00000000000E+00 0.  1.
         22    1    1    2    0    0  0.78709429815E+03 -0.74315896219E+03 -0.40212858292E+03  0.11547770670E+04  0.00000000000E+00 0. -1.
<mgrwt>
<rscale>  0 0.25775939E+04</rscale>
<asrwt>0</asrwt>
<pdfrwt beam="1">  1        2 0.52284508E+00 0.25775939E+04</pdfrwt>
<pdfrwt beam="2">  1       -2 0.75191589E-01 0.25775939E+04</pdfrwt>
<totfact> 0.13455152E+00</totfact>
</mgrwt>
</event>
<event>
 6    1  0.5040916E-004  0.2617331E+04  0.7818608E-02  0.8362338E-01
         -2   -1    0    0    0  501 -0.00000000000E+00  0.00000000000E+00  0.12713044666E+04  0.12713044666E+04  0.00000000000E+00 0. -1.
          2   -1    0    0  501    0  0.00000000000E+00 -0.00000000000E+00 -0.13471244092E+04  0.13471244092E+04  0.00000000000E+00 0.  1.
         23    2    1    2    0    0 -0.88117530705E+03  0.43592474601E+03 -0.89963632949E+03  0.13357856109E+04  0.92072617791E+02 0.  0.
         13    1    3    3    0    0 -0.21143928451E+03  0.69461985025E+02 -0.23364445634E+03  0.32267827688E+03  0.00000000000E+00 0. -1.
        -13    1    3    3    0    0 -0.66973602254E+03  0.36646276099E+03 -0.66599187315E+03  0.10131073340E+04  0.00000000000E+00 0.  1.
         22    1    1    2    0    0  0.88117530705E+03 -0.43592474601E+03  0.82381638683E+03  0.12826432650E+04  0.00000000000E+00 0. -1.
<mgrwt>
<rscale>  0 0.26173309E+04</rscale>
<asrwt>0</asrwt>
<pdfrwt beam="1">  1        2 0.20724991E+00 0.26173309E+04</pdfrwt>
<pdfrwt beam="2">  1       -2 0.19558530E+00 0.26173309E+04</pdfrwt>
<totfact> 0.19501993E+00</totfact>
</mgrwt>
</event>
<event>
 6    1  0.5040916E-004  0.3916366E+04  0.7818608E-02  0.8021634E-01
         -1   -1    0    0    0  501 -0.00000000000E+00  0.00000000000E+00  0.69175267970E+03  0.69175267970E+03  0.00000000000E+00 0. -1.
          1   -1    0    0  501    0  0.00000000000E+00 -0.00000000000E+00 -0.55431380060E+04  0.55431380060E+04  0.00000000000E+00 0.  1.
         23    2    1    2    0    0 -0.68970110872E+03 -0.14372077838E+04 -0.42345840652E+04  0.45255932777E+04  0.89657554193E+02 0.  0.
         13    1    3    3    0    0 -0.41142012497E+03 -0.81583879738E+03 -0.25406391366E+04  0.26999456819E+04  0.00000000000E+00 0. -1.
        -13    1    3    3    0    0 -0.27828098375E+03 -0.62136898645E+03 -0.16939449286E+04  0.18256475959E+04  0.00000000000E+00 0.  1.
         22    1    1    2    0    0  0.68970110872E+03  0.14372077838E+04 -0.61680126113E+03  0.17092974080E+04  0.00000000000E+00 0. -1.
<mgrwt>
<rscale>  0 0.39163660E+04</rscale>
<asrwt>0</asrwt>
<pdfrwt beam="1">  1        1 0.85279044E+00 0.39163660E+04</pdfrwt>
<pdfrwt beam="2">  1       -1 0.10642349E+00 0.39163660E+04</pdfrwt>
<totfact> 0.80756436E-04</totfact>
</mgrwt>
</event>
<event>
 6    1  0.5040916E-004  0.1728952E+04  0.7818608E-02  0.8745022E-01
          2   -1    0    0  501    0  0.00000000000E+00  0.00000000000E+00  0.22445916841E+04  0.22445916841E+04  0.00000000000E+00 0.  1.
         -2   -1    0    0    0  501 -0.00000000000E+00 -0.00000000000E+00 -0.33294196205E+03  0.33294196205E+03  0.00000000000E+00 0. -1.
         23    2    1    2    0    0  0.25502827898E+03 -0.28182186393E+02  0.21854258066E+04  0.22023177040E+04  0.91014585416E+02 0.  0.
         11    1    3    3    0    0  0.18253108971E+02 -0.23009398774E+02  0.42790583945E+03  0.42891259699E+03  0.00000000000E+00 0.  1.
        -11    1    3    3    0    0  0.23677517000E+03 -0.51727876185E+01  0.17575199671E+04  0.17734051070E+04  0.00000000000E+00 0. -1.
         22    1    1    2    0    0 -0.25502827898E+03  0.28182186393E+02 -0.27377608456E+03  0.37521594207E+03  0.00000000000E+00 0. -1.
<mgrwt>
<rscale>  0 0.17289520E+04</rscale>
<asrwt>0</asrwt>
<pdfrwt beam="1">  1        2 0.34532179E+00 0.17289520E+04</pdfrwt>
<pdfrwt beam="2">  1       -2 0.51221842E-01 0.17289520E+04</pdfrwt>
<totfact> 0.16673343E+01</totfact>
</mgrwt>
</event>
<event>
 6    1  0.5040916E-004  0.1322977E+04  0.7818608E-02  0.9011540E-01
          2   -1    0    0  501    0  0.00000000000E+00  0.00000000000E+00  0.23682966081E+04  0.23682966081E+04  0.00000000000E+00 0.  1.
         -2   -1    0    0    0  501 -0.00000000000E+00 -0.00000000000E+00 -0.18476034168E+03  0.18476034168E+03  0.00000000000E+00 0. -1.
         23    2    1    2    0    0  0.15268948308E+03  0.32376385384E+03  0.31160208312E+02  0.37111748985E+03  0.92844608870E+02 0.  0.
         13    1    3    3    0    0  0.60859784150E+02  0.12496948337E+03  0.57768998540E+02  0.15052754662E+03  0.00000000000E+00 0.  1.
        -13    1    3    3    0    0  0.91829698933E+02  0.19879437047E+03 -0.26608790228E+02  0.22058994323E+03  0.00000000000E+00 0. -1.
         22    1    1    2    0    0 -0.15268948308E+03 -0.32376385384E+03  0.21523760581E+04  0.21819394599E+04  0.00000000000E+00 0.  1.
<mgrwt>
<rscale>  0 0.13229774E+04</rscale>
<asrwt>0</asrwt>
<pdfrwt beam="1">  1        2 0.36435330E+00 0.13229774E+04</pdfrwt>
<pdfrwt beam="2">  1       -2 0.28424670E-01 0.13229774E+04</pdfrwt>
<totfact> 0.46139120E+01</totfact>
</mgrwt>
</event>
<event>
 6    1  0.5040916E-004  0.1823111E+04  0.7818608E-02  0.8694105E-01
         -2   -1    0    0    0  501 -0.00000000000E+00  0.00000000000E+00  0.30523514599E+03  0.30523514599E+03  0.00000000000E+00 0. -1.
          2   -1    0    0  501    0  0.00000000000E+00 -0.00000000000E+00 -0.27222720666E+04  0.27222720666E+04  0.00000000000E+00 0.  1.
         23    2    1    2    0    0  0.16026327558E+03 -0.82722954874E+03 -0.64437256894E+03  0.10647713803E+04  0.92352806288E+02 0.  0.
         13    1    3    3    0    0  0.15111876118E+03 -0.59503017856E+03 -0.49386795464E+03  0.78791075002E+03  0.00000000000E+00 0.  1.
        -13    1    3    3    0    0  0.91445143956E+01 -0.23219937018E+03 -0.15050461430E+03  0.27686063025E+03  0.00000000000E+00 0. -1.
         22    1    1    2    0    0 -0.16026327558E+03  0.82722954874E+03 -0.17726643517E+04  0.19627358324E+04  0.00000000000E+00 0.  1.
<mgrwt>
<rscale>  0 0.18231107E+04</rscale>
<asrwt>0</asrwt>
<pdfrwt beam="1">  1        2 0.41881108E+00 0.18231107E+04</pdfrwt>
<pdfrwt beam="2">  1       -2 0.46959254E-01 0.18231107E+04</pdfrwt>
<totfact> 0.10453375E+01</totfact>
</mgrwt>
</event>
<event>
 6    1  0.5040916E-004  0.1877625E+04  0.7818608E-02  0.8666075E-01
         -2   -1    0    0    0  501 -0.00000000000E+00  0.00000000000E+00  0.25954148188E+03  0.25954148188E+03  0.00000000000E+00 0. -1.
          2   -1    0    0  501    0  0.00000000000E+00 -0.00000000000E+00 -0.33958692652E+04  0.33958692652E+04  0.00000000000E+00 0.  1.
         23    2    1    2    0    0  0.24412695389E+03 -0.88182765124E+03 -0.19639197619E+04  0.21682125273E+04  0.83347204378E+02 0.  0.
         13    1    3    3    0    0  0.12341745513E+03 -0.59323649894E+03 -0.13031116518E+04  0.14371017323E+04  0.00000000000E+00 0. -1.
        -13    1    3    3    0    0  0.12070949876E+03 -0.28859115230E+03 -0.66080811008E+03  0.73111079504E+03  0.00000000000E+00 0.  1.
         22    1    1    2    0    0 -0.24412695389E+03  0.88182765124E+03 -0.11724080215E+04  0.14871982198E+04  0.00000000000E+00 0. -1.
<mgrwt>
<rscale>  0 0.18776250E+04</rscale>
<asrwt>0</asrwt>
<pdfrwt beam="1">  1        2 0.52244138E+00 0.18776250E+04</pdfrwt>
<pdfrwt beam="2">  1       -2 0.39929462E-01 0.18776250E+04</pdfrwt>
<totfact> 0.53764480E+00</totfact>
</mgrwt>
</event>
<event>
 6    1  0.5040916E-004  0.1656239E+04  0.7818608E-02  0.8786724E-01
         -2   -1    0    0    0  501 -0.00000000000E+00  0.00000000000E+00  0.78718704258E+03  0.78718704258E+03  0.00000000000E+00 0.  1.
          2   -1    0    0  501    0  0.00000000000E+00 -0.00000000000E+00 -0.87118016312E+03  0.87118016312E+03  0.00000000000E+00 0. -1.
         23    2    1    2    0    0 -0.15602034903E+02  0.16793349356E+03 -0.85153969035E+03  0.87250919144E+03  0.87791589330E+02 0.  0.
         11    1    3    3    0    0 -0.16766394304E+02  0.81758865075E+02 -0.61733348783E+03  0.62294964419E+03  0.00000000000E+00 0. -1.
        -11    1    3    3    0    0  0.11643594006E+01  0.86174628482E+02 -0.23420620251E+03  0.24955954725E+03  0.00000000000E+00 0.  1.
         22    1    1    2    0    0  0.15602034903E+02 -0.16793349356E+03  0.76754656981E+03  0.78585801426E+03  0.00000000000E+00 0.  1.
<mgrwt>
<rscale>  0 0.16562388E+04</rscale>
<asrwt>0</asrwt>
<pdfrwt beam="1">  1        2 0.13402772E+00 0.16562388E+04</pdfrwt>
<pdfrwt beam="2">  1       -2 0.12110570E+00 0.16562388E+04</pdfrwt>
<totfact> 0.15204069E+01</totfact>
</mgrwt>
</event>
<event>
 6    1  0.5040916E-004  0.1241656E+04  0.7818608E-02  0.9077157E-01
          2   -1    0    0  501    0  0.00000000000E+00  0.00000000000E+00  0.33273074243E+04  0.33273074243E+04  0.00000000000E+00 0.  1.
         -2   -1    0    0    0  501 -0.00000000000E+00 -0.00000000000E+00 -0.11583756033E+03  0.11583756033E+03  0.00000000000E+00 0. -1.
         23    2    1    2    0    0 -0.14946976713E+03 -0.47933368622E+03  0.26110296046E+04  0.26604378241E+04  0.91388324634E+02 0.  0.
         11    1    3    3    0    0 -0.65630270471E+02 -0.32724249838E+03  0.15777933405E+04  0.16127079123E+04  0.00000000000E+00 0. -1.
        -11    1    3    3    0    0 -0.83839496659E+02 -0.15209118783E+03  0.10332362641E+04  0.10477299118E+04  0.00000000000E+00 0.  1.
         22    1    1    2    0    0  0.14946976713E+03  0.47933368622E+03  0.60044025937E+03  0.78270716050E+03  0.00000000000E+00 0. -1.
<mgrwt>
<rscale>  0 0.12416556E+04</rscale>
<asrwt>0</asrwt>
<pdfrwt beam="1">  1        2 0.51189338E+00 0.12416556E+04</pdfrwt>
<pdfrwt beam="2">  1       -2 0.17821166E-01 0.12416556E+04</pdfrwt>
<totfact> 0.28014769E+01</totfact>
</mgrwt>
</event>
<event>
 6    1  0.5040916E-004  0.4553106E+04  0.7818608E-02  0.7901405E-01
         -2   -1    0    0    0  501 -0.00000000000E+00  0.00000000000E+00  0.19938328010E+04  0.19938328010E+04  0.00000000000E+00 0. -1.
          2   -1    0    0  501    0  0.00000000000E+00 -0.00000000000E+00 -0.25993617598E+04  0.25993617598E+04  0.00000000000E+00 0.  1.
         23    2    1    2    0    0  0.17593509692E+04 -0.78553635513E+03  0.91865796493E+03  0.21364632005E+04  0.90329133313E+02 0.  0.
         13    1    3    3    0    0  0.12213424337E+04 -0.53544160096E+03  0.68052657681E+03  0.14971611370E+04  0.00000000000E+00 0.  1.
        -13    1    3    3    0    0  0.53800853553E+03 -0.25009475417E+03  0.23813138812E+03  0.63930206348E+03  0.00000000000E+00 0. -1.
         22    1    1    2    0    0 -0.17593509692E+04  0.78553635513E+03 -0.15241869238E+04  0.24567313603E+04  0.00000000000E+00 0.  1.
<mgrwt>
<rscale>  0 0.45531056E+04</rscale>
<asrwt>0</asrwt>
<pdfrwt beam="1">  1        2 0.39990181E+00 0.45531056E+04</pdfrwt>
<pdfrwt beam="2">  1       -2 0.30674351E+00 0.45531056E+04</pdfrwt>
<totfact> 0.66402096E-02</totfact>
</mgrwt>
</event>
<event>
 6    1  0.5040916E-004  0.2883316E+04  0.7818608E-02  0.8277859E-01
         -2   -1    0    0    0  501 -0.00000000000E+00  0.00000000000E+00  0.52028156694E+03  0.52028156694E+03  0.00000000000E+00 0. -1.
          2   -1    0    0  501    0  0.00000000000E+00 -0.00000000000E+00 -0.39947161097E+04  0.39947161097E+04  0.00000000000E+00 0.  1.
         23    2    1    2    0    0 -0.11740890196E+04 -0.25714709277E+03 -0.29815185349E+04  0.32159303788E+04  0.90253943403E+02 0.  0.
         13    1    3    3    0    0 -0.48166157978E+03 -0.92442438154E+02 -0.13311248216E+04  0.14186038109E+04  0.00000000000E+00 0.  1.
        -13    1    3    3    0    0 -0.69242743987E+03 -0.16470465462E+03 -0.16503937133E+04  0.17973265679E+04  0.00000000000E+00 0. -1.
         22    1    1    2    0    0  0.11740890196E+04  0.25714709277E+03 -0.49291600785E+03  0.12990672978E+04  0.00000000000E+00 0. -1.
<mgrwt>
<rscale>  0 0.28833156E+04</rscale>
<asrwt>0</asrwt>
<pdfrwt beam="1">  1        2 0.61457168E+00 0.28833156E+04</pdfrwt>
<pdfrwt beam="2">  1       -2 0.80043322E-01 0.28833156E+04</pdfrwt>
<totfact> 0.41231052E-01</totfact>
</mgrwt>
</event>
<event>
 6    1  0.5040916E-004  0.2354356E+04  0.7818608E-02  0.8456792E-01
          2   -1    0    0  501    0  0.00000000000E+00  0.00000000000E+00  0.30337432701E+04  0.30337432701E+04  0.00000000000E+00 0.  1.
         -2   -1    0    0    0  501 -0.00000000000E+00 -0.00000000000E+00 -0.45677835035E+03  0.45677835035E+03  0.00000000000E+00 0. -1.
         23    2    1    2    0    0  0.31784283559E+03 -0.86233455035E+03  0.23765857957E+04  0.25498852729E+04  0.95445880217E+02 0.  0.
         13    1    3    3    0    0  0.97896462771E+02 -0.34289533165E+03  0.10274049814E+04  0.10875301935E+04  0.00000000000E+00 0. -1.
        -13    1    3    3    0    0  0.21994637282E+03 -0.51943921870E+03  0.13491808143E+04  0.14623550795E+04  0.00000000000E+00 0.  1.
         22    1    1    2    0    0 -0.31784283559E+03  0.86233455035E+03  0.20037912403E+03  0.94063634748E+03  0.00000000000E+00 0. -1.
<mgrwt>
<rscale>  0 0.23543562E+04</rscale>
<asrwt>0</asrwt>
<pdfrwt beam="1">  1        2 0.46672972E+00 0.23543562E+04</pdfrwt>
<pdfrwt beam="2">  1       -2 0.70273594E-01 0.23543562E+04</pdfrwt>
<totfact> 0.27602633E+00</totfact>
</mgrwt>
</event>
<event>
 6    1  0.5040916E-004  0.2805494E+04  0.7818608E-02  0.8301565E-01
         -2   -1    0    0    0  501 -0.00000000000E+00  0.00000000000E+00  0.10204712001E+04  0.10204712001E+04  0.00000000000E+00 0. -1.
          2   -1    0    0  501    0  0.00000000000E+00 -0.00000000000E+00 -0.19282258490E+04  0.19282258490E+04  0.00000000000E+00 0.  1.
         23    2    1    2    0    0 -0.23691396907E+03 -0.34505456358E+03  0.95115947613E+03  0.10432436634E+04  0.91989736876E+02 0.  0.
         13    1    3    3    0    0 -0.45312953560E+02 -0.69211346877E+02  0.29143517009E+03  0.30294872943E+03  0.00000000000E+00 0. -1.
        -13    1    3    3    0    0 -0.19160101551E+03 -0.27584321670E+03  0.65972430604E+03  0.74029493401E+03  0.00000000000E+00 0.  1.
         22    1    1    2    0    0  0.23691396907E+03  0.34505456358E+03 -0.18589141250E+04  0.19054533856E+04  0.00000000000E+00 0.  1.
<mgrwt>
<rscale>  0 0.28054939E+04</rscale>
<asrwt>0</asrwt>
<pdfrwt beam="1">  1        2 0.29665013E+00 0.28054939E+04</pdfrwt>
<pdfrwt beam="2">  1       -2 0.15699557E+00 0.28054939E+04</pdfrwt>
<totfact> 0.16896222E+00</totfact>
</mgrwt>
</event>
<event>
 6    1  0.5040916E-004  0.1987334E+04  0.7818608E-02  0.8612565E-01
          2   -1    0    0  501    0  0.00000000000E+00  0.00000000000E+00  0.16540014378E+04  0.16540014378E+04  0.00000000000E+00 0.  1.
         -2   -1    0    0    0  501 -0.00000000000E+00 -0.00000000000E+00 -0.59696076039E+03  0.59696076039E+03  0.00000000000E+00 0. -1.
         23    2    1    2    0    0  0.78871902033E+03 -0.36161101909E+03  0.10732088137E+04  0.13831479146E+04  0.92091115611E+02 0.  0.
         13    1    3    3    0    0  0.41103419003E+03 -0.23137256002E+03  0.54263655693E+03  0.71898317075E+03  0.00000000000E+00 0. -1.
        -13    1    3    3    0    0  0.37768483030E+03 -0.13023845908E+03  0.53057225680E+03  0.66416474383E+03  0.00000000000E+00 0.  1.
         22    1    1    2    0    0 -0.78871902033E+03  0.36161101909E+03 -0.16168136347E+02  0.86781428359E+03  0.00000000000E+00 0. -1.
<mgrwt>
<rscale>  0 0.19873338E+04</rscale>
<asrwt>0</asrwt>
<pdfrwt beam="1">  1        2 0.25446176E+00 0.19873338E+04</pdfrwt>
<pdfrwt beam="2">  1       -2 0.91840118E-01 0.19873338E+04</pdfrwt>
<totfact> 0.97568745E+00</totfact>
</mgrwt>
</event>
<event>
 6    1  0.5040916E-004  0.3025386E+04  0.7818608E-02  0.8236519E-01
          2   -1    0    0  501    0  0.00000000000E+00  0.00000000000E+00  0.15003489004E+04  0.15003489004E+04  0.00000000000E+00 0.  1.
         -2   -1    0    0    0  501 -0.00000000000E+00 -0.00000000000E+00 -0.15251390730E+04  0.15251390730E+04  0.00000000000E+00 0. -1.
         23    2    1    2    0    0 -0.55498722712E+03  0.13920945910E+04  0.18341264610E+03  0.15124491153E+04  0.89016599496E+02 0.  0.
         13    1    3    3    0    0 -0.37986891133E+03  0.84496461063E+03  0.96466513923E+02  0.93143511385E+03  0.00000000000E+00 0.  1.
        -13    1    3    3    0    0 -0.17511831578E+03  0.54712998037E+03  0.86946132173E+02  0.58101400142E+03  0.00000000000E+00 0. -1.
         22    1    1    2    0    0  0.55498722712E+03 -0.13920945910E+04 -0.20820281867E+03  0.15130388581E+04  0.00000000000E+00 0.  1.
<mgrwt>
<rscale>  0 0.30253864E+04</rscale>
<asrwt>0</asrwt>
<pdfrwt beam="1">  1        2 0.23082291E+00 0.30253864E+04</pdfrwt>
<pdfrwt beam="2">  1       -2 0.23463678E+00 0.30253864E+04</pdfrwt>
<totfact> 0.86693987E-01</totfact>
</mgrwt>
</event>
<event>
 6    1  0.5040916E-004  0.1171701E+04  0.7818608E-02  0.9137994E-01
         -2   -1    0    0    0  501 -0.00000000000E+00  0.00000000000E+00  0.81885770709E+03  0.81885770709E+03  0.00000000000E+00 0. -1.
          2   -1    0    0  501    0  0.00000000000E+00 -0.00000000000E+00 -0.41914566997E+03  0.41914566997E+03  0.00000000000E+00 0.  1.
         23    2    1    2    0    0 -0.78244428103E+02 -0.27159673387E+03 -0.33663345865E+03  0.44927549906E+03  0.92948438354E+02 0.  0.
         11    1    3    3    0    0 -0.81921456295E+02 -0.11681728826E+03 -0.16470604582E+03  0.21791164578E+03  0.00000000000E+00 0.  1.
        -11    1    3    3    0    0  0.36770281923E+01 -0.15477944561E+03 -0.17192741284E+03  0.23136385328E+03  0.00000000000E+00 0. -1.
         22    1    1    2    0    0  0.78244428103E+02  0.27159673387E+03  0.73634549578E+03  0.78872787800E+03  0.00000000000E+00 0. -1.
<mgrwt>
<rscale>  0 0.11717008E+04</rscale>
<asrwt>0</asrwt>
<pdfrwt beam="1">  1        2 0.64483949E-01 0.11717008E+04</pdfrwt>
<pdfrwt beam="2">  1       -2 0.12597811E+00 0.11717008E+04</pdfrwt>
<totfact> 0.35033745E+01</totfact>
</mgrwt>
</event>
<event>
 6    1  0.5040916E-004  0.2332551E+04  0.7818608E-02  0.8465196E-01
         -2   -1    0    0    0  501 -0.00000000000E+00  0.00000000000E+00  0.10140044059E+04  0.10140044059E+04  0.00000000000E+00 0. -1.
          2   -1    0    0  501    0  0.00000000000E+00 -0.00000000000E+00 -0.13414129869E+04  0.13414129869E+04  0.00000000000E+00 0.  1.
         23    2    1    2    0    0  0.50587169080E+03 -0.87824702365E+03  0.41508133980E+03  0.10990276108E+04  0.91351893792E+02 0.  0.
         11    1    3    3    0    0  0.23674694683E+03 -0.35010655119E+03  0.20879782229E+03  0.47140242321E+03  0.00000000000E+00 0. -1.
        -11    1    3    3    0    0  0.26912474397E+03 -0.52814047247E+03  0.20628351751E+03  0.62762518757E+03  0.00000000000E+00 0.  1.
         22    1    1    2    0    0 -0.50587169080E+03  0.87824702365E+03 -0.74248992080E+03  0.12563897821E+04  0.00000000000E+00 0.  1.
<mgrwt>
<rscale>  0 0.23325511E+04</rscale>
<asrwt>0</asrwt>
<pdfrwt beam="1">  1        2 0.20637123E+00 0.23325511E+04</pdfrwt>
<pdfrwt beam="2">  1       -2 0.15600068E+00 0.23325511E+04</pdfrwt>
<totfact> 0.38159397E+00</totfact>
</mgrwt>
</event>
<event>
 6    1  0.5040916E-004  0.2627120E+04  0.7818608E-02  0.8359047E-01
         -2   -1    0    0    0  501 -0.00000000000E+00  0.00000000000E+00  0.42450088406E+03  0.42450088406E+03  0.00000000000E+00 0. -1.
          2   -1    0    0  501    0  0.00000000000E+00 -0.00000000000E+00 -0.40646326674E+04  0.40646326674E+04  0.00000000000E+00 0.  1.
         23    2    1    2    0    0 -0.67543769582E+02 -0.86525515973E+03 -0.14064968151E+03  0.88363724259E+03  0.88339070263E+02 0.  0.
         13    1    3    3    0    0  0.90083956332E+00 -0.11667286957E+03  0.95749098414E+01  0.11706856497E+03  0.00000000000E+00 0. -1.
        -13    1    3    3    0    0 -0.68444609146E+02 -0.74858229016E+03 -0.15022459135E+03  0.76656867762E+03  0.00000000000E+00 0.  1.
         22    1    1    2    0    0  0.67543769582E+02  0.86525515973E+03 -0.34994821018E+04  0.36054963088E+04  0.00000000000E+00 0.  1.
<mgrwt>
<rscale>  0 0.26271202E+04</rscale>
<asrwt>0</asrwt>
<pdfrwt beam="1">  1        2 0.62532814E+00 0.26271202E+04</pdfrwt>
<pdfrwt beam="2">  1       -2 0.65307824E-01 0.26271202E+04</pdfrwt>
<totfact> 0.57901247E-01</totfact>
</mgrwt>
</event>
<event>
 6    1  0.5040916E-004  0.1402308E+04  0.7818608E-02  0.8952150E-01
          2   -1    0    0  501    0  0.00000000000E+00  0.00000000000E+00  0.20083576528E+04  0.20083576528E+04  0.00000000000E+00 0.  1.
         -2   -1    0    0    0  501 -0.00000000000E+00 -0.00000000000E+00 -0.24478558456E+03  0.24478558456E+03  0.00000000000E+00 0. -1.
         23    2    1    2    0    0  0.66167514855E+03  0.13564391922E+01  0.52719557248E+03  0.85084416747E+03  0.90469793541E+02 0.  0.
         11    1    3    3    0    0  0.31786869318E+03  0.40353409930E+02  0.22598806666E+03  0.39209630203E+03  0.00000000000E+00 0. -1.
        -11    1    3    3    0    0  0.34380645537E+03 -0.38996970737E+02  0.30120750582E+03  0.45874786544E+03  0.00000000000E+00 0.  1.
         22    1    1    2    0    0 -0.66167514855E+03 -0.13564391922E+01  0.12363764958E+04  0.14022990699E+04  0.00000000000E+00 0.  1.
<mgrwt>
<rscale>  0 0.14023081E+04</rscale>
<asrwt>0</asrwt>
<pdfrwt beam="1">  1        2 0.30897809E+00 0.14023081E+04</pdfrwt>
<pdfrwt beam="2">  1       -2 0.37659322E-01 0.14023081E+04</pdfrwt>
<totfact> 0.42817766E+01</totfact>
</mgrwt>
</event>
<event>
 6    1  0.5040916E-004  0.1831507E+04  0.7818608E-02  0.8689721E-01
         -2   -1    0    0    0  501 -0.00000000000E+00  0.00000000000E+00  0.77494069138E+03  0.77494069138E+03  0.00000000000E+00 0. -1.
          2   -1    0    0  501    0  0.00000000000E+00 -0.00000000000E+00 -0.10821534810E+04  0.10821534810E+04  0.00000000000E+00 0.  1.
         23    2    1    2    0    0  0.70728538429E+03  0.56953518830E+03 -0.52780168915E+02  0.91403590059E+03  0.89738151251E+02 0.  0.
         13    1    3    3    0    0  0.37796502272E+03  0.29337954841E+03  0.16264521560E+02  0.47874173882E+03  0.00000000000E+00 0. -1.
        -13    1    3    3    0    0  0.32932036157E+03  0.27615563990E+03 -0.69044690475E+02  0.43529416177E+03  0.00000000000E+00 0.  1.
         22    1    1    2    0    0 -0.70728538429E+03 -0.56953518830E+03 -0.25443262072E+03  0.94305827181E+03  0.00000000000E+00 0.  1.
<mgrwt>
<rscale>  0 0.18315073E+04</rscale>
<asrwt>0</asrwt>
<pdfrwt beam="1">  1        2 0.16648515E+00 0.18315073E+04</pdfrwt>
<pdfrwt beam="2">  1       -2 0.11922165E+00 0.18315073E+04</pdfrwt>
<totfact> 0.11358701E+01</totfact>
</mgrwt>
</event>
<event>
 6    1  0.5040916E-004  0.1406981E+04  0.7818608E-02  0.8948781E-01
         -2   -1    0    0    0  501 -0.00000000000E+00  0.00000000000E+00  0.81251402114E+03  0.81251402114E+03  0.00000000000E+00 0. -1.
          2   -1    0    0  501    0  0.00000000000E+00 -0.00000000000E+00 -0.60909589878E+03  0.60909589878E+03  0.00000000000E+00 0.  1.
         23    2    1    2    0    0 -0.12829101793E+03  0.36939802987E+03  0.68928105908E+03  0.79793028819E+03  0.93117542134E+02 0.  0.
         11    1    3    3    0    0 -0.82388020443E+02  0.10421997624E+03  0.22658596654E+03  0.26266097843E+03  0.00000000000E+00 0. -1.
        -11    1    3    3    0    0 -0.45902997486E+02  0.26517805363E+03  0.46269509254E+03  0.53526930976E+03  0.00000000000E+00 0.  1.
         22    1    1    2    0    0  0.12829101793E+03 -0.36939802987E+03 -0.48586293672E+03  0.62367963173E+03  0.00000000000E+00 0.  1.
<mgrwt>
<rscale>  0 0.14069811E+04</rscale>
<asrwt>0</asrwt>
<pdfrwt beam="1">  1        2 0.93707061E-01 0.14069811E+04</pdfrwt>
<pdfrwt beam="2">  1       -2 0.12500216E+00 0.14069811E+04</pdfrwt>
<totfact> 0.22707334E+01</totfact>
</mgrwt>
</event>
<event>
 6    1  0.5040916E-004  0.3599348E+04  0.7818608E-02  0.8090641E-01
          2   -1    0    0  501    0  0.00000000000E+00  0.00000000000E+00  0.65223051908E+03  0.65223051908E+03  0.00000000000E+00 0.  1.
         -2   -1    0    0    0  501 -0.00000000000E+00 -0.00000000000E+00 -0.49657684534E+04  0.49657684534E+04  0.00000000000E+00 0. -1.
         23    2    1    2    0    0  0.17630394904E+04 -0.34612923916E+03 -0.22813455563E+04  0.29054504372E+04  0.94820889502E+02 0.  0.
         13    1    3    3    0    0  0.90617568254E+03 -0.19682476826E+03 -0.12475083960E+04  0.15544039227E+04  0.00000000000E+00 0. -1.
        -13    1    3    3    0    0  0.85686380784E+03 -0.14930447091E+03 -0.10338371604E+04  0.13510465145E+04  0.00000000000E+00 0.  1.
         22    1    1    2    0    0 -0.17630394904E+04  0.34612923916E+03 -0.20321923780E+04  0.27125485353E+04  0.00000000000E+00 0. -1.
<mgrwt>
<rscale>  0 0.35993476E+04</rscale>
<asrwt>0</asrwt>
<pdfrwt beam="1">  1        2 0.10034316E+00 0.35993476E+04</pdfrwt>
<pdfrwt beam="2">  1       -2 0.76396433E+00 0.35993476E+04</pdfrwt>
<totfact> 0.44941610E-03</totfact>
</mgrwt>
</event>
<event>
 6    1  0.5040916E-004  0.2305061E+04  0.7818608E-02  0.8475928E-01
         -2   -1    0    0    0  501 -0.00000000000E+00  0.00000000000E+00  0.45917203427E+03  0.45917203427E+03  0.00000000000E+00 0. -1.
          2   -1    0    0  501    0  0.00000000000E+00 -0.00000000000E+00 -0.28928726566E+04  0.28928726566E+04  0.00000000000E+00 0.  1.
         23    2    1    2    0    0  0.29541774736E+03  0.63789048426E+03 -0.25435212801E+04  0.26405417097E+04  0.93723543300E+02 0.  0.
         13    1    3    3    0    0  0.14136255027E+03  0.25317645778E+03 -0.12013309577E+04  0.12358307972E+04  0.00000000000E+00 0.  1.
        -13    1    3    3    0    0  0.15405519709E+03  0.38471402648E+03 -0.13421903225E+04  0.14047109125E+04  0.00000000000E+00 0. -1.
         22    1    1    2    0    0 -0.29541774736E+03 -0.63789048426E+03  0.10982065783E+03  0.71150298120E+03  0.00000000000E+00 0. -1.
<mgrwt>
<rscale>  0 0.23050607E+04</rscale>
<asrwt>0</asrwt>
<pdfrwt beam="1">  1        2 0.44505733E+00 0.23050607E+04</pdfrwt>
<pdfrwt beam="2">  1       -2 0.70641852E-01 0.23050607E+04</pdfrwt>
<totfact> 0.33530635E+00</totfact>
</mgrwt>
</event>
<event>
 6    1  0.5040916E-004  0.3269150E+04  0.7818608E-02  0.8170790E-01
          2   -1    0    0  501    0  0.00000000000E+00  0.00000000000E+00  0.13349151629E+04  0.13349151629E+04  0.00000000000E+00 0.  1.
         -2   -1    0    0    0  501 -0.00000000000E+00 -0.00000000000E+00 -0.20015024061E+04  0.20015024061E+04  0.00000000000E+00 0. -1.
         23    2    1    2    0    0 -0.12423682893E+04  0.51641764513E+03 -0.12786187568E+04  0.18583280169E+04  0.91383493362E+02 0.  0.
         11    1    3    3    0    0 -0.48575180501E+03  0.25034187167E+03 -0.52304482869E+03  0.75644019036E+03  0.00000000000E+00 0.  1.
        -11    1    3    3    0    0 -0.75661648430E+03  0.26607577346E+03 -0.75557392807E+03  0.11018878266E+04  0.00000000000E+00 0. -1.
         22    1    1    2    0    0  0.12423682893E+04 -0.51641764513E+03  0.61203151353E+03  0.14780895521E+04  0.00000000000E+00 0.  1.
<mgrwt>
<rscale>  0 0.32691503E+04</rscale>
<asrwt>0</asrwt>
<pdfrwt beam="1">  1        2 0.20537156E+00 0.32691503E+04</pdfrwt>
<pdfrwt beam="2">  1       -2 0.30792345E+00 0.32691503E+04</pdfrwt>
<totfact> 0.37533038E-01</totfact>
</mgrwt>
</event>
<event>
 6    1  0.5040916E-004  0.1758012E+04  0.7818608E-02  0.8728952E-01
          2   -1    0    0  501    0  0.00000000000E+00  0.00000000000E+00  0.11555183682E+04  0.11555183682E+04  0.00000000000E+00 0.  1.
         -2   -1    0    0    0  501 -0.00000000000E+00 -0.00000000000E+00 -0.66866243628E+03  0.66866243628E+03  0.00000000000E+00 0. -1.
         23    2    1    2    0    0 -0.60328491846E+03  0.26758110603E+03  0.84284559180E+03  0.10743268326E+04  0.90758528919E+02 0.  0.
         11    1    3    3    0    0 -0.38281343849E+03  0.17814336599E+03  0.46772685678E+03  0.63011871905E+03  0.00000000000E+00 0. -1.
        -11    1    3    3    0    0 -0.22047147996E+03  0.89437740045E+02  0.37511873502E+03  0.44420811359E+03  0.00000000000E+00 0.  1.
         22    1    1    2    0    0  0.60328491846E+03 -0.26758110603E+03 -0.35598965987E+03  0.74985397184E+03  0.00000000000E+00 0. -1.
<mgrwt>
<rscale>  0 0.17580122E+04</rscale>
<asrwt>0</asrwt>
<pdfrwt beam="1">  1        2 0.17777206E+00 0.17580122E+04</pdfrwt>
<pdfrwt beam="2">  1       -2 0.10287114E+00 0.17580122E+04</pdfrwt>
<totfact> 0.14736403E+01</totfact>
</mgrwt>
</event>
<event>
 6    1  0.5040916E-004  0.1220097E+04  0.7818608E-02  0.9095445E-01
         -3   -1    0    0    0  501 -0.00000000000E+00  0.00000000000E+00  0.16763175174E+04  0.16763175174E+04  0.00000000000E+00 0. -1.
          3   -1    0    0  501    0  0.00000000000E+00 -0.00000000000E+00 -0.22201008468E+03  0.22201008468E+03  0.00000000000E+00 0.  1.
         23    2    1    2    0    0  0.30483436703E+03  0.28629546893E+03  0.47716024878E+02  0.43088476658E+03  0.92172534869E+02 0.  0.
         11    1    3    3    0    0  0.22712327644E+03  0.20553947031E+03  0.75357842874E+02  0.31545247033E+03  0.00000000000E+00 0. -1.
        -11    1    3    3    0    0  0.77711090593E+02  0.80755998627E+02 -0.27641817996E+02  0.11543229625E+03  0.00000000000E+00 0.  1.
         22    1    1    2    0    0 -0.30483436703E+03 -0.28629546893E+03  0.14065914078E+04  0.14674428355E+04  0.00000000000E+00 0. -1.
<mgrwt>
<rscale>  0 0.12200974E+04</rscale>
<asrwt>0</asrwt>
<pdfrwt beam="1">  1        3 0.34155399E-01 0.12200974E+04</pdfrwt>
<pdfrwt beam="2">  1       -3 0.25789499E+00 0.12200974E+04</pdfrwt>
<totfact> 0.14461202E+00</totfact>
</mgrwt>
</event>
<event>
 6    1  0.5040916E-004  0.2140750E+04  0.7818608E-02  0.8543502E-01
         -1   -1    0    0    0  501 -0.00000000000E+00  0.00000000000E+00  0.68627935931E+03  0.68627935931E+03  0.00000000000E+00 0. -1.
          1   -1    0    0  501    0  0.00000000000E+00 -0.00000000000E+00 -0.16694400974E+04  0.16694400974E+04  0.00000000000E+00 0.  1.
         23    2    1    2    0    0 -0.87558801896E+03 -0.71777724870E+02 -0.11623273857E+04  0.14591107860E+04  0.78695065619E+02 0.  0.
         13    1    3    3    0    0 -0.50889197488E+03 -0.34564496666E+01 -0.65819305708E+03  0.83198623157E+03  0.00000000000E+00 0.  1.
        -13    1    3    3    0    0 -0.36669604408E+03 -0.68321275203E+02 -0.50413432865E+03  0.62712455439E+03  0.00000000000E+00 0. -1.
         22    1    1    2    0    0  0.87558801896E+03  0.71777724870E+02  0.17916664769E+03  0.89660867070E+03  0.00000000000E+00 0. -1.
<mgrwt>
<rscale>  0 0.21407497E+04</rscale>
<asrwt>0</asrwt>
<pdfrwt beam="1">  1        1 0.25683694E+00 0.21407497E+04</pdfrwt>
<pdfrwt beam="2">  1       -1 0.10558144E+00 0.21407497E+04</pdfrwt>
<totfact> 0.38513571E+00</totfact>
</mgrwt>
</event>
<event>
 6    1  0.5040916E-004  0.2186249E+04  0.7818608E-02  0.8524174E-01
         -2   -1    0    0    0  501 -0.00000000000E+00  0.00000000000E+00  0.67859751379E+03  0.67859751379E+03  0.00000000000E+00 0. -1.
          2   -1    0    0  501    0  0.00000000000E+00 -0.00000000000E+00 -0.17608683392E+04  0.17608683392E+04  0.00000000000E+00 0.  1.
         23    2    1    2    0    0  0.35390130620E+03 -0.94642329289E+03 -0.10019363519E+04  0.14258501410E+04  0.90603462780E+02 0.  0.
         11    1    3    3    0    0  0.28264419853E+03 -0.63685141702E+03 -0.68100883053E+03  0.97428974006E+03  0.00000000000E+00 0.  1.
        -11    1    3    3    0    0  0.71257107672E+02 -0.30957187587E+03 -0.32092752140E+03  0.45156040096E+03  0.00000000000E+00 0. -1.
         22    1    1    2    0    0 -0.35390130620E+03  0.94642329289E+03 -0.80334473438E+02  0.10136157119E+04  0.00000000000E+00 0. -1.
<mgrwt>
<rscale>  0 0.21862487E+04</rscale>
<asrwt>0</asrwt>
<pdfrwt beam="1">  1        2 0.27090282E+00 0.21862487E+04</pdfrwt>
<pdfrwt beam="2">  1       -2 0.10439962E+00 0.21862487E+04</pdfrwt>
<totfact> 0.61868809E+00</totfact>
</mgrwt>
</event>
<event>
 6    1  0.5040916E-004  0.2526452E+04  0.7818608E-02  0.8393622E-01
          2   -1    0    0  501    0  0.00000000000E+00  0.00000000000E+00  0.10553330353E+04  0.10553330353E+04  0.00000000000E+00 0.  1.
         -2   -1    0    0    0  501 -0.00000000000E+00 -0.00000000000E+00 -0.15120724149E+04  0.15120724149E+04  0.00000000000E+00 0. -1.
         23    2    1    2    0    0 -0.34570470504E+03 -0.25958751199E+01 -0.14615664441E+04  0.15047691478E+04  0.92925970487E+02 0.  0.
         11    1    3    3    0    0 -0.14783276882E+03 -0.45950038306E+02 -0.67699109788E+03  0.69446589561E+03  0.00000000000E+00 0.  1.
        -11    1    3    3    0    0 -0.19787193622E+03  0.43354163187E+02 -0.78457534617E+03  0.81030325214E+03  0.00000000000E+00 0. -1.
         22    1    1    2    0    0  0.34570470504E+03  0.25958751199E+01  0.10048270645E+04  0.10626363024E+04  0.00000000000E+00 0.  1.
<mgrwt>
<rscale>  0 0.25264520E+04</rscale>
<asrwt>0</asrwt>
<pdfrwt beam="1">  1        2 0.16235893E+00 0.25264520E+04</pdfrwt>
<pdfrwt beam="2">  1       -2 0.23262652E+00 0.25264520E+04</pdfrwt>
<totfact> 0.17015980E+00</totfact>
</mgrwt>
</event>
<event>
 6    1  0.5040916E-004  0.4336169E+04  0.7818608E-02  0.7939964E-01
          2   -1    0    0  501    0  0.00000000000E+00  0.00000000000E+00  0.27975215708E+04  0.27975215708E+04  0.00000000000E+00 0.  1.
         -2   -1    0    0    0  501 -0.00000000000E+00 -0.00000000000E+00 -0.16802694023E+04  0.16802694023E+04  0.00000000000E+00 0. -1.
         23    2    1    2    0    0  0.11904068704E+04  0.10716557217E+04 -0.94862629776E+03  0.18637197537E+04  0.89693726362E+02 0.  0.
         11    1    3    3    0    0  0.11871881258E+03  0.13045902119E+03 -0.13060402970E+03  0.21947921370E+03  0.00000000000E+00 0. -1.
        -11    1    3    3    0    0  0.10716880578E+04  0.94119670052E+03 -0.81802226806E+03  0.16442405400E+04  0.00000000000E+00 0.  1.
         22    1    1    2    0    0 -0.11904068704E+04 -0.10716557217E+04  0.20658784663E+04  0.26140712195E+04  0.00000000000E+00 0.  1.
<mgrwt>
<rscale>  0 0.43361688E+04</rscale>
<asrwt>0</asrwt>
<pdfrwt beam="1">  1        2 0.43038793E+00 0.43361688E+04</pdfrwt>
<pdfrwt beam="2">  1       -2 0.25850299E+00 0.43361688E+04</pdfrwt>
<totfact> 0.10149668E-01</totfact>
</mgrwt>
</event>
<event>
 6    1  0.5040916E-004  0.2195229E+04  0.7818608E-02  0.8520416E-01
          1   -1    0    0  501    0  0.00000000000E+00  0.00000000000E+00  0.11424331785E+04  0.11424331785E+04  0.00000000000E+00 0.  1.
         -1   -1    0    0    0  501 -0.00000000000E+00 -0.00000000000E+00 -0.10545545412E+04  0.10545545412E+04  0.00000000000E+00 0. -1.
         23    2    1    2    0    0 -0.64385182491E+03 -0.18674257903E+03  0.91115885300E+03  0.11352870666E+04  0.96168107472E+02 0.  0.
         11    1    3    3    0    0 -0.30072456534E+03 -0.13051266959E+03  0.40182078222E+03  0.51858341869E+03  0.00000000000E+00 0. -1.
        -11    1    3    3    0    0 -0.34312725958E+03 -0.56229909443E+02  0.50933807078E+03  0.61670364789E+03  0.00000000000E+00 0.  1.
         22    1    1    2    0    0  0.64385182491E+03  0.18674257903E+03 -0.82328021568E+03  0.10617006531E+04  0.00000000000E+00 0. -1.
<mgrwt>
<rscale>  0 0.21952295E+04</rscale>
<asrwt>0</asrwt>
<pdfrwt beam="1">  1        1 0.17575895E+00 0.21952295E+04</pdfrwt>
<pdfrwt beam="2">  1       -1 0.16223916E+00 0.21952295E+04</pdfrwt>
<totfact> 0.30212170E+00</totfact>
</mgrwt>
</event>
<event>
 6    1  0.5040916E-004  0.5895788E+03  0.7818608E-02  0.9927266E-01
          2   -1    0    0  501    0  0.00000000000E+00  0.00000000000E+00  0.15369668572E+04  0.15369668572E+04  0.00000000000E+00 0.  1.
         -2   -1    0    0    0  501 -0.00000000000E+00 -0.00000000000E+00 -0.56540440065E+02  0.56540440065E+02  0.00000000000E+00 0. -1.
         23    2    1    2    0    0  0.12772604956E+03  0.69437579890E+02  0.14282124597E+04  0.14390345858E+04  0.99469532708E+02 0.  0.
         13    1    3    3    0    0  0.61520163066E+02  0.65768563359E+02  0.11278746625E+04  0.11314643117E+04  0.00000000000E+00 0.  1.
        -13    1    3    3    0    0  0.66205886489E+02  0.36690165313E+01  0.30033779717E+03  0.30757027408E+03  0.00000000000E+00 0. -1.
         22    1    1    2    0    0 -0.12772604956E+03 -0.69437579890E+02  0.52213957480E+02  0.15447271148E+03  0.00000000000E+00 0. -1.
<mgrwt>
<rscale>  0 0.58957877E+03</rscale>
<asrwt>0</asrwt>
<pdfrwt beam="1">  1        2 0.23645641E+00 0.58957877E+03</pdfrwt>
<pdfrwt beam="2">  1       -2 0.86985304E-02 0.58957877E+03</pdfrwt>
<totfact> 0.10615065E+03</totfact>
</mgrwt>
</event>
<event>
 6    1  0.5040916E-004  0.1065351E+04  0.7818608E-02  0.9239637E-01
          2   -1    0    0  501    0  0.00000000000E+00  0.00000000000E+00  0.22469602669E+04  0.22469602669E+04  0.00000000000E+00 0.  1.
         -2   -1    0    0    0  501 -0.00000000000E+00 -0.00000000000E+00 -0.12627875489E+03  0.12627875489E+03  0.00000000000E+00 0. -1.
         23    2    1    2    0    0  0.36538779364E+03 -0.22938889679E+03  0.17492553214E+04  0.18039544525E+04  0.90719247089E+02 0.  0.
         13    1    3    3    0    0  0.94457580979E+02 -0.19268286405E+02  0.32386960684E+03  0.33791274569E+03  0.00000000000E+00 0.  1.
        -13    1    3    3    0    0  0.27093021266E+03 -0.21012061039E+03  0.14253857145E+04  0.14660417069E+04  0.00000000000E+00 0. -1.
         22    1    1    2    0    0 -0.36538779364E+03  0.22938889679E+03  0.37142619067E+03  0.56928456929E+03  0.00000000000E+00 0. -1.
<mgrwt>
<rscale>  0 0.10653513E+04</rscale>
<asrwt>0</asrwt>
<pdfrwt beam="1">  1        2 0.34568616E+00 0.10653513E+04</pdfrwt>
<pdfrwt beam="2">  1       -2 0.19427502E-01 0.10653513E+04</pdfrwt>
<totfact> 0.10933918E+02</totfact>
</mgrwt>
</event>
<event>
 6    1  0.5040916E-004  0.2691235E+04  0.7818608E-02  0.8337855E-01
         -2   -1    0    0    0  501 -0.00000000000E+00  0.00000000000E+00  0.32345633780E+04  0.32345633780E+04  0.00000000000E+00 0. -1.
          2   -1    0    0  501    0  0.00000000000E+00 -0.00000000000E+00 -0.55979301296E+03  0.55979301296E+03  0.00000000000E+00 0.  1.
         23    2    1    2    0    0  0.94910033049E+03 -0.62021073998E+03  0.23564563666E+04  0.26167415978E+04  0.94853481345E+02 0.  0.
         11    1    3    3    0    0  0.30520433996E+03 -0.17281224238E+03  0.81746122326E+03  0.88952606020E+03  0.00000000000E+00 0. -1.
        -11    1    3    3    0    0  0.64389599052E+03 -0.44739849761E+03  0.15389951433E+04  0.17272155376E+04  0.00000000000E+00 0.  1.
         22    1    1    2    0    0 -0.94910033049E+03  0.62021073998E+03  0.31831399844E+03  0.11776147931E+04  0.00000000000E+00 0.  1.
<mgrwt>
<rscale>  0 0.26912346E+04</rscale>
<asrwt>0</asrwt>
<pdfrwt beam="1">  1        2 0.86122004E-01 0.26912346E+04</pdfrwt>
<pdfrwt beam="2">  1       -2 0.49762512E+00 0.26912346E+04</pdfrwt>
<totfact> 0.80464967E-02</totfact>
</mgrwt>
</event>
<event>
 6    1  0.5040916E-004  0.8605611E+03  0.7818608E-02  0.9476271E-01
          2   -1    0    0  501    0  0.00000000000E+00  0.00000000000E+00  0.65938274108E+03  0.65938274108E+03  0.00000000000E+00 0.  1.
         -2   -1    0    0    0  501 -0.00000000000E+00 -0.00000000000E+00 -0.28077980622E+03  0.28077980622E+03  0.00000000000E+00 0. -1.
         23    2    1    2    0    0  0.42257748727E+03  0.31937776065E+02  0.15193059107E+03  0.45956697331E+03  0.92342537164E+02 0.  0.
         11    1    3    3    0    0  0.19008368703E+03 -0.31633791903E+02  0.67789501537E+02  0.20427413293E+03  0.00000000000E+00 0.  1.
        -11    1    3    3    0    0  0.23249380024E+03  0.63571567967E+02  0.84141089529E+02  0.25529284039E+03  0.00000000000E+00 0. -1.
         22    1    1    2    0    0 -0.42257748727E+03 -0.31937776065E+02  0.22667234380E+03  0.48059557398E+03  0.00000000000E+00 0. -1.
<mgrwt>
<rscale>  0 0.86056112E+03</rscale>
<asrwt>0</asrwt>
<pdfrwt beam="1">  1        2 0.10144350E+00 0.86056112E+03</pdfrwt>
<pdfrwt beam="2">  1       -2 0.43196893E-01 0.86056112E+03</pdfrwt>
<totfact> 0.22539994E+02</totfact>
</mgrwt>
</event>
<event>
 6    1  0.5040916E-004  0.1897803E+04  0.7818608E-02  0.8655951E-01
          2   -1    0    0  501    0  0.00000000000E+00  0.00000000000E+00  0.22166835474E+04  0.22166835474E+04  0.00000000000E+00 0.  1.
         -2   -1    0    0    0  501 -0.00000000000E+00 -0.00000000000E+00 -0.40619882510E+03  0.40619882510E+03  0.00000000000E+00 0. -1.
         23    2    1    2    0    0 -0.13010780564E+02  0.32814808886E+03  0.21346537847E+04  0.21614324514E+04  0.84811630521E+02 0.  0.
         11    1    3    3    0    0 -0.23635766902E+02  0.20445630235E+03  0.10745002511E+04  0.10940346515E+04  0.00000000000E+00 0. -1.
        -11    1    3    3    0    0  0.10624986338E+02  0.12369178651E+03  0.10601535336E+04  0.10673977999E+04  0.00000000000E+00 0.  1.
         22    1    1    2    0    0  0.13010780564E+02 -0.32814808886E+03 -0.32416906243E+03  0.46144992109E+03  0.00000000000E+00 0. -1.
<mgrwt>
<rscale>  0 0.18978032E+04</rscale>
<asrwt>0</asrwt>
<pdfrwt beam="1">  1        2 0.34102823E+00 0.18978032E+04</pdfrwt>
<pdfrwt beam="2">  1       -2 0.62492128E-01 0.18978032E+04</pdfrwt>
<totfact> 0.11245337E+01</totfact>
</mgrwt>
</event>
<event>
 6    1  0.5040916E-004  0.3893004E+04  0.7818608E-02  0.8026486E-01
         -2   -1    0    0    0  501 -0.00000000000E+00  0.00000000000E+00  0.13544459088E+04  0.13544459088E+04  0.00000000000E+00 0. -1.
          2   -1    0    0  501    0  0.00000000000E+00 -0.00000000000E+00 -0.27973574300E+04  0.27973574300E+04  0.00000000000E+00 0.  1.
         23    2    1    2    0    0 -0.76151120831E+03 -0.24875352298E+03 -0.26125505441E+04  0.27341175204E+04  0.90557352149E+02 0.  0.
         11    1    3    3    0    0 -0.25702375636E+03 -0.65377709641E+02 -0.73699438755E+03  0.78325997186E+03  0.00000000000E+00 0.  1.
        -11    1    3    3    0    0 -0.50448745196E+03 -0.18337581333E+03 -0.18755561566E+04  0.19508575485E+04  0.00000000000E+00 0. -1.
         22    1    1    2    0    0  0.76151120831E+03  0.24875352298E+03  0.11696390230E+04  0.14176858184E+04  0.00000000000E+00 0. -1.
<mgrwt>
<rscale>  0 0.38930036E+04</rscale>
<asrwt>0</asrwt>
<pdfrwt beam="1">  1        2 0.43036268E+00 0.38930036E+04</pdfrwt>
<pdfrwt beam="2">  1       -2 0.20837629E+00 0.38930036E+04</pdfrwt>
<totfact> 0.21657369E-01</totfact>
</mgrwt>
</event>
<event>
 6    1  0.5040916E-004  0.5246895E+04  0.7818608E-02  0.7791510E-01
         -2   -1    0    0    0  501 -0.00000000000E+00  0.00000000000E+00  0.28733385177E+04  0.28733385177E+04  0.00000000000E+00 0. -1.
          2   -1    0    0  501    0  0.00000000000E+00 -0.00000000000E+00 -0.23952890563E+04  0.23952890563E+04  0.00000000000E+00 0.  1.
         23    2    1    2    0    0  0.42973660340E+03  0.21025683459E+04  0.17529563830E+04  0.27724595395E+04  0.90601433993E+02 0.  0.
         11    1    3    3    0    0  0.28689847146E+03  0.12230887538E+04  0.10592606729E+04  0.16432559161E+04  0.00000000000E+00 0.  1.
        -11    1    3    3    0    0  0.14283813194E+03  0.87947959214E+03  0.69369571003E+03  0.11292036234E+04  0.00000000000E+00 0. -1.
         22    1    1    2    0    0 -0.42973660340E+03 -0.21025683459E+04 -0.12749069216E+04  0.24961680345E+04  0.00000000000E+00 0.  1.
<mgrwt>
<rscale>  0 0.52468948E+04</rscale>
<asrwt>0</asrwt>
<pdfrwt beam="1">  1        2 0.36850601E+00 0.52468948E+04</pdfrwt>
<pdfrwt beam="2">  1       -2 0.44205208E+00 0.52468948E+04</pdfrwt>
<totfact> 0.11220590E-02</totfact>
</mgrwt>
</event>
<event>
 6    1  0.5040916E-004  0.3142750E+04  0.7818608E-02  0.8204103E-01
          2   -1    0    0  501    0  0.00000000000E+00  0.00000000000E+00  0.32220949859E+04  0.32220949859E+04  0.00000000000E+00 0.  1.
         -2   -1    0    0    0  501 -0.00000000000E+00 -0.00000000000E+00 -0.76633974473E+03  0.76633974473E+03  0.00000000000E+00 0. -1.
         23    2    1    2    0    0 -0.14931805022E+04 -0.39815044057E+02  0.61519707005E+03  0.16180280923E+04  0.91510779076E+02 0.  0.
         11    1    3    3    0    0 -0.82544114606E+03  0.58759779755E+01  0.37854685789E+03  0.90812187307E+03  0.00000000000E+00 0. -1.
        -11    1    3    3    0    0 -0.66773935610E+03 -0.45691022033E+02  0.23665021216E+03  0.70990621923E+03  0.00000000000E+00 0.  1.
         22    1    1    2    0    0  0.14931805022E+04  0.39815044057E+02  0.18405581711E+04  0.23704066383E+04  0.00000000000E+00 0. -1.
<mgrwt>
<rscale>  0 0.31427500E+04</rscale>
<asrwt>0</asrwt>
<pdfrwt beam="1">  1        2 0.49570691E+00 0.31427500E+04</pdfrwt>
<pdfrwt beam="2">  1       -2 0.11789842E+00 0.31427500E+04</pdfrwt>
<totfact> 0.58816898E-01</totfact>
</mgrwt>
</event>
<event>
 6    1  0.5040916E-004  0.1492015E+04  0.7818608E-02  0.8889780E-01
          1   -1    0    0  501    0  0.00000000000E+00  0.00000000000E+00  0.37669567072E+03  0.37669567072E+03  0.00000000000E+00 0.  1.
         -1   -1    0    0    0  501 -0.00000000000E+00 -0.00000000000E+00 -0.14773915107E+04  0.14773915107E+04  0.00000000000E+00 0. -1.
         23    2    1    2    0    0 -0.49468077604E+03  0.15385773434E+03 -0.12145984145E+04  0.13236580447E+04  0.91869679615E+02 0.  0.
         13    1    3    3    0    0 -0.36477070543E+03  0.74605918767E+02 -0.81318466885E+03  0.89436738330E+03  0.00000000000E+00 0. -1.
        -13    1    3    3    0    0 -0.12991007061E+03  0.79251815568E+02 -0.40141374568E+03  0.42929066137E+03  0.00000000000E+00 0.  1.
         22    1    1    2    0    0  0.49468077604E+03 -0.15385773434E+03  0.11390257458E+03  0.53042913673E+03  0.00000000000E+00 0.  1.
<mgrwt>
<rscale>  0 0.14920147E+04</rscale>
<asrwt>0</asrwt>
<pdfrwt beam="1">  1        1 0.57953178E-01 0.14920147E+04</pdfrwt>
<pdfrwt beam="2">  1       -1 0.22729101E+00 0.14920147E+04</pdfrwt>
<totfact> 0.61896333E+00</totfact>
</mgrwt>
</event>
<event>
 6    1  0.5040916E-004  0.2751785E+04  0.7818608E-02  0.8318396E-01
         -2   -1    0    0    0  501 -0.00000000000E+00  0.00000000000E+00  0.22019944324E+04  0.22019944324E+04  0.00000000000E+00 0. -1.
          2   -1    0    0  501    0  0.00000000000E+00 -0.00000000000E+00 -0.85971137980E+03  0.85971137980E+03  0.00000000000E+00 0.  1.
         23    2    1    2    0    0 -0.27644828616E+03 -0.66872915553E+03  0.19720535082E+04  0.21024179695E+04  0.86855863495E+02 0.  0.
         13    1    3    3    0    0 -0.17837918284E+03 -0.52757593455E+03  0.15006231636E+04  0.16006328057E+04  0.00000000000E+00 0. -1.
        -13    1    3    3    0    0 -0.98069103321E+02 -0.14115322098E+03  0.47143034464E+03  0.50178516386E+03  0.00000000000E+00 0.  1.
         22    1    1    2    0    0  0.27644828616E+03  0.66872915553E+03 -0.62977045559E+03  0.95928784268E+03  0.00000000000E+00 0.  1.
<mgrwt>
<rscale>  0 0.27517846E+04</rscale>
<asrwt>0</asrwt>
<pdfrwt beam="1">  1        2 0.13226329E+00 0.27517846E+04</pdfrwt>
<pdfrwt beam="2">  1       -2 0.33876837E+00 0.27517846E+04</pdfrwt>
<totfact> 0.49965369E-01</totfact>
</mgrwt>
</event>
<event>
 6    1  0.5040916E-004  0.3540799E+04  0.7818608E-02  0.8104189E-01
         -2   -1    0    0    0  501 -0.00000000000E+00  0.00000000000E+00  0.11203809638E+04  0.11203809638E+04  0.00000000000E+00 0. -1.
          2   -1    0    0  501    0  0.00000000000E+00 -0.00000000000E+00 -0.27975431691E+04  0.27975431691E+04  0.00000000000E+00 0.  1.
         23    2    1    2    0    0  0.73348609914E+03  0.14212136598E+04 -0.16761816204E+04  0.23185958095E+04  0.91932466836E+02 0.  0.
         11    1    3    3    0    0  0.51992485469E+03  0.91621680310E+03 -0.11202294943E+04  0.15377545984E+04  0.00000000000E+00 0. -1.
        -11    1    3    3    0    0  0.21356124445E+03  0.50499685674E+03 -0.55595212611E+03  0.78084121111E+03  0.00000000000E+00 0.  1.
         22    1    1    2    0    0 -0.73348609914E+03 -0.14212136598E+04 -0.98058489033E+00  0.15993283234E+04  0.00000000000E+00 0. -1.
<mgrwt>
<rscale>  0 0.35407988E+04</rscale>
<asrwt>0</asrwt>
<pdfrwt beam="1">  1        2 0.43039126E+00 0.35407988E+04</pdfrwt>
<pdfrwt beam="2">  1       -2 0.17236630E+00 0.35407988E+04</pdfrwt>
<totfact> 0.38951197E-01</totfact>
</mgrwt>
</event>
<event>
 6    1  0.6611722E-004  0.3766705E+04  0.7818608E-02  0.8053338E-01
         -2   -1    0    0    0  501 -0.00000000000E+00  0.00000000000E+00  0.17256336992E+04  0.17256336992E+04  0.00000000000E+00 0. -1.
          2   -1    0    0  501    0  0.00000000000E+00 -0.00000000000E+00 -0.20554859206E+04  0.20554859206E+04  0.00000000000E+00 0.  1.
         23    2    1    2    0    0  0.10887115397E+04  0.10368806156E+04  0.97168827173E+03  0.17925467942E+04  0.92906857829E+02 0.  0.
         11    1    3    3    0    0  0.44434207740E+03  0.39516453138E+03  0.43284202226E+03  0.73549106374E+03  0.00000000000E+00 0.  1.
        -11    1    3    3    0    0  0.64436946234E+03  0.64171608419E+03  0.53884624947E+03  0.10570557304E+04  0.00000000000E+00 0. -1.
         22    1    1    2    0    0 -0.10887115397E+04 -0.10368806156E+04 -0.13015404931E+04  0.19885728256E+04  0.00000000000E+00 0.  1.
<mgrwt>
<rscale>  0 0.37667045E+04</rscale>
<asrwt>0</asrwt>
<pdfrwt beam="1">  1        2 0.31622860E+00 0.37667045E+04</pdfrwt>
<pdfrwt beam="2">  1       -2 0.26548211E+00 0.37667045E+04</pdfrwt>
<totfact> 0.25839336E-01</totfact>
</mgrwt>
</event>
<event>
 6    1  0.5040916E-004  0.4707663E+04  0.7818608E-02  0.7875257E-01
         -2   -1    0    0    0  501 -0.00000000000E+00  0.00000000000E+00  0.21431359756E+04  0.21431359756E+04  0.00000000000E+00 0. -1.
          2   -1    0    0  501    0  0.00000000000E+00 -0.00000000000E+00 -0.25852407602E+04  0.25852407602E+04  0.00000000000E+00 0.  1.
         23    2    1    2    0    0  0.51359898377E+03  0.14826355888E+03  0.20803486531E+04  0.21499009565E+04  0.91965239623E+02 0.  0.
         13    1    3    3    0    0  0.34124398590E+03  0.52606719774E+02  0.13348148756E+04  0.13787478656E+04  0.00000000000E+00 0.  1.
        -13    1    3    3    0    0  0.17235499787E+03  0.95656839102E+02  0.74553377752E+03  0.77115309088E+03  0.00000000000E+00 0. -1.
         22    1    1    2    0    0 -0.51359898377E+03 -0.14826355888E+03 -0.25224534377E+04  0.25784757793E+04  0.00000000000E+00 0.  1.
<mgrwt>
<rscale>  0 0.47076629E+04</rscale>
<asrwt>0</asrwt>
<pdfrwt beam="1">  1        2 0.39772935E+00 0.47076629E+04</pdfrwt>
<pdfrwt beam="2">  1       -2 0.32971323E+00 0.47076629E+04</pdfrwt>
<totfact> 0.48216574E-02</totfact>
</mgrwt>
</event>
<event>
 6    1  0.5040916E-004  0.1896385E+04  0.7818608E-02  0.8656658E-01
          2   -1    0    0  501    0  0.00000000000E+00  0.00000000000E+00  0.18190013374E+04  0.18190013374E+04  0.00000000000E+00 0.  1.
         -2   -1    0    0    0  501 -0.00000000000E+00 -0.00000000000E+00 -0.49426517464E+03  0.49426517464E+03  0.00000000000E+00 0. -1.
         23    2    1    2    0    0  0.51637613897E+02 -0.85780618500E+03  0.11461787297E+04  0.14355532040E+04  0.92679160857E+02 0.  0.
         11    1    3    3    0    0  0.10853068937E+02 -0.36294515943E+03  0.55892347072E+03  0.66651513410E+03  0.00000000000E+00 0. -1.
        -11    1    3    3    0    0  0.40784544960E+02 -0.49486102557E+03  0.58725525900E+03  0.76903806990E+03  0.00000000000E+00 0.  1.
         22    1    1    2    0    0 -0.51637613897E+02  0.85780618500E+03  0.17855743303E+03  0.87771330803E+03  0.00000000000E+00 0.  1.
<mgrwt>
<rscale>  0 0.18963850E+04</rscale>
<asrwt>0</asrwt>
<pdfrwt beam="1">  1        2 0.27984636E+00 0.18963850E+04</pdfrwt>
<pdfrwt beam="2">  1       -2 0.76040797E-01 0.18963850E+04</pdfrwt>
<totfact> 0.12217188E+01</totfact>
</mgrwt>
</event>
<event>
 6    1  0.5040916E-004  0.2775024E+04  0.7818608E-02  0.8311065E-01
          2   -1    0    0  501    0  0.00000000000E+00  0.00000000000E+00  0.19560170010E+04  0.19560170010E+04  0.00000000000E+00 0.  1.
         -2   -1    0    0    0  501 -0.00000000000E+00 -0.00000000000E+00 -0.98423950297E+03  0.98423950297E+03  0.00000000000E+00 0. -1.
         23    2    1    2    0    0  0.55623355642E+03 -0.50213507935E+03 -0.74893371268E+03  0.10634553749E+04  0.92196644871E+02 0.  0.
         11    1    3    3    0    0  0.43239152943E+03 -0.35488487030E+03 -0.59859195121E+03  0.81927896955E+03  0.00000000000E+00 0.  1.
        -11    1    3    3    0    0  0.12384202699E+03 -0.14725020904E+03 -0.15034176146E+03  0.24417640539E+03  0.00000000000E+00 0. -1.
         22    1    1    2    0    0 -0.55623355642E+03  0.50213507935E+03  0.17207112107E+04  0.18768011290E+04  0.00000000000E+00 0.  1.
<mgrwt>
<rscale>  0 0.27750237E+04</rscale>
<asrwt>0</asrwt>
<pdfrwt beam="1">  1        2 0.30092569E+00 0.27750237E+04</pdfrwt>
<pdfrwt beam="2">  1       -2 0.15142146E+00 0.27750237E+04</pdfrwt>
<totfact> 0.18010462E+00</totfact>
</mgrwt>
</event>
<event>
 6    1  0.5040916E-004  0.2680517E+04  0.7818608E-02  0.8341354E-01
          2   -1    0    0  501    0  0.00000000000E+00  0.00000000000E+00  0.20045920330E+04  0.20045920330E+04  0.00000000000E+00 0.  1.
         -2   -1    0    0    0  501 -0.00000000000E+00 -0.00000000000E+00 -0.89608912541E+03  0.89608912541E+03  0.00000000000E+00 0. -1.
         23    2    1    2    0    0  0.27729487867E+03 -0.83847951584E+03 -0.53375910750E+03  0.10360190243E+04  0.92175298268E+02 0.  0.
         11    1    3    3    0    0  0.17963717058E+03 -0.41484589146E+03 -0.24600465214E+03  0.51466971505E+03  0.00000000000E+00 0. -1.
        -11    1    3    3    0    0  0.97657708088E+02 -0.42363362438E+03 -0.28775445536E+03  0.52134930922E+03  0.00000000000E+00 0.  1.
         22    1    1    2    0    0 -0.27729487867E+03  0.83847951584E+03  0.16422620150E+04  0.18646621341E+04  0.00000000000E+00 0.  1.
<mgrwt>
<rscale>  0 0.26805172E+04</rscale>
<asrwt>0</asrwt>
<pdfrwt beam="1">  1        2 0.30839877E+00 0.26805172E+04</pdfrwt>
<pdfrwt beam="2">  1       -2 0.13785987E+00 0.26805172E+04</pdfrwt>
<totfact> 0.21817817E+00</totfact>
</mgrwt>
</event>
<event>
 6    1  0.5040916E-004  0.2145693E+04  0.7818608E-02  0.8541378E-01
          2   -1    0    0  501    0  0.00000000000E+00  0.00000000000E+00  0.19806539436E+04  0.19806539436E+04  0.00000000000E+00 0.  1.
         -2   -1    0    0    0  501 -0.00000000000E+00 -0.00000000000E+00 -0.58112093175E+03  0.58112093175E+03  0.00000000000E+00 0. -1.
         23    2    1    2    0    0 -0.56800580923E+03 -0.36236866314E+03  0.16948618409E+04  0.18261385761E+04  0.91015340756E+02 0.  0.
         11    1    3    3    0    0 -0.52188009567E+03 -0.33690002891E+03  0.16161800854E+04  0.17314440598E+04  0.00000000000E+00 0.  1.
        -11    1    3    3    0    0 -0.46125713565E+02 -0.25468634223E+02  0.78681755451E+02  0.94694516325E+02  0.00000000000E+00 0. -1.
         22    1    1    2    0    0  0.56800580923E+03  0.36236866314E+03 -0.29532882908E+03  0.73563629915E+03  0.00000000000E+00 0. -1.
<mgrwt>
<rscale>  0 0.21456929E+04</rscale>
<asrwt>0</asrwt>
<pdfrwt beam="1">  1        2 0.30471599E+00 0.21456929E+04</pdfrwt>
<pdfrwt beam="2">  1       -2 0.89403221E-01 0.21456929E+04</pdfrwt>
<totfact> 0.67475622E+00</totfact>
</mgrwt>
</event>
<event>
 6    1  0.5040916E-004  0.2317965E+04  0.7818608E-02  0.8470871E-01
         -2   -1    0    0    0  501 -0.00000000000E+00  0.00000000000E+00  0.12604300556E+04  0.12604300556E+04  0.00000000000E+00 0. -1.
          2   -1    0    0  501    0  0.00000000000E+00 -0.00000000000E+00 -0.10657000142E+04  0.10657000142E+04  0.00000000000E+00 0.  1.
         23    2    1    2    0    0  0.34432750994E+03 -0.88922440535E+03  0.75473356466E+03  0.12202885698E+04  0.10099486524E+03 0.  0.
         13    1    3    3    0    0  0.67995545533E+02 -0.29822339297E+03  0.26131751425E+03  0.40230265917E+03  0.00000000000E+00 0. -1.
        -13    1    3    3    0    0  0.27633196440E+03 -0.59100101239E+03  0.49341605041E+03  0.81798591063E+03  0.00000000000E+00 0.  1.
         22    1    1    2    0    0 -0.34432750994E+03  0.88922440535E+03 -0.56000352326E+03  0.11058415001E+04  0.00000000000E+00 0.  1.
<mgrwt>
<rscale>  0 0.23179649E+04</rscale>
<asrwt>0</asrwt>
<pdfrwt beam="1">  1        2 0.16395385E+00 0.23179649E+04</pdfrwt>
<pdfrwt beam="2">  1       -2 0.19391232E+00 0.23179649E+04</pdfrwt>
<totfact> 0.30226195E+00</totfact>
</mgrwt>
</event>
<event>
 6    1  0.5040916E-004  0.2861307E+04  0.7818608E-02  0.8284484E-01
          4   -1    0    0  501    0  0.00000000000E+00  0.00000000000E+00  0.28379531313E+04  0.28379531313E+04  0.00000000000E+00 0.  1.
         -4   -1    0    0    0  501 -0.00000000000E+00 -0.00000000000E+00 -0.72121328822E+03  0.72121328822E+03  0.00000000000E+00 0. -1.
         23    2    1    2    0    0 -0.30226875146E+03  0.13097449835E+04  0.16634832556E+04  0.21406320159E+04  0.91271933236E+02 0.  0.
         13    1    3    3    0    0 -0.21904937608E+03  0.91613013351E+03  0.10987663459E+04  0.14472610454E+04  0.00000000000E+00 0. -1.
        -13    1    3    3    0    0 -0.83219375377E+02  0.39361485004E+03  0.56471690978E+03  0.69337097054E+03  0.00000000000E+00 0.  1.
         22    1    1    2    0    0  0.30226875146E+03 -0.13097449835E+04  0.45325658739E+03  0.14185344035E+04  0.00000000000E+00 0. -1.
<mgrwt>
<rscale>  0 0.28613071E+04</rscale>
<asrwt>0</asrwt>
<pdfrwt beam="1">  1        4 0.43660817E+00 0.28613071E+04</pdfrwt>
<pdfrwt beam="2">  1       -4 0.11095589E+00 0.28613071E+04</pdfrwt>
<totfact> 0.41125061E-03</totfact>
</mgrwt>
</event>
<event>
 6    1  0.5040916E-004  0.1865888E+04  0.7818608E-02  0.8672025E-01
         -2   -1    0    0    0  501 -0.00000000000E+00  0.00000000000E+00  0.32521092026E+03  0.32521092026E+03  0.00000000000E+00 0. -1.
          2   -1    0    0  501    0  0.00000000000E+00 -0.00000000000E+00 -0.26763683688E+04  0.26763683688E+04  0.00000000000E+00 0.  1.
         23    2    1    2    0    0  0.31913331879E+02 -0.83027635517E+03 -0.18529469791E+04  0.20327702477E+04  0.91460843815E+02 0.  0.
         11    1    3    3    0    0  0.63440718734E+01 -0.29584480624E+03 -0.55714866475E+03  0.63085579276E+03  0.00000000000E+00 0. -1.
        -11    1    3    3    0    0  0.25569260006E+02 -0.53443154893E+03 -0.12957983144E+04  0.14019144550E+04  0.00000000000E+00 0.  1.
         22    1    1    2    0    0 -0.31913331879E+02  0.83027635517E+03 -0.49821046943E+03  0.96880904133E+03  0.00000000000E+00 0. -1.
<mgrwt>
<rscale>  0 0.18658877E+04</rscale>
<asrwt>0</asrwt>
<pdfrwt beam="1">  1        2 0.41174897E+00 0.18658877E+04</pdfrwt>
<pdfrwt beam="2">  1       -2 0.50032451E-01 0.18658877E+04</pdfrwt>
<totfact> 0.97506458E+00</totfact>
</mgrwt>
</event>
<event>
 6    1  0.5040916E-004  0.3154807E+04  0.7818608E-02  0.8200856E-01
         -2   -1    0    0    0  501 -0.00000000000E+00  0.00000000000E+00  0.99776890205E+03  0.99776890205E+03  0.00000000000E+00 0. -1.
          2   -1    0    0  501    0  0.00000000000E+00 -0.00000000000E+00 -0.24937650698E+04  0.24937650698E+04  0.00000000000E+00 0.  1.
         23    2    1    2    0    0  0.10413525112E+04 -0.49957808434E+03  0.43822331785E+03  0.12387138873E+04  0.91537442894E+02 0.  0.
         13    1    3    3    0    0  0.65192193155E+03 -0.26816981240E+03  0.24590033590E+03  0.74658169567E+03  0.00000000000E+00 0. -1.
        -13    1    3    3    0    0  0.38943057961E+03 -0.23140827194E+03  0.19232298195E+03  0.49213219163E+03  0.00000000000E+00 0.  1.
         22    1    1    2    0    0 -0.10413525112E+04  0.49957808434E+03 -0.19342194856E+04  0.22528200845E+04  0.00000000000E+00 0.  1.
<mgrwt>
<rscale>  0 0.31548066E+04</rscale>
<asrwt>0</asrwt>
<pdfrwt beam="1">  1        2 0.38365616E+00 0.31548066E+04</pdfrwt>
<pdfrwt beam="2">  1       -2 0.15350291E+00 0.31548066E+04</pdfrwt>
<totfact> 0.83575120E-01</totfact>
</mgrwt>
</event>
<event>
 6    1  0.5040916E-004  0.3276182E+04  0.7818608E-02  0.8168982E-01
          2   -1    0    0  501    0  0.00000000000E+00  0.00000000000E+00  0.22565922028E+04  0.22565922028E+04  0.00000000000E+00 0.  1.
         -2   -1    0    0    0  501 -0.00000000000E+00 -0.00000000000E+00 -0.11891127544E+04  0.11891127544E+04  0.00000000000E+00 0. -1.
         23    2    1    2    0    0  0.67050325416E+03 -0.56734005343E+03 -0.91851707929E+03  0.12741544608E+04  0.91359810541E+02 0.  0.
         11    1    3    3    0    0  0.42967635511E+02 -0.43536194005E+02 -0.34874000654E+02  0.70411744841E+02  0.00000000000E+00 0. -1.
        -11    1    3    3    0    0  0.62753561865E+03 -0.52380385943E+03 -0.88364307864E+03  0.12037427160E+04  0.00000000000E+00 0.  1.
         22    1    1    2    0    0 -0.67050325416E+03  0.56734005343E+03  0.19859965277E+04  0.21715504963E+04  0.00000000000E+00 0.  1.
<mgrwt>
<rscale>  0 0.32761823E+04</rscale>
<asrwt>0</asrwt>
<pdfrwt beam="1">  1        2 0.34716803E+00 0.32761823E+04</pdfrwt>
<pdfrwt beam="2">  1       -2 0.18294042E+00 0.32761823E+04</pdfrwt>
<totfact> 0.69484876E-01</totfact>
</mgrwt>
</event>
<event>
 6    1  0.5040916E-004  0.3089477E+04  0.7818608E-02  0.8218632E-01
          2   -1    0    0  501    0  0.00000000000E+00  0.00000000000E+00  0.41888970200E+04  0.41888970200E+04  0.00000000000E+00 0.  1.
         -2   -1    0    0    0  501 -0.00000000000E+00 -0.00000000000E+00 -0.56965284952E+03  0.56965284952E+03  0.00000000000E+00 0. -1.
         23    2    1    2    0    0  0.92345134409E+03  0.62613062716E+03  0.34539544714E+04  0.36306657302E+04  0.84440551952E+02 0.  0.
         13    1    3    3    0    0  0.19093737993E+03  0.17131292728E+03  0.76762807889E+03  0.80935657754E+03  0.00000000000E+00 0.  1.
        -13    1    3    3    0    0  0.73251396416E+03  0.45481769988E+03  0.26863263925E+04  0.28213091526E+04  0.00000000000E+00 0. -1.
         22    1    1    2    0    0 -0.92345134409E+03 -0.62613062716E+03  0.16528969912E+03  0.11278841394E+04  0.00000000000E+00 0. -1.
<mgrwt>
<rscale>  0 0.30894771E+04</rscale>
<asrwt>0</asrwt>
<pdfrwt beam="1">  1        2 0.64444567E+00 0.30894771E+04</pdfrwt>
<pdfrwt beam="2">  1       -2 0.87638903E-01 0.30894771E+04</pdfrwt>
<totfact> 0.22669402E-01</totfact>
</mgrwt>
</event>
<event>
 6    1  0.5040916E-004  0.2369541E+04  0.7818608E-02  0.8450996E-01
         -2   -1    0    0    0  501 -0.00000000000E+00  0.00000000000E+00  0.58503608132E+03  0.58503608132E+03  0.00000000000E+00 0. -1.
          2   -1    0    0  501    0  0.00000000000E+00 -0.00000000000E+00 -0.23993078638E+04  0.23993078638E+04  0.00000000000E+00 0.  1.
         23    2    1    2    0    0  0.10015283829E+04  0.32710810542E+03 -0.23072268570E+03  0.10823222427E+04  0.90164654875E+02 0.  0.
         11    1    3    3    0    0  0.50508456157E+03  0.13137100482E+03 -0.81515451018E+02  0.52821730755E+03  0.00000000000E+00 0. -1.
        -11    1    3    3    0    0  0.49644382136E+03  0.19573710060E+03 -0.14920723468E+03  0.55410493518E+03  0.00000000000E+00 0.  1.
         22    1    1    2    0    0 -0.10015283829E+04 -0.32710810542E+03 -0.15835490967E+04  0.19020217023E+04  0.00000000000E+00 0.  1.
<mgrwt>
<rscale>  0 0.23695414E+04</rscale>
<asrwt>0</asrwt>
<pdfrwt beam="1">  1        2 0.36912429E+00 0.23695414E+04</pdfrwt>
<pdfrwt beam="2">  1       -2 0.90005550E-01 0.23695414E+04</pdfrwt>
<totfact> 0.37898479E+00</totfact>
</mgrwt>
</event>
<event>
 6    1  0.5040916E-004  0.3251818E+04  0.7818608E-02  0.8175265E-01
          2   -1    0    0  501    0  0.00000000000E+00  0.00000000000E+00  0.14191372903E+04  0.14191372903E+04  0.00000000000E+00 0.  1.
         -2   -1    0    0    0  501 -0.00000000000E+00 -0.00000000000E+00 -0.18628079389E+04  0.18628079389E+04  0.00000000000E+00 0. -1.
         23    2    1    2    0    0  0.38770372328E+03  0.98430468977E+03  0.10223231847E+04  0.14740990470E+04  0.93023690871E+02 0.  0.
         11    1    3    3    0    0  0.29547357903E+03  0.82511640200E+03  0.87450770474E+03  0.12380975076E+04  0.00000000000E+00 0.  1.
        -11    1    3    3    0    0  0.92230144249E+02  0.15918828777E+03  0.14781547995E+03  0.23600153937E+03  0.00000000000E+00 0. -1.
         22    1    1    2    0    0 -0.38770372328E+03 -0.98430468977E+03 -0.14659938333E+04  0.18078461822E+04  0.00000000000E+00 0. -1.
<mgrwt>
<rscale>  0 0.32518181E+04</rscale>
<asrwt>0</asrwt>
<pdfrwt beam="1">  1        2 0.21832881E+00 0.32518181E+04</pdfrwt>
<pdfrwt beam="2">  1       -2 0.28658584E+00 0.32518181E+04</pdfrwt>
<totfact> 0.45417418E-01</totfact>
</mgrwt>
</event>
<event>
 6    1  0.5040916E-004  0.7271615E+03  0.7818608E-02  0.9671878E-01
         -2   -1    0    0    0  501 -0.00000000000E+00  0.00000000000E+00  0.28461392515E+03  0.28461392515E+03  0.00000000000E+00 0. -1.
          2   -1    0    0  501    0  0.00000000000E+00 -0.00000000000E+00 -0.46445714922E+03  0.46445714922E+03  0.00000000000E+00 0.  1.
         23    2    1    2    0    0 -0.33420022000E+03  0.10385883771E+03 -0.14290391670E+02  0.36192228445E+03  0.91143181153E+02 0.  0.
         11    1    3    3    0    0 -0.50288298094E+01  0.20805946205E+02 -0.64075837068E+01  0.22343537224E+02  0.00000000000E+00 0. -1.
        -11    1    3    3    0    0 -0.32917139019E+03  0.83052891502E+02 -0.78828079635E+01  0.33957874723E+03  0.00000000000E+00 0.  1.
         22    1    1    2    0    0  0.33420022000E+03 -0.10385883771E+03 -0.16555283240E+03  0.38714878992E+03  0.00000000000E+00 0.  1.
<mgrwt>
<rscale>  0 0.72716153E+03</rscale>
<asrwt>0</asrwt>
<pdfrwt beam="1">  1        2 0.71454945E-01 0.72716153E+03</pdfrwt>
<pdfrwt beam="2">  1       -2 0.43786758E-01 0.72716153E+03</pdfrwt>
<totfact> 0.33443031E+02</totfact>
</mgrwt>
</event>
<event>
 6    1  0.5040916E-004  0.1675654E+04  0.7818608E-02  0.8775373E-01
          2   -1    0    0  501    0  0.00000000000E+00  0.00000000000E+00  0.20172903941E+04  0.20172903941E+04  0.00000000000E+00 0.  1.
         -2   -1    0    0    0  501 -0.00000000000E+00 -0.00000000000E+00 -0.34796886402E+03  0.34796886402E+03  0.00000000000E+00 0. -1.
         23    2    1    2    0    0  0.44374566444E+03  0.38158758457E+03 -0.43930708462E+01  0.59217159397E+03  0.90158739064E+02 0.  0.
         13    1    3    3    0    0  0.26972276497E+03  0.18759832487E+03  0.27127990862E+02  0.32966563261E+03  0.00000000000E+00 0. -1.
        -13    1    3    3    0    0  0.17402289947E+03  0.19398925970E+03 -0.31521061708E+02  0.26250596136E+03  0.00000000000E+00 0.  1.
         22    1    1    2    0    0 -0.44374566444E+03 -0.38158758457E+03  0.16737146009E+04  0.17730876641E+04  0.00000000000E+00 0.  1.
<mgrwt>
<rscale>  0 0.16756542E+04</rscale>
<asrwt>0</asrwt>
<pdfrwt beam="1">  1        2 0.31035236E+00 0.16756542E+04</pdfrwt>
<pdfrwt beam="2">  1       -2 0.53533672E-01 0.16756542E+04</pdfrwt>
<totfact> 0.20489715E+01</totfact>
</mgrwt>
</event>
<event>
 6    1  0.5040916E-004  0.2890658E+04  0.7818608E-02  0.8275662E-01
         -4   -1    0    0    0  501 -0.00000000000E+00  0.00000000000E+00  0.18301847894E+04  0.18301847894E+04  0.00000000000E+00 0. -1.
          4   -1    0    0  501    0  0.00000000000E+00 -0.00000000000E+00 -0.11414018202E+04  0.11414018202E+04  0.00000000000E+00 0.  1.
         23    2    1    2    0    0 -0.90008294028E+03  0.80110175938E+03 -0.47296874466E+03  0.12977943963E+04  0.93045867648E+02 0.  0.
         13    1    3    3    0    0 -0.54222975266E+03  0.44583985857E+03 -0.31459186319E+03  0.76925569516E+03  0.00000000000E+00 0. -1.
        -13    1    3    3    0    0 -0.35785318762E+03  0.35526190081E+03 -0.15837688147E+03  0.52853870118E+03  0.00000000000E+00 0.  1.
         22    1    1    2    0    0  0.90008294028E+03 -0.80110175938E+03  0.11617517139E+04  0.16737922132E+04  0.00000000000E+00 0. -1.
<mgrwt>
<rscale>  0 0.28906582E+04</rscale>
<asrwt>0</asrwt>
<pdfrwt beam="1">  1        4 0.17560028E+00 0.28906582E+04</pdfrwt>
<pdfrwt beam="2">  1       -4 0.28156689E+00 0.28906582E+04</pdfrwt>
<totfact> 0.13324741E-02</totfact>
</mgrwt>
</event>
<event>
 6    1  0.5040916E-004  0.5719024E+03  0.7818608E-02  0.9965478E-01
          2   -1    0    0  501    0  0.00000000000E+00  0.00000000000E+00  0.30943415316E+04  0.30943415316E+04  0.00000000000E+00 0. -1.
         -2   -1    0    0    0  501 -0.00000000000E+00 -0.00000000000E+00 -0.26425037757E+02  0.26425037757E+02  0.00000000000E+00 0.  1.
         23    2    1    2    0    0 -0.59995462868E+02 -0.21910799541E+03  0.24531664475E+04  0.24653847046E+04  0.92132259031E+02 0.  0.
         11    1    3    3    0    0  0.12004175460E+02 -0.23688047893E+02  0.59336431581E+03  0.59395827725E+03  0.00000000000E+00 0. -1.
        -11    1    3    3    0    0 -0.71999638329E+02 -0.19541994752E+03  0.18598021317E+04  0.18714264274E+04  0.00000000000E+00 0.  1.
         22    1    1    2    0    0  0.59995462868E+02  0.21910799541E+03  0.61475004635E+03  0.65538186479E+03  0.00000000000E+00 0.  1.
<mgrwt>
<rscale>  0 0.57190241E+03</rscale>
<asrwt>0</asrwt>
<pdfrwt beam="1">  1        2 0.47605226E+00 0.57190241E+03</pdfrwt>
<pdfrwt beam="2">  1       -2 0.40653929E-02 0.57190241E+03</pdfrwt>
<totfact> 0.46622926E+02</totfact>
</mgrwt>
</event>
<event>
 6    1  0.5040916E-004  0.2070918E+04  0.7818608E-02  0.8574163E-01
          1   -1    0    0  501    0  0.00000000000E+00  0.00000000000E+00  0.28389788569E+04  0.28389788569E+04  0.00000000000E+00 0.  1.
         -1   -1    0    0    0  501 -0.00000000000E+00 -0.00000000000E+00 -0.37766237524E+03  0.37766237524E+03  0.00000000000E+00 0. -1.
         23    2    1    2    0    0 -0.90576763603E+03 -0.39190249144E+03  0.75729152949E+03  0.12474526655E+04  0.92979131015E+02 0.  0.
         11    1    3    3    0    0 -0.28237943388E+03 -0.13993400709E+03  0.29327511314E+03  0.43049966668E+03  0.00000000000E+00 0. -1.
        -11    1    3    3    0    0 -0.62338820214E+03 -0.25196848435E+03  0.46401641635E+03  0.81695299884E+03  0.00000000000E+00 0.  1.
         22    1    1    2    0    0  0.90576763603E+03  0.39190249144E+03  0.17040249522E+04  0.19691885666E+04  0.00000000000E+00 0. -1.
<mgrwt>
<rscale>  0 0.20709182E+04</rscale>
<asrwt>0</asrwt>
<pdfrwt beam="1">  1        1 0.43676596E+00 0.20709182E+04</pdfrwt>
<pdfrwt beam="2">  1       -1 0.58101906E-01 0.20709182E+04</pdfrwt>
<totfact> 0.21649611E+00</totfact>
</mgrwt>
</event>
<event>
 6    1  0.5040916E-004  0.8835971E+03  0.7818608E-02  0.9446321E-01
         -1   -1    0    0    0  501 -0.00000000000E+00  0.00000000000E+00  0.14251490943E+04  0.14251490943E+04  0.00000000000E+00 0. -1.
          1   -1    0    0  501    0  0.00000000000E+00 -0.00000000000E+00 -0.13695826801E+03  0.13695826801E+03  0.00000000000E+00 0.  1.
         23    2    1    2    0    0  0.56779340982E+02 -0.12892683659E+03  0.13824863509E+04  0.13925854796E+04  0.90442162715E+02 0.  0.
         11    1    3    3    0    0  0.10414210923E+02 -0.11880001128E+03  0.10437378257E+04  0.10505286990E+04  0.00000000000E+00 0. -1.
        -11    1    3    3    0    0  0.46365130059E+02 -0.10126825309E+02  0.33874852521E+03  0.34205678068E+03  0.00000000000E+00 0.  1.
         22    1    1    2    0    0 -0.56779340982E+02  0.12892683659E+03 -0.94295524621E+02  0.16952188271E+03  0.00000000000E+00 0.  1.
<mgrwt>
<rscale>  0 0.88359708E+03</rscale>
<asrwt>0</asrwt>
<pdfrwt beam="1">  1        1 0.21070504E-01 0.88359708E+03</pdfrwt>
<pdfrwt beam="2">  1       -1 0.21925370E+00 0.88359708E+03</pdfrwt>
<totfact> 0.27663514E+01</totfact>
</mgrwt>
</event>
<event>
 6    1  0.5040916E-004  0.2867121E+04  0.7818608E-02  0.8282728E-01
         -2   -1    0    0    0  501 -0.00000000000E+00  0.00000000000E+00  0.82091957037E+03  0.82091957037E+03  0.00000000000E+00 0. -1.
          2   -1    0    0  501    0  0.00000000000E+00 -0.00000000000E+00 -0.25034075583E+04  0.25034075583E+04  0.00000000000E+00 0.  1.
         23    2    1    2    0    0  0.64789874759E+03  0.12648989418E+04 -0.10465670532E+04  0.17673629174E+04  0.92341566083E+02 0.  0.
         13    1    3    3    0    0  0.42384611624E+03  0.77576864148E+03 -0.69747629325E+03  0.11260265072E+04  0.00000000000E+00 0. -1.
        -13    1    3    3    0    0  0.22405263135E+03  0.48913030029E+03 -0.34909075993E+03  0.64133641012E+03  0.00000000000E+00 0.  1.
         22    1    1    2    0    0 -0.64789874759E+03 -0.12648989418E+04 -0.63592093473E+03  0.15569642113E+04  0.00000000000E+00 0. -1.
<mgrwt>
<rscale>  0 0.28671214E+04</rscale>
<asrwt>0</asrwt>
<pdfrwt beam="1">  1        2 0.38513962E+00 0.28671214E+04</pdfrwt>
<pdfrwt beam="2">  1       -2 0.12629532E+00 0.28671214E+04</pdfrwt>
<totfact> 0.14007663E+00</totfact>
</mgrwt>
</event>
<event>
 6    1  0.5040916E-004  0.2771271E+04  0.7818608E-02  0.8312243E-01
          2   -1    0    0  501    0  0.00000000000E+00  0.00000000000E+00  0.43157081137E+04  0.43157081137E+04  0.00000000000E+00 0.  1.
         -2   -1    0    0    0  501 -0.00000000000E+00 -0.00000000000E+00 -0.44488311508E+03  0.44488311508E+03  0.00000000000E+00 0. -1.
         23    2    1    2    0    0 -0.85989892011E+03  0.59419924611E+03  0.37892465951E+03  0.11156129195E+04  0.92246364088E+02 0.  0.
         13    1    3    3    0    0 -0.55709892340E+03  0.42993412769E+03  0.23029993133E+03  0.74043272684E+03  0.00000000000E+00 0. -1.
        -13    1    3    3    0    0 -0.30279999671E+03  0.16426511842E+03  0.14862472819E+03  0.37518019266E+03  0.00000000000E+00 0.  1.
         22    1    1    2    0    0  0.85989892011E+03 -0.59419924611E+03  0.34919003391E+04  0.36449783092E+04  0.00000000000E+00 0.  1.
<mgrwt>
<rscale>  0 0.27712709E+04</rscale>
<asrwt>0</asrwt>
<pdfrwt beam="1">  1        2 0.66395506E+00 0.27712709E+04</pdfrwt>
<pdfrwt beam="2">  1       -2 0.68443559E-01 0.27712709E+04</pdfrwt>
<totfact> 0.31307483E-01</totfact>
</mgrwt>
</event>
<event>
 6    1  0.5040916E-004  0.1752617E+04  0.7818608E-02  0.8731911E-01
         -2   -1    0    0    0  501 -0.00000000000E+00  0.00000000000E+00  0.32349217603E+03  0.32349217603E+03  0.00000000000E+00 0. -1.
          2   -1    0    0  501    0  0.00000000000E+00 -0.00000000000E+00 -0.23738334760E+04  0.23738334760E+04  0.00000000000E+00 0.  1.
         23    2    1    2    0    0  0.69448301224E+03  0.12719203885E+03 -0.18204795177E+04  0.19548157814E+04  0.93137510449E+02 0.  0.
         13    1    3    3    0    0  0.46878714814E+03  0.43996795205E+02 -0.12470816708E+04  0.13330078026E+04  0.00000000000E+00 0.  1.
        -13    1    3    3    0    0  0.22569586410E+03  0.83195243643E+02 -0.57339784695E+03  0.62180797882E+03  0.00000000000E+00 0. -1.
         22    1    1    2    0    0 -0.69448301224E+03 -0.12719203885E+03 -0.22986178229E+03  0.74250987064E+03  0.00000000000E+00 0. -1.
<mgrwt>
<rscale>  0 0.17526170E+04</rscale>
<asrwt>0</asrwt>
<pdfrwt beam="1">  1        2 0.36520514E+00 0.17526170E+04</pdfrwt>
<pdfrwt beam="2">  1       -2 0.49768029E-01 0.17526170E+04</pdfrwt>
<totfact> 0.14911053E+01</totfact>
</mgrwt>
</event>
<event>
 6    1  0.5040916E-004  0.2301866E+04  0.7818608E-02  0.8477186E-01
          2   -1    0    0  501    0  0.00000000000E+00  0.00000000000E+00  0.33960177364E+04  0.33960177364E+04  0.00000000000E+00 0.  1.
         -2   -1    0    0    0  501 -0.00000000000E+00 -0.00000000000E+00 -0.39005881861E+03  0.39005881861E+03  0.00000000000E+00 0. -1.
         23    2    1    2    0    0 -0.26302419605E+03  0.57550460934E+03  0.30829845872E+04  0.31486440199E+04  0.93690534292E+02 0.  0.
         13    1    3    3    0    0 -0.14725254309E+03  0.36983570095E+03  0.21292302492E+04  0.21661216981E+04  0.00000000000E+00 0. -1.
        -13    1    3    3    0    0 -0.11577165296E+03  0.20566890839E+03  0.95375433801E+03  0.98252232177E+03  0.00000000000E+00 0.  1.
         22    1    1    2    0    0  0.26302419605E+03 -0.57550460934E+03 -0.77025669378E+02  0.63743253511E+03  0.00000000000E+00 0. -1.
<mgrwt>
<rscale>  0 0.23018659E+04</rscale>
<asrwt>0</asrwt>
<pdfrwt beam="1">  1        2 0.52246425E+00 0.23018659E+04</pdfrwt>
<pdfrwt beam="2">  1       -2 0.60009051E-01 0.23018659E+04</pdfrwt>
<totfact> 0.22566064E+00</totfact>
</mgrwt>
</event>
<event>
 6    1  0.5040916E-004  0.3363177E+04  0.7818608E-02  0.8147003E-01
          2   -1    0    0  501    0  0.00000000000E+00  0.00000000000E+00  0.17819520714E+04  0.17819520714E+04  0.00000000000E+00 0.  1.
         -2   -1    0    0    0  501 -0.00000000000E+00 -0.00000000000E+00 -0.15868780517E+04  0.15868780517E+04  0.00000000000E+00 0. -1.
         23    2    1    2    0    0 -0.99724595388E+03 -0.11959108524E+04  0.73020664414E+03  0.17222976500E+04  0.91679837582E+02 0.  0.
         11    1    3    3    0    0 -0.18636357158E+03 -0.23503894617E+03  0.10227983443E+03  0.31691615857E+03  0.00000000000E+00 0. -1.
        -11    1    3    3    0    0 -0.81088238230E+03 -0.96087190624E+03  0.62792680971E+03  0.14053814914E+04  0.00000000000E+00 0.  1.
         22    1    1    2    0    0  0.99724595388E+03  0.11959108524E+04 -0.53513262440E+03  0.16465324732E+04  0.00000000000E+00 0. -1.
<mgrwt>
<rscale>  0 0.33631774E+04</rscale>
<asrwt>0</asrwt>
<pdfrwt beam="1">  1        2 0.27414647E+00 0.33631774E+04</pdfrwt>
<pdfrwt beam="2">  1       -2 0.24413509E+00 0.33631774E+04</pdfrwt>
<totfact> 0.51246125E-01</totfact>
</mgrwt>
</event>
<event>
 6    1  0.5040916E-004  0.1701040E+04  0.7818608E-02  0.8760771E-01
          2   -1    0    0  501    0  0.00000000000E+00  0.00000000000E+00  0.16232621901E+04  0.16232621901E+04  0.00000000000E+00 0.  1.
         -2   -1    0    0    0  501 -0.00000000000E+00 -0.00000000000E+00 -0.44563619053E+03  0.44563619053E+03  0.00000000000E+00 0. -1.
         23    2    1    2    0    0  0.46898841356E+03  0.70029465364E+03  0.70349014063E+03  0.11018577679E+04  0.93965039943E+02 0.  0.
         11    1    3    3    0    0  0.25213303232E+03  0.33162090489E+03  0.29543975075E+03  0.51071336077E+03  0.00000000000E+00 0.  1.
        -11    1    3    3    0    0  0.21685538124E+03  0.36867374875E+03  0.40805038988E+03  0.59114440712E+03  0.00000000000E+00 0. -1.
         22    1    1    2    0    0 -0.46898841356E+03 -0.70029465364E+03  0.47413585896E+03  0.96704061276E+03  0.00000000000E+00 0. -1.
<mgrwt>
<rscale>  0 0.17010401E+04</rscale>
<asrwt>0</asrwt>
<pdfrwt beam="1">  1        2 0.24973264E+00 0.17010401E+04</pdfrwt>
<pdfrwt beam="2">  1       -2 0.68559415E-01 0.17010401E+04</pdfrwt>
<totfact> 0.20028638E+01</totfact>
</mgrwt>
</event>
<event>
 6    1  0.5040916E-004  0.2134937E+04  0.7818608E-02  0.8546008E-01
          4   -1    0    0  501    0  0.00000000000E+00  0.00000000000E+00  0.18049979748E+04  0.18049979748E+04  0.00000000000E+00 0.  1.
         -4   -1    0    0    0  501 -0.00000000000E+00 -0.00000000000E+00 -0.63129626356E+03  0.63129626356E+03  0.00000000000E+00 0. -1.
         23    2    1    2    0    0 -0.33957168615E+03 -0.81943043266E+03  0.12609720623E+04  0.15450079330E+04  0.10111284297E+03 0.  0.
         11    1    3    3    0    0 -0.10916636563E+03 -0.28427472925E+03  0.35330608918E+03  0.46642749675E+03  0.00000000000E+00 0. -1.
        -11    1    3    3    0    0 -0.23040532052E+03 -0.53515570341E+03  0.90766597315E+03  0.10785804362E+04  0.00000000000E+00 0.  1.
         22    1    1    2    0    0  0.33957168615E+03  0.81943043266E+03 -0.87270351069E+02  0.89128630539E+03  0.00000000000E+00 0. -1.
<mgrwt>
<rscale>  0 0.21349365E+04</rscale>
<asrwt>0</asrwt>
<pdfrwt beam="1">  1        4 0.27769199E+00 0.21349365E+04</pdfrwt>
<pdfrwt beam="2">  1       -4 0.97122503E-01 0.21349365E+04</pdfrwt>
<totfact> 0.69173852E-02</totfact>
</mgrwt>
</event>
<event>
 6    1  0.5040916E-004  0.3913828E+04  0.7818608E-02  0.8022159E-01
          2   -1    0    0  501    0  0.00000000000E+00  0.00000000000E+00  0.29725555024E+04  0.29725555024E+04  0.00000000000E+00 0.  1.
         -2   -1    0    0    0  501 -0.00000000000E+00 -0.00000000000E+00 -0.12882897063E+04  0.12882897063E+04  0.00000000000E+00 0. -1.
         23    2    1    2    0    0 -0.87021199300E+03 -0.49543602211E+03 -0.98655134036E+03  0.14084795342E+04  0.88347532080E+02 0.  0.
         11    1    3    3    0    0 -0.41757013091E+03 -0.18969542694E+03 -0.43081949315E+03  0.62924923910E+03  0.00000000000E+00 0.  1.
        -11    1    3    3    0    0 -0.45264186209E+03 -0.30574059517E+03 -0.55573184721E+03  0.77923029513E+03  0.00000000000E+00 0. -1.
         22    1    1    2    0    0  0.87021199300E+03  0.49543602211E+03  0.26708171364E+04  0.28523656744E+04  0.00000000000E+00 0.  1.
<mgrwt>
<rscale>  0 0.39138281E+04</rscale>
<asrwt>0</asrwt>
<pdfrwt beam="1">  1        2 0.45731623E+00 0.39138281E+04</pdfrwt>
<pdfrwt beam="2">  1       -2 0.19819842E+00 0.39138281E+04</pdfrwt>
<totfact> 0.19656551E-01</totfact>
</mgrwt>
</event>
<event>
 6    1  0.7265635E-004  0.4029366E+04  0.7818608E-02  0.7998648E-01
          1   -1    0    0  501    0  0.00000000000E+00  0.00000000000E+00  0.13785822075E+04  0.13785822075E+04  0.00000000000E+00 0.  1.
         -1   -1    0    0    0  501 -0.00000000000E+00 -0.00000000000E+00 -0.29442919672E+04  0.29442919672E+04  0.00000000000E+00 0. -1.
         23    2    1    2    0    0 -0.14657028727E+04  0.11427901860E+03 -0.22594866831E+04  0.26972447507E+04  0.92220219622E+02 0.  0.
         11    1    3    3    0    0 -0.32748279754E+03 -0.44488033893E+01 -0.54771199694E+03  0.63816393358E+03  0.00000000000E+00 0. -1.
        -11    1    3    3    0    0 -0.11382200751E+04  0.11872782199E+03 -0.17117746862E+04  0.20590808171E+04  0.00000000000E+00 0.  1.
         22    1    1    2    0    0  0.14657028727E+04 -0.11427901860E+03  0.69377692340E+03  0.16256294241E+04  0.00000000000E+00 0.  1.
<mgrwt>
<rscale>  0 0.40293665E+04</rscale>
<asrwt>0</asrwt>
<pdfrwt beam="1">  1        1 0.21208957E+00 0.40293665E+04</pdfrwt>
<pdfrwt beam="2">  1       -1 0.45296799E+00 0.40293665E+04</pdfrwt>
<totfact> 0.19172022E-02</totfact>
</mgrwt>
</event>
<event>
 6    1  0.5040916E-004  0.1142842E+04  0.7818608E-02  0.9164413E-01
         -1   -1    0    0    0  501 -0.00000000000E+00  0.00000000000E+00  0.64729556050E+03  0.64729556050E+03  0.00000000000E+00 0. -1.
          1   -1    0    0  501    0  0.00000000000E+00 -0.00000000000E+00 -0.50444017930E+03  0.50444017930E+03  0.00000000000E+00 0.  1.
         23    2    1    2    0    0  0.54257395070E+03 -0.90043663809E+01 -0.98297797785E+02  0.55791554284E+03  0.84496895229E+02 0.  0.
         11    1    3    3    0    0  0.35366324500E+03 -0.35220489710E+01 -0.22837871597E+02  0.35441735860E+03  0.00000000000E+00 0.  1.
        -11    1    3    3    0    0  0.18891070569E+03 -0.54823174099E+01 -0.75459926188E+02  0.20349818424E+03  0.00000000000E+00 0. -1.
         22    1    1    2    0    0 -0.54257395070E+03  0.90043663809E+01  0.24115317898E+03  0.59382019696E+03  0.00000000000E+00 0. -1.
<mgrwt>
<rscale>  0 0.11428419E+04</rscale>
<asrwt>0</asrwt>
<pdfrwt beam="1">  1        1 0.77606182E-01 0.11428419E+04</pdfrwt>
<pdfrwt beam="2">  1       -1 0.99583932E-01 0.11428419E+04</pdfrwt>
<totfact> 0.41886939E+01</totfact>
</mgrwt>
</event>
<event>
 6    1  0.5040916E-004  0.1344399E+04  0.7818608E-02  0.8995079E-01
         -2   -1    0    0    0  501 -0.00000000000E+00  0.00000000000E+00  0.56811832395E+03  0.56811832395E+03  0.00000000000E+00 0. -1.
          2   -1    0    0  501    0  0.00000000000E+00 -0.00000000000E+00 -0.79534822164E+03  0.79534822164E+03  0.00000000000E+00 0.  1.
         23    2    1    2    0    0  0.16575440223E+03  0.30895700279E+03 -0.69212367081E+03  0.78118210333E+03  0.91001930956E+02 0.  0.
         11    1    3    3    0    0  0.42043068804E+02  0.29510715313E+02 -0.15392719952E+03  0.16227163864E+03  0.00000000000E+00 0. -1.
        -11    1    3    3    0    0  0.12371133342E+03  0.27944628747E+03 -0.53819647128E+03  0.61891046469E+03  0.00000000000E+00 0.  1.
         22    1    1    2    0    0 -0.16575440223E+03 -0.30895700279E+03  0.46489377311E+03  0.58228444227E+03  0.00000000000E+00 0. -1.
<mgrwt>
<rscale>  0 0.13443986E+04</rscale>
<asrwt>0</asrwt>
<pdfrwt beam="1">  1        2 0.12236126E+00 0.13443986E+04</pdfrwt>
<pdfrwt beam="2">  1       -2 0.87402819E-01 0.13443986E+04</pdfrwt>
<totfact> 0.38362563E+01</totfact>
</mgrwt>
</event>
<event>
 6    1  0.5040916E-004  0.2851290E+04  0.7818608E-02  0.8287519E-01
         -2   -1    0    0    0  501 -0.00000000000E+00  0.00000000000E+00  0.88422744853E+03  0.88422744853E+03  0.00000000000E+00 0. -1.
          2   -1    0    0  501    0  0.00000000000E+00 -0.00000000000E+00 -0.22985754651E+04  0.22985754651E+04  0.00000000000E+00 0.  1.
         23    2    1    2    0    0 -0.12593107779E+04  0.38301650748E+03 -0.10071003157E+03  0.13231765974E+04  0.89936182997E+02 0.  0.
         13    1    3    3    0    0 -0.65325873508E+03  0.15598398284E+03 -0.32463868393E+02  0.67240752569E+03  0.00000000000E+00 0.  1.
        -13    1    3    3    0    0 -0.60605204285E+03  0.22703252464E+03 -0.68246163178E+02  0.65076907169E+03  0.00000000000E+00 0. -1.
         22    1    1    2    0    0  0.12593107779E+04 -0.38301650748E+03 -0.13136379850E+04  0.18596263162E+04  0.00000000000E+00 0.  1.
<mgrwt>
<rscale>  0 0.28512899E+04</rscale>
<asrwt>0</asrwt>
<pdfrwt beam="1">  1        2 0.35362699E+00 0.28512899E+04</pdfrwt>
<pdfrwt beam="2">  1       -2 0.13603500E+00 0.28512899E+04</pdfrwt>
<totfact> 0.15224914E+00</totfact>
</mgrwt>
</event>
<event>
 6    1  0.5040916E-004  0.3985635E+04  0.7818608E-02  0.8007451E-01
         -2   -1    0    0    0  501 -0.00000000000E+00  0.00000000000E+00  0.11381814721E+04  0.11381814721E+04  0.00000000000E+00 0. -1.
          2   -1    0    0  501    0  0.00000000000E+00 -0.00000000000E+00 -0.34891816550E+04  0.34891816550E+04  0.00000000000E+00 0.  1.
         23    2    1    2    0    0  0.15201176550E+04  0.12126972172E+04 -0.16765441017E+04  0.25691398081E+04  0.91032977933E+02 0.  0.
         13    1    3    3    0    0  0.52886135998E+03  0.36768037738E+03 -0.54668863277E+03  0.84483824439E+03  0.00000000000E+00 0. -1.
        -13    1    3    3    0    0  0.99125629499E+03  0.84501683980E+03 -0.11298554689E+04  0.17243015637E+04  0.00000000000E+00 0.  1.
         22    1    1    2    0    0 -0.15201176550E+04 -0.12126972172E+04 -0.67445608117E+03  0.20582233190E+04  0.00000000000E+00 0. -1.
<mgrwt>
<rscale>  0 0.39856352E+04</rscale>
<asrwt>0</asrwt>
<pdfrwt beam="1">  1        2 0.53679718E+00 0.39856352E+04</pdfrwt>
<pdfrwt beam="2">  1       -2 0.17510484E+00 0.39856352E+04</pdfrwt>
<totfact> 0.12792801E-01</totfact>
</mgrwt>
</event>
<event>
 6    1  0.5040916E-004  0.2943156E+04  0.7818608E-02  0.8260152E-01
          2   -1    0    0  501    0  0.00000000000E+00  0.00000000000E+00  0.12036604791E+04  0.12036604791E+04  0.00000000000E+00 0.  1.
         -2   -1    0    0    0  501 -0.00000000000E+00 -0.00000000000E+00 -0.17991298841E+04  0.17991298841E+04  0.00000000000E+00 0. -1.
         23    2    1    2    0    0  0.11274236985E+04  0.55126630305E+03 -0.10792505495E+04  0.16577911333E+04  0.92254865642E+02 0.  0.
         13    1    3    3    0    0  0.83237230659E+03  0.36165332943E+03 -0.78766181749E+03  0.12016854523E+04  0.00000000000E+00 0.  1.
        -13    1    3    3    0    0  0.29505139193E+03  0.18961297362E+03 -0.29158873200E+03  0.45610568104E+03  0.00000000000E+00 0. -1.
         22    1    1    2    0    0 -0.11274236985E+04 -0.55126630305E+03  0.48378114448E+03  0.13449992300E+04  0.00000000000E+00 0.  1.
<mgrwt>
<rscale>  0 0.29431558E+04</rscale>
<asrwt>0</asrwt>
<pdfrwt beam="1">  1        2 0.18517854E+00 0.29431558E+04</pdfrwt>
<pdfrwt beam="2">  1       -2 0.27678921E+00 0.29431558E+04</pdfrwt>
<totfact> 0.71400659E-01</totfact>
</mgrwt>
</event>
<event>
 6    1  0.5040916E-004  0.2003542E+04  0.7818608E-02  0.8604966E-01
         -2   -1    0    0    0  501 -0.00000000000E+00  0.00000000000E+00  0.79240370627E+03  0.79240370627E+03  0.00000000000E+00 0. -1.
          2   -1    0    0  501    0  0.00000000000E+00 -0.00000000000E+00 -0.12664570839E+04  0.12664570839E+04  0.00000000000E+00 0.  1.
         23    2    1    2    0    0  0.41494834962E+03  0.36667302410E+02  0.69632827972E+03  0.81655654089E+03  0.91459758434E+02 0.  0.
         13    1    3    3    0    0  0.14774090054E+03  0.11842529174E+02  0.16838783166E+03  0.22432583677E+03  0.00000000000E+00 0. -1.
        -13    1    3    3    0    0  0.26720744909E+03  0.24824773236E+02  0.52794044805E+03  0.59223070412E+03  0.00000000000E+00 0.  1.
         22    1    1    2    0    0 -0.41494834962E+03 -0.36667302410E+02 -0.11703816574E+04  0.12423042493E+04  0.00000000000E+00 0.  1.
<mgrwt>
<rscale>  0 0.20035422E+04</rscale>
<asrwt>0</asrwt>
<pdfrwt beam="1">  1        2 0.19483955E+00 0.20035422E+04</pdfrwt>
<pdfrwt beam="2">  1       -2 0.12190826E+00 0.20035422E+04</pdfrwt>
<totfact> 0.82031440E+00</totfact>
</mgrwt>
</event>
<event>
 6    1  0.5040916E-004  0.4689183E+04  0.7818608E-02  0.7878328E-01
         -2   -1    0    0    0  501 -0.00000000000E+00  0.00000000000E+00  0.15208616629E+04  0.15208616629E+04  0.00000000000E+00 0. -1.
          2   -1    0    0  501    0  0.00000000000E+00 -0.00000000000E+00 -0.36144710104E+04  0.36144710104E+04  0.00000000000E+00 0.  1.
         23    2    1    2    0    0  0.16930381120E+04  0.11784477223E+04  0.17127851730E+03  0.20718650101E+04  0.90394726793E+02 0.  0.
         11    1    3    3    0    0  0.10220758886E+04  0.76357896211E+03  0.11568721964E+03  0.12810446855E+04  0.00000000000E+00 0.  1.
        -11    1    3    3    0    0  0.67096222343E+03  0.41486876022E+03  0.55591297657E+02  0.79082032464E+03  0.00000000000E+00 0. -1.
         22    1    1    2    0    0 -0.16930381120E+04 -0.11784477223E+04 -0.22648878649E+04  0.30634676632E+04  0.00000000000E+00 0.  1.
<mgrwt>
<rscale>  0 0.46891835E+04</rscale>
<asrwt>0</asrwt>
<pdfrwt beam="1">  1        2 0.55607246E+00 0.46891835E+04</pdfrwt>
<pdfrwt beam="2">  1       -2 0.23397872E+00 0.46891835E+04</pdfrwt>
<totfact> 0.40512823E-02</totfact>
</mgrwt>
</event>
<event>
 6    1  0.5040916E-004  0.4318906E+04  0.7818608E-02  0.7943131E-01
          2   -1    0    0  501    0  0.00000000000E+00  0.00000000000E+00  0.13882650722E+04  0.13882650722E+04  0.00000000000E+00 0. -1.
         -2   -1    0    0    0  501 -0.00000000000E+00 -0.00000000000E+00 -0.33590399147E+04  0.33590399147E+04  0.00000000000E+00 0.  1.
         23    2    1    2    0    0 -0.21466065119E+03  0.15910242032E+04  0.60005788601E+03  0.17163615482E+04  0.91598512102E+02 0.  0.
         11    1    3    3    0    0 -0.94895439133E+01  0.34533372599E+03  0.12058828897E+03  0.36590568346E+03  0.00000000000E+00 0. -1.
        -11    1    3    3    0    0 -0.20517110728E+03  0.12456904772E+04  0.47946959704E+03  0.13504558648E+04  0.00000000000E+00 0.  1.
         22    1    1    2    0    0  0.21466065119E+03 -0.15910242032E+04 -0.25708327285E+04  0.30309434387E+04  0.00000000000E+00 0.  1.
<mgrwt>
<rscale>  0 0.43189062E+04</rscale>
<asrwt>0</asrwt>
<pdfrwt beam="1">  1        2 0.21357924E+00 0.43189062E+04</pdfrwt>
<pdfrwt beam="2">  1       -2 0.51677537E+00 0.43189062E+04</pdfrwt>
<totfact> 0.14798396E-02</totfact>
</mgrwt>
</event>
<event>
 6    1  0.5040916E-004  0.5221062E+04  0.7818608E-02  0.7795282E-01
          2   -1    0    0  501    0  0.00000000000E+00  0.00000000000E+00  0.23776306840E+04  0.23776306840E+04  0.00000000000E+00 0.  1.
         -2   -1    0    0    0  501 -0.00000000000E+00 -0.00000000000E+00 -0.28662454541E+04  0.28662454541E+04  0.00000000000E+00 0. -1.
         23    2    1    2    0    0  0.21440599566E+04  0.97873097826E+03  0.88114523969E+03  0.25178625816E+04  0.91146152830E+02 0.  0.
         13    1    3    3    0    0  0.57375385963E+03  0.23846704487E+03  0.26879439416E+03  0.67698629916E+03  0.00000000000E+00 0.  1.
        -13    1    3    3    0    0  0.15703060970E+04  0.74026393339E+03  0.61235084553E+03  0.18408762825E+04  0.00000000000E+00 0. -1.
         22    1    1    2    0    0 -0.21440599566E+04 -0.97873097826E+03 -0.13697600098E+04  0.27260135564E+04  0.00000000000E+00 0. -1.
<mgrwt>
<rscale>  0 0.52210624E+04</rscale>
<asrwt>0</asrwt>
<pdfrwt beam="1">  1        2 0.36578933E+00 0.52210624E+04</pdfrwt>
<pdfrwt beam="2">  1       -2 0.44096084E+00 0.52210624E+04</pdfrwt>
<totfact> 0.11700104E-02</totfact>
</mgrwt>
</event>
<event>
 6    1  0.5040916E-004  0.3215765E+04  0.7818608E-02  0.8184666E-01
          2   -1    0    0  501    0  0.00000000000E+00  0.00000000000E+00  0.31103339717E+04  0.31103339717E+04  0.00000000000E+00 0.  1.
         -2   -1    0    0    0  501 -0.00000000000E+00 -0.00000000000E+00 -0.83119258245E+03  0.83119258245E+03  0.00000000000E+00 0. -1.
         23    2    1    2    0    0 -0.13273403626E+04 -0.63858542326E+03  0.35387471421E+03  0.15174235137E+04  0.87880746368E+02 0.  0.
         13    1    3    3    0    0 -0.54950504688E+03 -0.26374927506E+03  0.10203564090E+03  0.61800546005E+03  0.00000000000E+00 0. -1.
        -13    1    3    3    0    0 -0.77783531569E+03 -0.37483614819E+03  0.25183907331E+03  0.89941805361E+03  0.00000000000E+00 0.  1.
         22    1    1    2    0    0  0.13273403626E+04  0.63858542326E+03  0.19252666751E+04  0.24241030405E+04  0.00000000000E+00 0.  1.
<mgrwt>
<rscale>  0 0.32157652E+04</rscale>
<asrwt>0</asrwt>
<pdfrwt beam="1">  1        2 0.47851291E+00 0.32157652E+04</pdfrwt>
<pdfrwt beam="2">  1       -2 0.12787578E+00 0.32157652E+04</pdfrwt>
<totfact> 0.56386779E-01</totfact>
</mgrwt>
</event>
<event>
 6    1  0.5040916E-004  0.1297781E+04  0.7818608E-02  0.9031327E-01
         -1   -1    0    0    0  501 -0.00000000000E+00  0.00000000000E+00  0.42093157729E+03  0.42093157729E+03  0.00000000000E+00 0. -1.
          1   -1    0    0  501    0  0.00000000000E+00 -0.00000000000E+00 -0.10003024513E+04  0.10003024513E+04  0.00000000000E+00 0.  1.
         23    2    1    2    0    0 -0.27369178342E+03  0.53893050120E+03 -0.42205576501E+02  0.61259329608E+03  0.90199546970E+02 0.  0.
         13    1    3    3    0    0 -0.11077729826E+03  0.27926482167E+03  0.14794613809E+02  0.30079782417E+03  0.00000000000E+00 0. -1.
        -13    1    3    3    0    0 -0.16291448517E+03  0.25966567954E+03 -0.57000190310E+02  0.31179547191E+03  0.00000000000E+00 0.  1.
         22    1    1    2    0    0  0.27369178342E+03 -0.53893050120E+03 -0.53716529755E+03  0.80864073255E+03  0.00000000000E+00 0. -1.
<mgrwt>
<rscale>  0 0.12977810E+04</rscale>
<asrwt>0</asrwt>
<pdfrwt beam="1">  1        1 0.15389268E+00 0.12977810E+04</pdfrwt>
<pdfrwt beam="2">  1       -1 0.64758704E-01 0.12977810E+04</pdfrwt>
<totfact> 0.35933999E+01</totfact>
</mgrwt>
</event>
<event>
 6    1  0.5040916E-004  0.1824218E+04  0.7818608E-02  0.8693525E-01
         -2   -1    0    0    0  501 -0.00000000000E+00  0.00000000000E+00  0.91867210308E+03  0.91867210308E+03  0.00000000000E+00 0. -1.
          2   -1    0    0  501    0  0.00000000000E+00 -0.00000000000E+00 -0.90559312254E+03  0.90559312254E+03  0.00000000000E+00 0.  1.
         23    2    1    2    0    0 -0.34066444942E+03  0.49873428892E+03 -0.67397083063E+03  0.90948350243E+03  0.90196466660E+02 0.  0.
         13    1    3    3    0    0 -0.28392122064E+03  0.39384016694E+03 -0.58761844494E+03  0.76224456276E+03  0.00000000000E+00 0. -1.
        -13    1    3    3    0    0 -0.56743228785E+02  0.10489412198E+03 -0.86352385689E+02  0.14723893967E+03  0.00000000000E+00 0.  1.
         22    1    1    2    0    0  0.34066444942E+03 -0.49873428892E+03  0.68704981118E+03  0.91478172319E+03  0.00000000000E+00 0. -1.
<mgrwt>
<rscale>  0 0.18242183E+04</rscale>
<asrwt>0</asrwt>
<pdfrwt beam="1">  1        2 0.13932202E+00 0.18242183E+04</pdfrwt>
<pdfrwt beam="2">  1       -2 0.14133417E+00 0.18242183E+04</pdfrwt>
<totfact> 0.95951653E+00</totfact>
</mgrwt>
</event>
<event>
 6    1  0.5040916E-004  0.1936012E+04  0.7818608E-02  0.8637136E-01
          2   -1    0    0  501    0  0.00000000000E+00  0.00000000000E+00  0.13105797640E+04  0.13105797640E+04  0.00000000000E+00 0.  1.
         -2   -1    0    0    0  501 -0.00000000000E+00 -0.00000000000E+00 -0.71497812096E+03  0.71497812096E+03  0.00000000000E+00 0. -1.
         23    2    1    2    0    0 -0.12687263832E+02  0.45317068697E+03 -0.59379286183E+03  0.75269342777E+03  0.91830252396E+02 0.  0.
         11    1    3    3    0    0  0.27575780766E+02  0.55527651336E+02 -0.96434811948E+02  0.11464474128E+03  0.00000000000E+00 0. -1.
        -11    1    3    3    0    0 -0.40263044598E+02  0.39764303564E+03 -0.49735804988E+03  0.63804868649E+03  0.00000000000E+00 0.  1.
         22    1    1    2    0    0  0.12687263832E+02 -0.45317068697E+03  0.11893945049E+04  0.12728644572E+04  0.00000000000E+00 0.  1.
<mgrwt>
<rscale>  0 0.19360122E+04</rscale>
<asrwt>0</asrwt>
<pdfrwt beam="1">  1        2 0.20162766E+00 0.19360122E+04</pdfrwt>
<pdfrwt beam="2">  1       -2 0.10999663E+00 0.19360122E+04</pdfrwt>
<totfact> 0.10002512E+01</totfact>
</mgrwt>
</event>
<event>
 6    1  0.5040916E-004  0.1032350E+04  0.7818608E-02  0.9273758E-01
          2   -1    0    0  501    0  0.00000000000E+00  0.00000000000E+00  0.66180435951E+03  0.66180435951E+03  0.00000000000E+00 0.  1.
         -2   -1    0    0    0  501 -0.00000000000E+00 -0.00000000000E+00 -0.40259161139E+03  0.40259161139E+03  0.00000000000E+00 0. -1.
         23    2    1    2    0    0  0.72633338546E+01 -0.33922876691E+03  0.52638508117E+03  0.63252797271E+03  0.88777645117E+02 0.  0.
         11    1    3    3    0    0  0.47586215780E+02 -0.17483518795E+03  0.25982231655E+03  0.31676399267E+03  0.00000000000E+00 0. -1.
        -11    1    3    3    0    0 -0.40322881926E+02 -0.16439357896E+03  0.26656276461E+03  0.31576398004E+03  0.00000000000E+00 0.  1.
         22    1    1    2    0    0 -0.72633338546E+01  0.33922876691E+03 -0.26717233305E+03  0.43186799819E+03  0.00000000000E+00 0. -1.
<mgrwt>
<rscale>  0 0.10323505E+04</rscale>
<asrwt>0</asrwt>
<pdfrwt beam="1">  1        2 0.10181606E+00 0.10323505E+04</pdfrwt>
<pdfrwt beam="2">  1       -2 0.61937171E-01 0.10323505E+04</pdfrwt>
<totfact> 0.10614992E+02</totfact>
</mgrwt>
</event>
<event>
 6    1  0.5040916E-004  0.2018333E+04  0.7818608E-02  0.8598097E-01
         -2   -1    0    0    0  501 -0.00000000000E+00  0.00000000000E+00  0.60168002644E+03  0.60168002644E+03  0.00000000000E+00 0. -1.
          2   -1    0    0  501    0  0.00000000000E+00 -0.00000000000E+00 -0.16926220816E+04  0.16926220816E+04  0.00000000000E+00 0.  1.
         23    2    1    2    0    0  0.56739818182E+03 -0.28257402660E+02  0.39887336130E+03  0.69984635367E+03  0.89139120800E+02 0.  0.
         11    1    3    3    0    0  0.21651004745E+03  0.23636416504E+01  0.20311626887E+03  0.29688113131E+03  0.00000000000E+00 0.  1.
        -11    1    3    3    0    0  0.35088813437E+03 -0.30621044311E+02  0.19575709243E+03  0.40296522236E+03  0.00000000000E+00 0. -1.
         22    1    1    2    0    0 -0.56739818182E+03  0.28257402660E+02 -0.14898154164E+04  0.15944557544E+04  0.00000000000E+00 0.  1.
<mgrwt>
<rscale>  0 0.20183329E+04</rscale>
<asrwt>0</asrwt>
<pdfrwt beam="1">  1        2 0.26040340E+00 0.20183329E+04</pdfrwt>
<pdfrwt beam="2">  1       -2 0.92566159E-01 0.20183329E+04</pdfrwt>
<totfact> 0.90938632E+00</totfact>
</mgrwt>
</event>
<event>
 6    1  0.5040916E-004  0.1493148E+04  0.7818608E-02  0.8889022E-01
          2   -1    0    0  501    0  0.00000000000E+00  0.00000000000E+00  0.21915233062E+04  0.21915233062E+04  0.00000000000E+00 0.  1.
         -2   -1    0    0    0  501 -0.00000000000E+00 -0.00000000000E+00 -0.25433126910E+03  0.25433126910E+03  0.00000000000E+00 0. -1.
         23    2    1    2    0    0  0.49860079663E+03  0.46431301896E+03  0.14608415733E+04  0.16145308728E+04  0.91991863134E+02 0.  0.
         13    1    3    3    0    0  0.24325294353E+02  0.54315548264E+02  0.15378621790E+03  0.16490027151E+03  0.00000000000E+00 0. -1.
        -13    1    3    3    0    0  0.47427550228E+03  0.40999747069E+03  0.13070553554E+04  0.14496306013E+04  0.00000000000E+00 0.  1.
         22    1    1    2    0    0 -0.49860079663E+03 -0.46431301896E+03  0.47635046373E+03  0.83132370246E+03  0.00000000000E+00 0. -1.
<mgrwt>
<rscale>  0 0.14931482E+04</rscale>
<asrwt>0</asrwt>
<pdfrwt beam="1">  1        2 0.33715742E+00 0.14931482E+04</pdfrwt>
<pdfrwt beam="2">  1       -2 0.39127889E-01 0.14931482E+04</pdfrwt>
<totfact> 0.31198169E+01</totfact>
</mgrwt>
</event>
<event>
 6    1  0.5040916E-004  0.2166058E+04  0.7818608E-02  0.8532690E-01
          1   -1    0    0  501    0  0.00000000000E+00  0.00000000000E+00  0.94894964337E+03  0.94894964337E+03  0.00000000000E+00 0.  1.
         -1   -1    0    0    0  501 -0.00000000000E+00 -0.00000000000E+00 -0.12360532327E+04  0.12360532327E+04  0.00000000000E+00 0. -1.
         23    2    1    2    0    0 -0.93461468700E+03 -0.36074115193E+03 -0.55387403790E+03  0.11482747227E+04  0.90108806464E+02 0.  0.
         13    1    3    3    0    0 -0.72667817703E+03 -0.28899055070E+03 -0.38941596892E+03  0.87362549655E+03  0.00000000000E+00 0. -1.
        -13    1    3    3    0    0 -0.20793650996E+03 -0.71750601228E+02 -0.16445806898E+03  0.27464922611E+03  0.00000000000E+00 0.  1.
         22    1    1    2    0    0  0.93461468700E+03  0.36074115193E+03  0.26677044856E+03  0.10367281534E+04  0.00000000000E+00 0.  1.
<mgrwt>
<rscale>  0 0.21660584E+04</rscale>
<asrwt>0</asrwt>
<pdfrwt beam="1">  1        1 0.14599225E+00 0.21660584E+04</pdfrwt>
<pdfrwt beam="2">  1       -1 0.19016203E+00 0.21660584E+04</pdfrwt>
<totfact> 0.26761999E+00</totfact>
</mgrwt>
</event>
<event>
 6    1  0.5040916E-004  0.2579069E+04  0.7818608E-02  0.8375346E-01
         -2   -1    0    0    0  501 -0.00000000000E+00  0.00000000000E+00  0.78636229219E+03  0.78636229219E+03  0.00000000000E+00 0. -1.
          2   -1    0    0  501    0  0.00000000000E+00 -0.00000000000E+00 -0.21146735544E+04  0.21146735544E+04  0.00000000000E+00 0.  1.
         23    2    1    2    0    0  0.10759383511E+03 -0.12832089041E+04 -0.63550483028E+03  0.14387833797E+04  0.89608589752E+02 0.  0.
         11    1    3    3    0    0  0.96968021110E+02 -0.62141528268E+03 -0.31267350220E+03  0.70237060705E+03  0.00000000000E+00 0. -1.
        -11    1    3    3    0    0  0.10625814004E+02 -0.66179362141E+03 -0.32283132808E+03  0.73641277260E+03  0.00000000000E+00 0.  1.
         22    1    1    2    0    0 -0.10759383511E+03  0.12832089041E+04 -0.69280643190E+03  0.14622524669E+04  0.00000000000E+00 0. -1.
<mgrwt>
<rscale>  0 0.25790692E+04</rscale>
<asrwt>0</asrwt>
<pdfrwt beam="1">  1        2 0.32533439E+00 0.25790692E+04</pdfrwt>
<pdfrwt beam="2">  1       -2 0.12097881E+00 0.25790692E+04</pdfrwt>
<totfact> 0.26584572E+00</totfact>
</mgrwt>
</event>
<event>
 6    1  0.5040916E-004  0.1216860E+04  0.7818608E-02  0.9098225E-01
          2   -1    0    0  501    0  0.00000000000E+00  0.00000000000E+00  0.10299310400E+04  0.10299310400E+04  0.00000000000E+00 0. -1.
         -2   -1    0    0    0  501 -0.00000000000E+00 -0.00000000000E+00 -0.35942915015E+03  0.35942915015E+03  0.00000000000E+00 0.  1.
         23    2    1    2    0    0 -0.12918931423E+02 -0.11822724849E+03  0.10141763711E+04  0.10256890060E+04  0.96641835532E+02 0.  0.
         13    1    3    3    0    0 -0.48761208465E+02 -0.76139313886E+02  0.46287258564E+03  0.47162048419E+03  0.00000000000E+00 0. -1.
        -13    1    3    3    0    0  0.35842277042E+02 -0.42087934605E+02  0.55130378543E+03  0.55406852184E+03  0.00000000000E+00 0.  1.
         22    1    1    2    0    0  0.12918931423E+02  0.11822724849E+03 -0.34367448125E+03  0.36367118409E+03  0.00000000000E+00 0.  1.
<mgrwt>
<rscale>  0 0.12168603E+04</rscale>
<asrwt>0</asrwt>
<pdfrwt beam="1">  1        2 0.15845093E+00 0.12168603E+04</pdfrwt>
<pdfrwt beam="2">  1       -2 0.55296793E-01 0.12168603E+04</pdfrwt>
<totfact> 0.73035685E+01</totfact>
</mgrwt>
</event>
<event>
 6    1  0.5040916E-004  0.2384914E+04  0.7818608E-02  0.8445173E-01
          2   -1    0    0  501    0  0.00000000000E+00  0.00000000000E+00  0.15646620793E+04  0.15646620793E+04  0.00000000000E+00 0.  1.
         -2   -1    0    0    0  501 -0.00000000000E+00 -0.00000000000E+00 -0.90879321469E+03  0.90879321469E+03  0.00000000000E+00 0. -1.
         23    2    1    2    0    0  0.22564735660E+03  0.11478290985E+04  0.55890952766E+03  0.12996454790E+04  0.90940320814E+02 0.  0.
         11    1    3    3    0    0  0.13003735291E+03  0.80867130544E+03  0.35658641359E+03  0.89331565740E+03  0.00000000000E+00 0.  1.
        -11    1    3    3    0    0  0.95610003686E+02  0.33915779306E+03  0.20232311407E+03  0.40632982156E+03  0.00000000000E+00 0. -1.
         22    1    1    2    0    0 -0.22564735660E+03 -0.11478290985E+04  0.96959336972E+02  0.11738098151E+04  0.00000000000E+00 0.  1.
<mgrwt>
<rscale>  0 0.23849145E+04</rscale>
<asrwt>0</asrwt>
<pdfrwt beam="1">  1        2 0.24071724E+00 0.23849145E+04</pdfrwt>
<pdfrwt beam="2">  1       -2 0.13981434E+00 0.23849145E+04</pdfrwt>
<totfact> 0.37882209E+00</totfact>
</mgrwt>
</event>
<event>
 6    1  0.5040916E-004  0.3696424E+04  0.7818608E-02  0.8068755E-01
         -2   -1    0    0    0  501 -0.00000000000E+00  0.00000000000E+00  0.12320127246E+04  0.12320127246E+04  0.00000000000E+00 0. -1.
          2   -1    0    0  501    0  0.00000000000E+00 -0.00000000000E+00 -0.27726072165E+04  0.27726072165E+04  0.00000000000E+00 0.  1.
         23    2    1    2    0    0 -0.94949851184E+02  0.15485332530E+04 -0.18567949704E+04  0.24212837630E+04  0.89200833917E+02 0.  0.
         13    1    3    3    0    0 -0.73881721826E+02  0.73727840142E+03 -0.93948786787E+03  0.11965263908E+04  0.00000000000E+00 0.  1.
        -13    1    3    3    0    0 -0.21068129358E+02  0.81125485161E+03 -0.91730710257E+03  0.12247573722E+04  0.00000000000E+00 0. -1.
         22    1    1    2    0    0  0.94949851184E+02 -0.15485332530E+04  0.31620047856E+03  0.15833361780E+04  0.00000000000E+00 0. -1.
<mgrwt>
<rscale>  0 0.36964239E+04</rscale>
<asrwt>0</asrwt>
<pdfrwt beam="1">  1        2 0.42655495E+00 0.36964239E+04</pdfrwt>
<pdfrwt beam="2">  1       -2 0.18954042E+00 0.36964239E+04</pdfrwt>
<totfact> 0.30314509E-01</totfact>
</mgrwt>
</event>
<event>
 6    1  0.5040916E-004  0.5834438E+04  0.7818608E-02  0.7711275E-01
         -2   -1    0    0    0  501 -0.00000000000E+00  0.00000000000E+00  0.22841786381E+04  0.22841786381E+04  0.00000000000E+00 0. -1.
          2   -1    0    0  501    0  0.00000000000E+00 -0.00000000000E+00 -0.37257008027E+04  0.37257008027E+04  0.00000000000E+00 0.  1.
         23    2    1    2    0    0 -0.21515509514E+04 -0.11880730424E+04  0.89644244855E+03  0.26177167704E+04  0.90238438332E+02 0.  0.
         13    1    3    3    0    0 -0.16485164839E+04 -0.94891943651E+03  0.71124407969E+03  0.20307444043E+04  0.00000000000E+00 0.  1.
        -13    1    3    3    0    0 -0.50303446751E+03 -0.23915360585E+03  0.18519836887E+03  0.58697236607E+03  0.00000000000E+00 0. -1.
         22    1    1    2    0    0  0.21515509514E+04  0.11880730424E+04 -0.23379646131E+04  0.33921626704E+04  0.00000000000E+00 0.  1.
<mgrwt>
<rscale>  0 0.58344378E+04</rscale>
<asrwt>0</asrwt>
<pdfrwt beam="1">  1        2 0.57318473E+00 0.58344378E+04</pdfrwt>
<pdfrwt beam="2">  1       -2 0.35141210E+00 0.58344378E+04</pdfrwt>
<totfact> 0.57864229E-03</totfact>
</mgrwt>
</event>
<event>
 6    1  0.5040916E-004  0.1717829E+04  0.7818608E-02  0.8751261E-01
         -2   -1    0    0    0  501 -0.00000000000E+00  0.00000000000E+00  0.77946407516E+03  0.77946407516E+03  0.00000000000E+00 0. -1.
          2   -1    0    0  501    0  0.00000000000E+00 -0.00000000000E+00 -0.94646321088E+03  0.94646321088E+03  0.00000000000E+00 0.  1.
         23    2    1    2    0    0  0.60970880899E+03 -0.29110897603E+02 -0.68741074753E+03  0.92379230873E+03  0.90919842358E+02 0.  0.
         13    1    3    3    0    0  0.60359156193E+02 -0.19715268645E+02 -0.10812109782E+03  0.12538776395E+03  0.00000000000E+00 0. -1.
        -13    1    3    3    0    0  0.54934965280E+03 -0.93956289584E+01 -0.57928964971E+03  0.79840454479E+03  0.00000000000E+00 0.  1.
         22    1    1    2    0    0 -0.60970880899E+03  0.29110897603E+02  0.52041161181E+03  0.80213497731E+03  0.00000000000E+00 0. -1.
<mgrwt>
<rscale>  0 0.17178289E+04</rscale>
<asrwt>0</asrwt>
<pdfrwt beam="1">  1        2 0.14560972E+00 0.17178289E+04</pdfrwt>
<pdfrwt beam="2">  1       -2 0.11991755E+00 0.17178289E+04</pdfrwt>
<totfact> 0.13796885E+01</totfact>
</mgrwt>
</event>
<event>
 6    1  0.5040916E-004  0.1673227E+04  0.7818608E-02  0.8776783E-01
         -2   -1    0    0    0  501 -0.00000000000E+00  0.00000000000E+00  0.36018751057E+03  0.36018751057E+03  0.00000000000E+00 0. -1.
          2   -1    0    0  501    0  0.00000000000E+00 -0.00000000000E+00 -0.19432170209E+04  0.19432170209E+04  0.00000000000E+00 0.  1.
         23    2    1    2    0    0  0.30007323081E+03 -0.32106034887E+03 -0.17698219929E+04  0.18258952404E+04  0.92194635928E+02 0.  0.
         11    1    3    3    0    0  0.18755569432E+03 -0.22415482315E+03 -0.99793250090E+03  0.10398518162E+04  0.00000000000E+00 0. -1.
        -11    1    3    3    0    0  0.11251753648E+03 -0.96905525718E+02 -0.77188949202E+03  0.78604342426E+03  0.00000000000E+00 0.  1.
         22    1    1    2    0    0 -0.30007323081E+03  0.32106034887E+03  0.18679248261E+03  0.47750929103E+03  0.00000000000E+00 0. -1.
<mgrwt>
<rscale>  0 0.16732274E+04</rscale>
<asrwt>0</asrwt>
<pdfrwt beam="1">  1        2 0.29895647E+00 0.16732274E+04</pdfrwt>
<pdfrwt beam="2">  1       -2 0.55413463E-01 0.16732274E+04</pdfrwt>
<totfact> 0.20971823E+01</totfact>
</mgrwt>
</event>
<event>
 6    1  0.5040916E-004  0.2080590E+04  0.7818608E-02  0.8569842E-01
         -2   -1    0    0    0  501 -0.00000000000E+00  0.00000000000E+00  0.10040255842E+04  0.10040255842E+04  0.00000000000E+00 0. -1.
          2   -1    0    0  501    0  0.00000000000E+00 -0.00000000000E+00 -0.10778742627E+04  0.10778742627E+04  0.00000000000E+00 0.  1.
         23    2    1    2    0    0 -0.19426786374E+03  0.10136823425E+04 -0.15060688277E+03  0.10469197909E+04  0.89814927205E+02 0.  0.
         13    1    3    3    0    0 -0.36394282821E+02  0.40932293390E+03 -0.74924459839E+02  0.41771220083E+03  0.00000000000E+00 0. -1.
        -13    1    3    3    0    0 -0.15787358092E+03  0.60435940859E+03 -0.75682422929E+02  0.62920759010E+03  0.00000000000E+00 0.  1.
         22    1    1    2    0    0  0.19426786374E+03 -0.10136823425E+04  0.76758204242E+02  0.10349800560E+04  0.00000000000E+00 0. -1.
<mgrwt>
<rscale>  0 0.20805897E+04</rscale>
<asrwt>0</asrwt>
<pdfrwt beam="1">  1        2 0.16582681E+00 0.20805897E+04</pdfrwt>
<pdfrwt beam="2">  1       -2 0.15446547E+00 0.20805897E+04</pdfrwt>
<totfact> 0.57504204E+00</totfact>
</mgrwt>
</event>
<event>
 6    1  0.5040916E-004  0.8152464E+03  0.7818608E-02  0.9538207E-01
          2   -1    0    0  501    0  0.00000000000E+00  0.00000000000E+00  0.12365877190E+04  0.12365877190E+04  0.00000000000E+00 0.  1.
         -2   -1    0    0    0  501 -0.00000000000E+00 -0.00000000000E+00 -0.13436707054E+03  0.13436707054E+03  0.00000000000E+00 0. -1.
         23    2    1    2    0    0  0.10122276341E+03  0.36464440816E+03  0.78662943739E+03  0.87819784667E+03  0.96093672515E+02 0.  0.
         13    1    3    3    0    0  0.61141043184E+02  0.79557442635E+02  0.16449400671E+03  0.19268080362E+03  0.00000000000E+00 0. -1.
        -13    1    3    3    0    0  0.40081720231E+02  0.28508696553E+03  0.62213543068E+03  0.68551704305E+03  0.00000000000E+00 0.  1.
         22    1    1    2    0    0 -0.10122276341E+03 -0.36464440816E+03  0.31559121108E+03  0.49275694287E+03  0.00000000000E+00 0. -1.
<mgrwt>
<rscale>  0 0.81524639E+03</rscale>
<asrwt>0</asrwt>
<pdfrwt beam="1">  1        2 0.19024426E+00 0.81524639E+03</pdfrwt>
<pdfrwt beam="2">  1       -2 0.20671858E-01 0.81524639E+03</pdfrwt>
<totfact> 0.36476811E+02</totfact>
</mgrwt>
</event>
<event>
 6    1  0.5040916E-004  0.1496099E+04  0.7818608E-02  0.8887051E-01
         -2   -1    0    0    0  501 -0.00000000000E+00  0.00000000000E+00  0.24610198216E+03  0.24610198216E+03  0.00000000000E+00 0. -1.
          2   -1    0    0  501    0  0.00000000000E+00 -0.00000000000E+00 -0.22737647072E+04  0.22737647072E+04  0.00000000000E+00 0.  1.
         23    2    1    2    0    0  0.31217412007E+02 -0.73966252470E+03 -0.87187124559E+03  0.11473037140E+04  0.89839668819E+02 0.  0.
         11    1    3    3    0    0  0.18964595793E+02 -0.47160766878E+03 -0.48765218802E+03  0.67865904962E+03  0.00000000000E+00 0.  1.
        -11    1    3    3    0    0  0.12252816214E+02 -0.26805485592E+03 -0.38421905757E+03  0.46864466442E+03  0.00000000000E+00 0. -1.
         22    1    1    2    0    0 -0.31217412007E+02  0.73966252470E+03 -0.11557914794E+04  0.13725629753E+04  0.00000000000E+00 0. -1.
<mgrwt>
<rscale>  0 0.14960989E+04</rscale>
<asrwt>0</asrwt>
<pdfrwt beam="1">  1        2 0.34980996E+00 0.14960989E+04</pdfrwt>
<pdfrwt beam="2">  1       -2 0.37861843E-01 0.14960989E+04</pdfrwt>
<totfact> 0.29894434E+01</totfact>
</mgrwt>
</event>
<event>
 6    1  0.5040916E-004  0.3429756E+04  0.7818608E-02  0.8130642E-01
         -2   -1    0    0    0  501 -0.00000000000E+00  0.00000000000E+00  0.96043425521E+03  0.96043425521E+03  0.00000000000E+00 0. -1.
          2   -1    0    0  501    0  0.00000000000E+00 -0.00000000000E+00 -0.30619547027E+04  0.30619547027E+04  0.00000000000E+00 0.  1.
         23    2    1    2    0    0  0.96519853136E+03  0.49044987858E+03 -0.26093850635E+04  0.28265312087E+04  0.90768802236E+02 0.  0.
         13    1    3    3    0    0  0.89362629718E+03  0.46896065167E+03 -0.24733831290E+04  0.26713509981E+04  0.00000000000E+00 0.  1.
        -13    1    3    3    0    0  0.71572234183E+02  0.21489226918E+02 -0.13600193450E+03  0.15518021062E+03  0.00000000000E+00 0. -1.
         22    1    1    2    0    0 -0.96519853136E+03 -0.49044987858E+03  0.50786461600E+03  0.11958577493E+04  0.00000000000E+00 0. -1.
<mgrwt>
<rscale>  0 0.34297558E+04</rscale>
<asrwt>0</asrwt>
<pdfrwt beam="1">  1        2 0.47106996E+00 0.34297558E+04</pdfrwt>
<pdfrwt beam="2">  1       -2 0.14775911E+00 0.34297558E+04</pdfrwt>
<totfact> 0.40970221E-01</totfact>
</mgrwt>
</event>
<event>
 6    1  0.5040916E-004  0.3890873E+04  0.7818608E-02  0.8026930E-01
          2   -1    0    0  501    0  0.00000000000E+00  0.00000000000E+00  0.16337115113E+04  0.16337115113E+04  0.00000000000E+00 0.  1.
         -2   -1    0    0    0  501 -0.00000000000E+00 -0.00000000000E+00 -0.23166407536E+04  0.23166407536E+04  0.00000000000E+00 0. -1.
         23    2    1    2    0    0 -0.15437390838E+04 -0.11257753229E+03  0.85297843043E+03  0.17697981062E+04  0.93856669351E+02 0.  0.
         11    1    3    3    0    0 -0.10483716783E+04 -0.78943632367E+02  0.62874092451E+03  0.12250022135E+04  0.00000000000E+00 0. -1.
        -11    1    3    3    0    0 -0.49536740547E+03 -0.33633899920E+02  0.22423750593E+03  0.54479589269E+03  0.00000000000E+00 0.  1.
         22    1    1    2    0    0  0.15437390838E+04  0.11257753229E+03 -0.15359076727E+04  0.21805541586E+04  0.00000000000E+00 0. -1.
<mgrwt>
<rscale>  0 0.38908727E+04</rscale>
<asrwt>0</asrwt>
<pdfrwt beam="1">  1        2 0.25134023E+00 0.38908727E+04</pdfrwt>
<pdfrwt beam="2">  1       -2 0.35640627E+00 0.38908727E+04</pdfrwt>
<totfact> 0.12040405E-01</totfact>
</mgrwt>
</event>
<event>
 6    1  0.5040916E-004  0.2896587E+04  0.7818608E-02  0.8273894E-01
         -2   -1    0    0    0  501 -0.00000000000E+00  0.00000000000E+00  0.12188045960E+04  0.12188045960E+04  0.00000000000E+00 0. -1.
          2   -1    0    0  501    0  0.00000000000E+00 -0.00000000000E+00 -0.17209933519E+04  0.17209933519E+04  0.00000000000E+00 0.  1.
         23    2    1    2    0    0  0.26227959845E+03  0.44636229278E+03  0.11198648330E+04  0.12371271843E+04  0.91414121319E+02 0.  0.
         11    1    3    3    0    0  0.10259789452E+03  0.13503771165E+03  0.28089267138E+03  0.32811919231E+03  0.00000000000E+00 0.  1.
        -11    1    3    3    0    0  0.15968170392E+03  0.31132458113E+03  0.83897216166E+03  0.90900799195E+03  0.00000000000E+00 0. -1.
         22    1    1    2    0    0 -0.26227959845E+03 -0.44636229278E+03 -0.16220535889E+04  0.17026707637E+04  0.00000000000E+00 0.  1.
<mgrwt>
<rscale>  0 0.28965874E+04</rscale>
<asrwt>0</asrwt>
<pdfrwt beam="1">  1        2 0.26476821E+00 0.28965874E+04</pdfrwt>
<pdfrwt beam="2">  1       -2 0.18750840E+00 0.28965874E+04</pdfrwt>
<totfact> 0.13279975E+00</totfact>
</mgrwt>
</event>
<event>
 6    1  0.5040916E-004  0.9777147E+03  0.7818608E-02  0.9333330E-01
         -4   -1    0    0    0  501 -0.00000000000E+00  0.00000000000E+00  0.32533580151E+03  0.32533580151E+03  0.00000000000E+00 0. -1.
          4   -1    0    0  501    0  0.00000000000E+00 -0.00000000000E+00 -0.73456870553E+03  0.73456870553E+03  0.00000000000E+00 0.  1.
         23    2    1    2    0    0 -0.45215539212E+03  0.16442748768E+03 -0.14579595908E+03  0.51137928311E+03  0.93655817667E+02 0.  0.
         11    1    3    3    0    0 -0.14116044367E+03  0.98074295473E+02 -0.59349000989E+02  0.18184373018E+03  0.00000000000E+00 0. -1.
        -11    1    3    3    0    0 -0.31099494846E+03  0.66353192206E+02 -0.86446958089E+02  0.32953555293E+03  0.00000000000E+00 0.  1.
         22    1    1    2    0    0  0.45215539212E+03 -0.16442748768E+03 -0.26343694494E+03  0.54852522393E+03  0.00000000000E+00 0.  1.
<mgrwt>
<rscale>  0 0.97771468E+03</rscale>
<asrwt>0</asrwt>
<pdfrwt beam="1">  1        4 0.11301057E+00 0.97771468E+03</pdfrwt>
<pdfrwt beam="2">  1       -4 0.50051662E-01 0.97771468E+03</pdfrwt>
<totfact> 0.46931790E+00</totfact>
</mgrwt>
</event>
<event>
 6    1  0.5040916E-004  0.1570588E+04  0.7818608E-02  0.8838823E-01
         -2   -1    0    0    0  501 -0.00000000000E+00  0.00000000000E+00  0.28447882201E+03  0.28447882201E+03  0.00000000000E+00 0. -1.
          2   -1    0    0  501    0  0.00000000000E+00 -0.00000000000E+00 -0.21677772647E+04  0.21677772647E+04  0.00000000000E+00 0.  1.
         23    2    1    2    0    0  0.47488409536E+03  0.10635908606E+03 -0.19018410447E+04  0.19652540464E+04  0.91634864228E+02 0.  0.
         11    1    3    3    0    0  0.37752155169E+03  0.11976364626E+03 -0.14755781613E+04  0.15278078292E+04  0.00000000000E+00 0. -1.
        -11    1    3    3    0    0  0.97362543675E+02 -0.13404560196E+02 -0.42626288341E+03  0.43744621717E+03  0.00000000000E+00 0.  1.
         22    1    1    2    0    0 -0.47488409536E+03 -0.10635908606E+03  0.18542601975E+02  0.48700204035E+03  0.00000000000E+00 0. -1.
<mgrwt>
<rscale>  0 0.15705881E+04</rscale>
<asrwt>0</asrwt>
<pdfrwt beam="1">  1        2 0.33350419E+00 0.15705881E+04</pdfrwt>
<pdfrwt beam="2">  1       -2 0.43765973E-01 0.15705881E+04</pdfrwt>
<totfact> 0.25635097E+01</totfact>
</mgrwt>
</event>
<event>
 6    1  0.5040916E-004  0.1123792E+04  0.7818608E-02  0.9182308E-01
          2   -1    0    0  501    0  0.00000000000E+00  0.00000000000E+00  0.12863144535E+04  0.12863144535E+04  0.00000000000E+00 0.  1.
         -2   -1    0    0    0  501 -0.00000000000E+00 -0.00000000000E+00 -0.24545111517E+03  0.24545111517E+03  0.00000000000E+00 0. -1.
         23    2    1    2    0    0 -0.50922828500E+03  0.15540422137E+03  0.29453669614E+03  0.61499549112E+03  0.89463235234E+02 0.  0.
         11    1    3    3    0    0 -0.34498849121E+03  0.76903136187E+02  0.15655926286E+03  0.38657722930E+03  0.00000000000E+00 0.  1.
        -11    1    3    3    0    0 -0.16423979379E+03  0.78501085180E+02  0.13797743328E+03  0.22841826182E+03  0.00000000000E+00 0. -1.
         22    1    1    2    0    0  0.50922828500E+03 -0.15540422137E+03  0.74632664217E+03  0.91677007754E+03  0.00000000000E+00 0.  1.
<mgrwt>
<rscale>  0 0.11237924E+04</rscale>
<asrwt>0</asrwt>
<pdfrwt beam="1">  1        2 0.19789453E+00 0.11237924E+04</pdfrwt>
<pdfrwt beam="2">  1       -2 0.37761711E-01 0.11237924E+04</pdfrwt>
<totfact> 0.11038326E+02</totfact>
</mgrwt>
</event>
<event>
 6    1  0.5040916E-004  0.2605285E+04  0.7818608E-02  0.8366408E-01
          2   -1    0    0  501    0  0.00000000000E+00  0.00000000000E+00  0.21381398815E+04  0.21381398815E+04  0.00000000000E+00 0.  1.
         -2   -1    0    0    0  501 -0.00000000000E+00 -0.00000000000E+00 -0.79362316941E+03  0.79362316941E+03  0.00000000000E+00 0. -1.
         23    2    1    2    0    0  0.13114349217E+03 -0.70772516671E+03 -0.54649937490E+03  0.90839571689E+03  0.91911286414E+02 0.  0.
         11    1    3    3    0    0  0.66307544076E+02 -0.20265320217E+03 -0.20103233193E+03  0.29305120582E+03  0.00000000000E+00 0.  1.
        -11    1    3    3    0    0  0.64835948099E+02 -0.50507196455E+03 -0.34546704297E+03  0.61534451108E+03  0.00000000000E+00 0. -1.
         22    1    1    2    0    0 -0.13114349217E+03  0.70772516671E+03  0.18910160870E+04  0.20233673340E+04  0.00000000000E+00 0.  1.
<mgrwt>
<rscale>  0 0.26052849E+04</rscale>
<asrwt>0</asrwt>
<pdfrwt beam="1">  1        2 0.32894460E+00 0.26052849E+04</pdfrwt>
<pdfrwt beam="2">  1       -2 0.12209587E+00 0.26052849E+04</pdfrwt>
<totfact> 0.25152486E+00</totfact>
</mgrwt>
</event>
<event>
 6    1  0.5040916E-004  0.7444261E+03  0.7818608E-02  0.9644136E-01
         -2   -1    0    0    0  501 -0.00000000000E+00  0.00000000000E+00  0.13146534841E+04  0.13146534841E+04  0.00000000000E+00 0. -1.
          2   -1    0    0  501    0  0.00000000000E+00 -0.00000000000E+00 -0.10538333168E+03  0.10538333168E+03  0.00000000000E+00 0.  1.
         23    2    1    2    0    0  0.22095417938E+03 -0.17752013227E+03  0.17051685617E+03  0.34330910776E+03  0.91929312458E+02 0.  0.
         13    1    3    3    0    0  0.11750716746E+03 -0.15070593722E+03  0.10934733826E+03  0.22017505377E+03  0.00000000000E+00 0.  1.
        -13    1    3    3    0    0  0.10344701192E+03 -0.26814195043E+02  0.61169517910E+02  0.12313405399E+03  0.00000000000E+00 0. -1.
         22    1    1    2    0    0 -0.22095417938E+03  0.17752013227E+03  0.10387532963E+04  0.10767277080E+04  0.00000000000E+00 0. -1.
<mgrwt>
<rscale>  0 0.74442613E+03</rscale>
<asrwt>0</asrwt>
<pdfrwt beam="1">  1        2 0.16212821E-01 0.74442613E+03</pdfrwt>
<pdfrwt beam="2">  1       -2 0.20225437E+00 0.74442613E+03</pdfrwt>
<totfact> 0.47755932E+01</totfact>
</mgrwt>
</event>
<event>
 6    1  0.5040916E-004  0.1755039E+04  0.7818608E-02  0.8730582E-01
          2   -1    0    0  501    0  0.00000000000E+00  0.00000000000E+00  0.22898140375E+04  0.22898140375E+04  0.00000000000E+00 0.  1.
         -2   -1    0    0    0  501 -0.00000000000E+00 -0.00000000000E+00 -0.33628939673E+03  0.33628939673E+03  0.00000000000E+00 0. -1.
         23    2    1    2    0    0 -0.53150530232E+03  0.16689500788E+03 -0.30747098378E+02  0.56511188528E+03  0.89745355153E+02 0.  0.
         13    1    3    3    0    0 -0.32412484454E+03  0.14302821198E+03 -0.37461489236E+02  0.35625461042E+03  0.00000000000E+00 0. -1.
        -13    1    3    3    0    0 -0.20738045778E+03  0.23866795905E+02  0.67143908581E+01  0.20885727486E+03  0.00000000000E+00 0.  1.
         22    1    1    2    0    0  0.53150530232E+03 -0.16689500788E+03  0.19842717392E+04  0.20609915490E+04  0.00000000000E+00 0.  1.
<mgrwt>
<rscale>  0 0.17550387E+04</rscale>
<asrwt>0</asrwt>
<pdfrwt beam="1">  1        2 0.35227907E+00 0.17550387E+04</pdfrwt>
<pdfrwt beam="2">  1       -2 0.51736832E-01 0.17550387E+04</pdfrwt>
<totfact> 0.15368399E+01</totfact>
</mgrwt>
</event>
<event>
 6    1  0.5040916E-004  0.9273048E+03  0.7818608E-02  0.9392078E-01
         -2   -1    0    0    0  501 -0.00000000000E+00  0.00000000000E+00  0.24201749236E+03  0.24201749236E+03  0.00000000000E+00 0. -1.
          2   -1    0    0  501    0  0.00000000000E+00 -0.00000000000E+00 -0.88825629794E+03  0.88825629794E+03  0.00000000000E+00 0.  1.
         23    2    1    2    0    0 -0.37455360020E+03 -0.26062244171E+03 -0.26808764709E+03  0.53764173310E+03  0.94726923850E+02 0.  0.
         11    1    3    3    0    0 -0.24570411535E+03 -0.21712172688E+03 -0.16548687028E+03  0.36728498584E+03  0.00000000000E+00 0. -1.
        -11    1    3    3    0    0 -0.12884948485E+03 -0.43500714829E+02 -0.10260077681E+03  0.17035674727E+03  0.00000000000E+00 0.  1.
         22    1    1    2    0    0  0.37455360020E+03  0.26062244171E+03 -0.37815115848E+03  0.59263205719E+03  0.00000000000E+00 0. -1.
<mgrwt>
<rscale>  0 0.92730483E+03</rscale>
<asrwt>0</asrwt>
<pdfrwt beam="1">  1        2 0.13665482E+00 0.92730483E+03</pdfrwt>
<pdfrwt beam="2">  1       -2 0.37233460E-01 0.92730483E+03</pdfrwt>
<totfact> 0.20325009E+02</totfact>
</mgrwt>
</event>
<event>
 6    1  0.5040916E-004  0.1707829E+04  0.7818608E-02  0.8756912E-01
          1   -1    0    0  501    0  0.00000000000E+00  0.00000000000E+00  0.23168807983E+04  0.23168807983E+04  0.00000000000E+00 0.  1.
         -1   -1    0    0    0  501 -0.00000000000E+00 -0.00000000000E+00 -0.31472053146E+03  0.31472053146E+03  0.00000000000E+00 0. -1.
         23    2    1    2    0    0  0.17724521229E+03 -0.76125471882E+03  0.48352717018E+03  0.92362852713E+03  0.91468681089E+02 0.  0.
         13    1    3    3    0    0  0.10258005229E+03 -0.50526107278E+03  0.26985531649E+03  0.58192208296E+03  0.00000000000E+00 0. -1.
        -13    1    3    3    0    0  0.74665159997E+02 -0.25599364604E+03  0.21367185369E+03  0.34170644417E+03  0.00000000000E+00 0.  1.
         22    1    1    2    0    0 -0.17724521229E+03  0.76125471882E+03  0.15186330966E+04  0.17079728026E+04  0.00000000000E+00 0.  1.
<mgrwt>
<rscale>  0 0.17078290E+04</rscale>
<asrwt>0</asrwt>
<pdfrwt beam="1">  1        1 0.35644319E+00 0.17078290E+04</pdfrwt>
<pdfrwt beam="2">  1       -1 0.48418545E-01 0.17078290E+04</pdfrwt>
<totfact> 0.73600489E+00</totfact>
</mgrwt>
</event>
<event>
 6    1  0.5040916E-004  0.2554040E+04  0.7818608E-02  0.8383983E-01
          2   -1    0    0  501    0  0.00000000000E+00  0.00000000000E+00  0.22995916645E+04  0.22995916645E+04  0.00000000000E+00 0.  1.
         -2   -1    0    0    0  501 -0.00000000000E+00 -0.00000000000E+00 -0.70916052949E+03  0.70916052949E+03  0.00000000000E+00 0. -1.
         23    2    1    2    0    0  0.12397410536E+04  0.18114806327E+03  0.51535594367E+03  0.13578254337E+04  0.91245048956E+02 0.  0.
         13    1    3    3    0    0  0.30597455323E+03  0.22780121574E+02  0.16192424453E+03  0.34692769006E+03  0.00000000000E+00 0.  1.
        -13    1    3    3    0    0  0.93376650037E+03  0.15836794170E+03  0.35343169913E+03  0.10108977437E+04  0.00000000000E+00 0. -1.
         22    1    1    2    0    0 -0.12397410536E+04 -0.18114806327E+03  0.10750751914E+04  0.16509267603E+04  0.00000000000E+00 0. -1.
<mgrwt>
<rscale>  0 0.25540397E+04</rscale>
<asrwt>0</asrwt>
<pdfrwt beam="1">  1        2 0.35378333E+00 0.25540397E+04</pdfrwt>
<pdfrwt beam="2">  1       -2 0.10910162E+00 0.25540397E+04</pdfrwt>
<totfact> 0.26988874E+00</totfact>
</mgrwt>
</event>
<event>
 6    1  0.5040916E-004  0.3005121E+04  0.7818608E-02  0.8242270E-01
         -2   -1    0    0    0  501 -0.00000000000E+00  0.00000000000E+00  0.70315821204E+03  0.70315821204E+03  0.00000000000E+00 0. -1.
          2   -1    0    0  501    0  0.00000000000E+00 -0.00000000000E+00 -0.32107827235E+04  0.32107827235E+04  0.00000000000E+00 0.  1.
         23    2    1    2    0    0 -0.73300671940E+03  0.11714926507E+04 -0.20181496070E+04  0.24478987931E+04  0.97912121080E+02 0.  0.
         13    1    3    3    0    0 -0.42856920508E+03  0.59963790328E+03 -0.11065803362E+04  0.13295703137E+04  0.00000000000E+00 0.  1.
        -13    1    3    3    0    0 -0.30443751432E+03  0.57185474744E+03 -0.91156927085E+03  0.11183284794E+04  0.00000000000E+00 0. -1.
         22    1    1    2    0    0  0.73300671940E+03 -0.11714926507E+04 -0.48947490446E+03  0.14660421425E+04  0.00000000000E+00 0.  1.
<mgrwt>
<rscale>  0 0.30051211E+04</rscale>
<asrwt>0</asrwt>
<pdfrwt beam="1">  1        2 0.49396657E+00 0.30051211E+04</pdfrwt>
<pdfrwt beam="2">  1       -2 0.10817819E+00 0.30051211E+04</pdfrwt>
<totfact> 0.74631444E-01</totfact>
</mgrwt>
</event>
<event>
 6    1  0.5040916E-004  0.2320679E+04  0.7818608E-02  0.8469812E-01
          2   -1    0    0  501    0  0.00000000000E+00  0.00000000000E+00  0.19711468444E+04  0.19711468444E+04  0.00000000000E+00 0. -1.
         -2   -1    0    0    0  501 -0.00000000000E+00 -0.00000000000E+00 -0.68304809070E+03  0.68304809070E+03  0.00000000000E+00 0.  1.
         23    2    1    2    0    0  0.48143791236E+03  0.10055759082E+04  0.10054959921E+04  0.15040516000E+04  0.90463554776E+02 0.  0.
         13    1    3    3    0    0  0.31997355853E+03  0.72952919967E+03  0.75862947422E+03  0.11000520944E+04  0.00000000000E+00 0. -1.
        -13    1    3    3    0    0  0.16146435383E+03  0.27604670849E+03  0.24686651789E+03  0.40399950555E+03  0.00000000000E+00 0.  1.
         22    1    1    2    0    0 -0.48143791236E+03 -0.10055759082E+04  0.28260276163E+03  0.11501433352E+04  0.00000000000E+00 0.  1.
<mgrwt>
<rscale>  0 0.23206793E+04</rscale>
<asrwt>0</asrwt>
<pdfrwt beam="1">  1        2 0.30325336E+00 0.23206793E+04</pdfrwt>
<pdfrwt beam="2">  1       -2 0.10508432E+00 0.23206793E+04</pdfrwt>
<totfact> 0.46033971E+00</totfact>
</mgrwt>
</event>
<event>
 6    1  0.5040916E-004  0.2671612E+04  0.7818608E-02  0.8344275E-01
         -2   -1    0    0    0  501 -0.00000000000E+00  0.00000000000E+00  0.10176764923E+04  0.10176764923E+04  0.00000000000E+00 0.  1.
          2   -1    0    0  501    0  0.00000000000E+00 -0.00000000000E+00 -0.17533837964E+04  0.17533837964E+04  0.00000000000E+00 0. -1.
         23    2    1    2    0    0  0.71437306686E+03 -0.10703923366E+04 -0.73378023276E+03  0.14841755439E+04  0.90966928741E+02 0.  0.
         13    1    3    3    0    0  0.48636371637E+03 -0.80094258875E+03 -0.53994905155E+03  0.10814821651E+04  0.00000000000E+00 0. -1.
        -13    1    3    3    0    0  0.22800935049E+03 -0.26944974785E+03 -0.19383118121E+03  0.40269337881E+03  0.00000000000E+00 0.  1.
         22    1    1    2    0    0 -0.71437306686E+03  0.10703923366E+04 -0.19270714311E+01  0.12868847448E+04  0.00000000000E+00 0.  1.
<mgrwt>
<rscale>  0 0.26716119E+04</rscale>
<asrwt>0</asrwt>
<pdfrwt beam="1">  1        2 0.26975135E+00 0.26716119E+04</pdfrwt>
<pdfrwt beam="2">  1       -2 0.15656561E+00 0.26716119E+04</pdfrwt>
<totfact> 0.21521342E+00</totfact>
</mgrwt>
</event>
<event>
 6    1  0.5040916E-004  0.1511574E+04  0.7818608E-02  0.8876793E-01
         -1   -1    0    0    0  501 -0.00000000000E+00  0.00000000000E+00  0.49755572065E+03  0.49755572065E+03  0.00000000000E+00 0. -1.
          1   -1    0    0  501    0  0.00000000000E+00 -0.00000000000E+00 -0.11480401485E+04  0.11480401485E+04  0.00000000000E+00 0.  1.
         23    2    1    2    0    0  0.11238067397E+03 -0.59452936200E+03 -0.81513312831E+03  0.10185362446E+04  0.82942669803E+02 0.  0.
         13    1    3    3    0    0  0.59506778270E+02 -0.13786606575E+03 -0.17822766704E+03  0.23305194709E+03  0.00000000000E+00 0. -1.
        -13    1    3    3    0    0  0.52873895701E+02 -0.45666329625E+03 -0.63690546127E+03  0.78548429747E+03  0.00000000000E+00 0.  1.
         22    1    1    2    0    0 -0.11238067397E+03  0.59452936200E+03  0.16464870049E+03  0.62705962455E+03  0.00000000000E+00 0. -1.
<mgrwt>
<rscale>  0 0.15115739E+04</rscale>
<asrwt>0</asrwt>
<pdfrwt beam="1">  1        1 0.17662156E+00 0.15115739E+04</pdfrwt>
<pdfrwt beam="2">  1       -1 0.76547033E-01 0.15115739E+04</pdfrwt>
<totfact> 0.19322505E+01</totfact>
</mgrwt>
</event>
<event>
 6    1  0.5040916E-004  0.5928436E+04  0.7818608E-02  0.7699339E-01
         -2   -1    0    0    0  501 -0.00000000000E+00  0.00000000000E+00  0.22064781028E+04  0.22064781028E+04  0.00000000000E+00 0. -1.
          2   -1    0    0  501    0  0.00000000000E+00 -0.00000000000E+00 -0.39821773972E+04  0.39821773972E+04  0.00000000000E+00 0.  1.
         23    2    1    2    0    0 -0.14145909733E+04  0.25972109297E+04 -0.10858172425E+04  0.31517970113E+04  0.90846470436E+02 0.  0.
         11    1    3    3    0    0 -0.79449154598E+03  0.14147989242E+04 -0.63828150969E+03  0.17436387522E+04  0.00000000000E+00 0.  1.
        -11    1    3    3    0    0 -0.62009942734E+03  0.11824120055E+04 -0.44753573276E+03  0.14081582591E+04  0.00000000000E+00 0. -1.
         22    1    1    2    0    0  0.14145909733E+04 -0.25972109297E+04 -0.68988205195E+03  0.30368584888E+04  0.00000000000E+00 0. -1.
<mgrwt>
<rscale>  0 0.59284356E+04</rscale>
<asrwt>0</asrwt>
<pdfrwt beam="1">  1        2 0.61264267E+00 0.59284356E+04</pdfrwt>
<pdfrwt beam="2">  1       -2 0.33945817E+00 0.59284356E+04</pdfrwt>
<totfact> 0.43153291E-03</totfact>
</mgrwt>
</event>
<event>
 6    1  0.5040916E-004  0.1936545E+04  0.7818608E-02  0.8636877E-01
         -2   -1    0    0    0  501 -0.00000000000E+00  0.00000000000E+00  0.57784832368E+03  0.57784832368E+03  0.00000000000E+00 0. -1.
          2   -1    0    0  501    0  0.00000000000E+00 -0.00000000000E+00 -0.16224867527E+04  0.16224867527E+04  0.00000000000E+00 0.  1.
         23    2    1    2    0    0  0.13050964563E+03 -0.65209630951E+03 -0.13197688881E+04  0.14806412984E+04  0.90809537054E+02 0.  0.
         13    1    3    3    0    0  0.92281568002E+02 -0.53981934167E+03 -0.10096239029E+04  0.11485909780E+04  0.00000000000E+00 0. -1.
        -13    1    3    3    0    0  0.38228077630E+02 -0.11227696784E+03 -0.31014498520E+03  0.33205032039E+03  0.00000000000E+00 0.  1.
         22    1    1    2    0    0 -0.13050964563E+03  0.65209630951E+03  0.27513045913E+03  0.71969377795E+03  0.00000000000E+00 0. -1.
<mgrwt>
<rscale>  0 0.19365446E+04</rscale>
<asrwt>0</asrwt>
<pdfrwt beam="1">  1        2 0.24961334E+00 0.19365446E+04</pdfrwt>
<pdfrwt beam="2">  1       -2 0.88899743E-01 0.19365446E+04</pdfrwt>
<totfact> 0.10999008E+01</totfact>
</mgrwt>
</event>
<event>
 6    1  0.5040916E-004  0.2656803E+04  0.7818608E-02  0.8349159E-01
          2   -1    0    0  501    0  0.00000000000E+00  0.00000000000E+00  0.13663712315E+04  0.13663712315E+04  0.00000000000E+00 0.  1.
         -2   -1    0    0    0  501 -0.00000000000E+00 -0.00000000000E+00 -0.12914864477E+04  0.12914864477E+04  0.00000000000E+00 0. -1.
         23    2    1    2    0    0  0.31444876717E+03 -0.11056246040E+04 -0.62544548947E+03  0.13118464297E+04  0.92060864332E+02 0.  0.
         13    1    3    3    0    0  0.62279384979E+02 -0.24533360821E+03 -0.18145785427E+03  0.31143900524E+03  0.00000000000E+00 0.  1.
        -13    1    3    3    0    0  0.25216938219E+03 -0.86029099575E+03 -0.44398763521E+03  0.10004074245E+04  0.00000000000E+00 0. -1.
         22    1    1    2    0    0 -0.31444876717E+03  0.11056246040E+04  0.70033027327E+03  0.13460112495E+04  0.00000000000E+00 0.  1.
<mgrwt>
<rscale>  0 0.26568025E+04</rscale>
<asrwt>0</asrwt>
<pdfrwt beam="1">  1        2 0.21021096E+00 0.26568025E+04</pdfrwt>
<pdfrwt beam="2">  1       -2 0.19869022E+00 0.26568025E+04</pdfrwt>
<totfact> 0.18072074E+00</totfact>
</mgrwt>
</event>
<event>
 6    1  0.5040916E-004  0.3554461E+04  0.7818608E-02  0.8101003E-01
         -2   -1    0    0    0  501 -0.00000000000E+00  0.00000000000E+00  0.70160511505E+03  0.70160511505E+03  0.00000000000E+00 0. -1.
          2   -1    0    0  501    0  0.00000000000E+00 -0.00000000000E+00 -0.45018893211E+04  0.45018893211E+04  0.00000000000E+00 0.  1.
         23    2    1    2    0    0  0.11867818083E+04  0.11575012886E+04 -0.96816482488E+03  0.19218545286E+04  0.89002286938E+02 0.  0.
         13    1    3    3    0    0  0.75704818884E+03  0.68081501524E+03 -0.57824791463E+03  0.11708978162E+04  0.00000000000E+00 0. -1.
        -13    1    3    3    0    0  0.42973361951E+03  0.47668627337E+03 -0.38991691025E+03  0.75095671237E+03  0.00000000000E+00 0.  1.
         22    1    1    2    0    0 -0.11867818083E+04 -0.11575012886E+04 -0.28321193811E+04  0.32816399076E+04  0.00000000000E+00 0. -1.
<mgrwt>
<rscale>  0 0.35544612E+04</rscale>
<asrwt>0</asrwt>
<pdfrwt beam="1">  1        2 0.69259834E+00 0.35544612E+04</pdfrwt>
<pdfrwt beam="2">  1       -2 0.10793925E+00 0.35544612E+04</pdfrwt>
<totfact> 0.68602106E-02</totfact>
</mgrwt>
</event>
<event>
 6    1  0.5040916E-004  0.2921187E+04  0.7818608E-02  0.8266601E-01
         -2   -1    0    0    0  501 -0.00000000000E+00  0.00000000000E+00  0.13573751007E+04  0.13573751007E+04  0.00000000000E+00 0. -1.
          2   -1    0    0  501    0  0.00000000000E+00 -0.00000000000E+00 -0.15716612287E+04  0.15716612287E+04  0.00000000000E+00 0.  1.
         23    2    1    2    0    0  0.12539798693E+04 -0.74097967650E+03 -0.16723269807E+02  0.14591562402E+04  0.85678889872E+02 0.  0.
         11    1    3    3    0    0  0.69194466296E+03 -0.38409974783E+03  0.27891459581E+02  0.79189517387E+03  0.00000000000E+00 0. -1.
        -11    1    3    3    0    0  0.56203520631E+03 -0.35687992867E+03 -0.44614729388E+02  0.66726106637E+03  0.00000000000E+00 0.  1.
         22    1    1    2    0    0 -0.12539798693E+04  0.74097967650E+03 -0.19756285815E+03  0.14698800891E+04  0.00000000000E+00 0.  1.
<mgrwt>
<rscale>  0 0.29211873E+04</rscale>
<asrwt>0</asrwt>
<pdfrwt beam="1">  1        2 0.24179404E+00 0.29211873E+04</pdfrwt>
<pdfrwt beam="2">  1       -2 0.20882694E+00 0.29211873E+04</pdfrwt>
<totfact> 0.11613565E+00</totfact>
</mgrwt>
</event>
<event>
 6    1  0.5040916E-004  0.1650276E+04  0.7818608E-02  0.8790243E-01
         -2   -1    0    0    0  501 -0.00000000000E+00  0.00000000000E+00  0.52696946012E+03  0.52696946012E+03  0.00000000000E+00 0. -1.
          2   -1    0    0  501    0  0.00000000000E+00 -0.00000000000E+00 -0.12920162915E+04  0.12920162915E+04  0.00000000000E+00 0.  1.
         23    2    1    2    0    0  0.73484425309E+03  0.33898261276E+02  0.22335147213E+02  0.74143503419E+03  0.89899292058E+02 0.  0.
         11    1    3    3    0    0  0.48590476905E+03 -0.17301105859E+02  0.30346219983E+02  0.48715876869E+03  0.00000000000E+00 0. -1.
        -11    1    3    3    0    0  0.24893948404E+03  0.51199367135E+02 -0.80110727698E+01  0.25427626550E+03  0.00000000000E+00 0.  1.
         22    1    1    2    0    0 -0.73484425309E+03 -0.33898261276E+02 -0.78738197858E+03  0.10775507174E+04  0.00000000000E+00 0.  1.
<mgrwt>
<rscale>  0 0.16502765E+04</rscale>
<asrwt>0</asrwt>
<pdfrwt beam="1">  1        2 0.19877173E+00 0.16502765E+04</pdfrwt>
<pdfrwt beam="2">  1       -2 0.81072226E-01 0.16502765E+04</pdfrwt>
<totfact> 0.21413637E+01</totfact>
</mgrwt>
</event>
<event>
 6    1  0.5040916E-004  0.4585814E+04  0.7818608E-02  0.7895783E-01
          2   -1    0    0  501    0  0.00000000000E+00  0.00000000000E+00  0.36297792106E+04  0.36297792106E+04  0.00000000000E+00 0. -1.
         -2   -1    0    0    0  501 -0.00000000000E+00 -0.00000000000E+00 -0.14484139847E+04  0.14484139847E+04  0.00000000000E+00 0.  1.
         23    2    1    2    0    0  0.44023856367E+03 -0.10584868834E+04 -0.11065436823E+04  0.15961608198E+04  0.95320336022E+02 0.  0.
         11    1    3    3    0    0  0.23079282036E+03 -0.48957526995E+03 -0.46598806447E+03  0.71420875598E+03  0.00000000000E+00 0.  1.
        -11    1    3    3    0    0  0.20944574331E+03 -0.56891161346E+03 -0.64055561780E+03  0.88195206378E+03  0.00000000000E+00 0. -1.
         22    1    1    2    0    0 -0.44023856367E+03  0.10584868834E+04  0.32879089082E+04  0.34820323755E+04  0.00000000000E+00 0. -1.
<mgrwt>
<rscale>  0 0.45858142E+04</rscale>
<asrwt>0</asrwt>
<pdfrwt beam="1">  1        2 0.55842757E+00 0.45858142E+04</pdfrwt>
<pdfrwt beam="2">  1       -2 0.22283292E+00 0.45858142E+04</pdfrwt>
<totfact> 0.46775951E-02</totfact>
</mgrwt>
</event>
<event>
 6    1  0.5040916E-004  0.7314104E+03  0.7818608E-02  0.9664974E-01
         -2   -1    0    0    0  501 -0.00000000000E+00  0.00000000000E+00  0.64117030419E+02  0.64117030419E+02  0.00000000000E+00 0. -1.
          2   -1    0    0  501    0  0.00000000000E+00 -0.00000000000E+00 -0.20858780714E+04  0.20858780714E+04  0.00000000000E+00 0.  1.
         23    2    1    2    0    0 -0.70851413032E+02 -0.18559233173E+03 -0.19083786463E+04  0.19212594384E+04  0.99319361062E+02 0.  0.
         11    1    3    3    0    0 -0.71605491940E+02 -0.55759524888E+02 -0.89754733035E+03  0.90212398334E+03  0.00000000000E+00 0. -1.
        -11    1    3    3    0    0  0.75407890880E+00 -0.12983280684E+03 -0.10108313159E+04  0.10191354550E+04  0.00000000000E+00 0.  1.
         22    1    1    2    0    0  0.70851413032E+02  0.18559233173E+03 -0.11338239472E+03  0.22873566350E+03  0.00000000000E+00 0. -1.
<mgrwt>
<rscale>  0 0.73141044E+03</rscale>
<asrwt>0</asrwt>
<pdfrwt beam="1">  1        2 0.32090430E+00 0.73141044E+03</pdfrwt>
<pdfrwt beam="2">  1       -2 0.98641590E-02 0.73141044E+03</pdfrwt>
<totfact> 0.43140265E+02</totfact>
</mgrwt>
</event>
<event>
 6    1  0.6197007E-004  0.2210233E+04  0.7818608E-02  0.8514181E-01
         -2   -1    0    0    0  501 -0.00000000000E+00  0.00000000000E+00  0.63084965434E+03  0.63084965434E+03  0.00000000000E+00 0.  1.
          2   -1    0    0  501    0  0.00000000000E+00 -0.00000000000E+00 -0.19359325849E+04  0.19359325849E+04  0.00000000000E+00 0. -1.
         23    2    1    2    0    0 -0.66168904656E+03 -0.98883793636E+02 -0.16723468642E+04  0.18035698207E+04  0.92247845996E+02 0.  0.
         11    1    3    3    0    0 -0.47609112814E+03 -0.85825236784E+02 -0.10982322208E+04  0.12000594753E+04  0.00000000000E+00 0. -1.
        -11    1    3    3    0    0 -0.18559791842E+03 -0.13058556852E+02 -0.57411464337E+03  0.60351034536E+03  0.00000000000E+00 0.  1.
         22    1    1    2    0    0  0.66168904656E+03  0.98883793636E+02  0.36726393356E+03  0.76321241858E+03  0.00000000000E+00 0.  1.
<mgrwt>
<rscale>  0 0.22102329E+04</rscale>
<asrwt>0</asrwt>
<pdfrwt beam="1">  1        2 0.29783578E+00 0.22102329E+04</pdfrwt>
<pdfrwt beam="2">  1       -2 0.97053795E-01 0.22102329E+04</pdfrwt>
<totfact> 0.58707585E+00</totfact>
</mgrwt>
</event>
<event>
 6    1  0.5040916E-004  0.1386619E+04  0.7818608E-02  0.8963562E-01
         -2   -1    0    0    0  501 -0.00000000000E+00  0.00000000000E+00  0.74126042254E+03  0.74126042254E+03  0.00000000000E+00 0. -1.
          2   -1    0    0  501    0  0.00000000000E+00 -0.00000000000E+00 -0.64846032789E+03  0.64846032789E+03  0.00000000000E+00 0.  1.
         23    2    1    2    0    0 -0.79846653766E+02  0.47878265843E+03 -0.44536645907E+03  0.66499213801E+03  0.90856692785E+02 0.  0.
         13    1    3    3    0    0 -0.28700139260E+02  0.23217677195E+03 -0.15507040521E+03  0.28067166227E+03  0.00000000000E+00 0. -1.
        -13    1    3    3    0    0 -0.51146514506E+02  0.24660588648E+03 -0.29029605385E+03  0.38432047574E+03  0.00000000000E+00 0.  1.
         22    1    1    2    0    0  0.79846653766E+02 -0.47878265843E+03  0.53816655372E+03  0.72472861242E+03  0.00000000000E+00 0. -1.
<mgrwt>
<rscale>  0 0.13866189E+04</rscale>
<asrwt>0</asrwt>
<pdfrwt beam="1">  1        2 0.99763127E-01 0.13866189E+04</pdfrwt>
<pdfrwt beam="2">  1       -2 0.11404007E+00 0.13866189E+04</pdfrwt>
<totfact> 0.26439772E+01</totfact>
</mgrwt>
</event>
<event>
 6    1  0.5040916E-004  0.7984548E+03  0.7818608E-02  0.9562256E-01
          2   -1    0    0  501    0  0.00000000000E+00  0.00000000000E+00  0.12373253363E+04  0.12373253363E+04  0.00000000000E+00 0.  1.
         -2   -1    0    0    0  501 -0.00000000000E+00 -0.00000000000E+00 -0.12881213966E+03  0.12881213966E+03  0.00000000000E+00 0. -1.
         23    2    1    2    0    0 -0.33343799378E+03 -0.20338788215E+03  0.47572343707E+03  0.62251767651E+03  0.93101786715E+02 0.  0.
         13    1    3    3    0    0 -0.10945193999E+03 -0.82914200071E+02  0.10461574455E+03  0.17262371143E+03  0.00000000000E+00 0. -1.
        -13    1    3    3    0    0 -0.22398605379E+03 -0.12047368208E+03  0.37110769252E+03  0.44989396508E+03  0.00000000000E+00 0.  1.
         22    1    1    2    0    0  0.33343799378E+03  0.20338788215E+03  0.63278975954E+03  0.74361979941E+03  0.00000000000E+00 0. -1.
<mgrwt>
<rscale>  0 0.79845482E+03</rscale>
<asrwt>0</asrwt>
<pdfrwt beam="1">  1        2 0.19035774E+00 0.79845482E+03</pdfrwt>
<pdfrwt beam="2">  1       -2 0.19817253E-01 0.79845482E+03</pdfrwt>
<totfact> 0.39276018E+02</totfact>
</mgrwt>
</event>
<event>
 6    1  0.5040916E-004  0.1456077E+04  0.7818608E-02  0.8914198E-01
          2   -1    0    0  501    0  0.00000000000E+00  0.00000000000E+00  0.15354610550E+04  0.15354610550E+04  0.00000000000E+00 0.  1.
         -2   -1    0    0    0  501 -0.00000000000E+00 -0.00000000000E+00 -0.34519945389E+03  0.34519945389E+03  0.00000000000E+00 0. -1.
         23    2    1    2    0    0 -0.70864255290E+03 -0.13365300591E+03  0.49818077245E+03  0.88115399705E+03  0.90613965290E+02 0.  0.
         13    1    3    3    0    0 -0.32703586131E+03 -0.50965086274E+02  0.28209098835E+03  0.43488529558E+03  0.00000000000E+00 0. -1.
        -13    1    3    3    0    0 -0.38160669159E+03 -0.82687919632E+02  0.21608978410E+03  0.44626870147E+03  0.00000000000E+00 0.  1.
         22    1    1    2    0    0  0.70864255290E+03  0.13365300591E+03  0.69208082861E+03  0.99950651179E+03  0.00000000000E+00 0.  1.
<mgrwt>
<rscale>  0 0.14560774E+04</rscale>
<asrwt>0</asrwt>
<pdfrwt beam="1">  1        2 0.23622477E+00 0.14560774E+04</pdfrwt>
<pdfrwt beam="2">  1       -2 0.53107609E-01 0.14560774E+04</pdfrwt>
<totfact> 0.39277720E+01</totfact>
</mgrwt>
</event>
<event>
 6    1  0.5040916E-004  0.7965902E+03  0.7818608E-02  0.9564966E-01
         -1   -1    0    0    0  501 -0.00000000000E+00  0.00000000000E+00  0.43222092475E+03  0.43222092475E+03  0.00000000000E+00 0.  1.
          1   -1    0    0  501    0  0.00000000000E+00 -0.00000000000E+00 -0.36703218360E+03  0.36703218360E+03  0.00000000000E+00 0. -1.
         23    2    1    2    0    0  0.34158913372E+03  0.11723562950E+03 -0.12205268470E+03  0.39245256673E+03  0.93246073341E+02 0.  0.
         11    1    3    3    0    0  0.25412449517E+03  0.11262889319E+03 -0.58018835369E+02  0.28395547517E+03  0.00000000000E+00 0.  1.
        -11    1    3    3    0    0  0.87464638555E+02  0.46067363125E+01 -0.64033849329E+02  0.10849709156E+03  0.00000000000E+00 0. -1.
         22    1    1    2    0    0 -0.34158913372E+03 -0.11723562950E+03  0.18724142585E+03  0.40680054161E+03  0.00000000000E+00 0. -1.
<mgrwt>
<rscale>  0 0.79659021E+03</rscale>
<asrwt>0</asrwt>
<pdfrwt beam="1">  1        1 0.56466490E-01 0.79659021E+03</pdfrwt>
<pdfrwt beam="2">  1       -1 0.66495526E-01 0.79659021E+03</pdfrwt>
<totfact> 0.15605318E+02</totfact>
</mgrwt>
</event>
<event>
 6    1  0.5040916E-004  0.1147309E+04  0.7818608E-02  0.9160270E-01
          2   -1    0    0  501    0  0.00000000000E+00  0.00000000000E+00  0.19931366867E+04  0.19931366867E+04  0.00000000000E+00 0.  1.
         -2   -1    0    0    0  501 -0.00000000000E+00 -0.00000000000E+00 -0.16510618971E+03  0.16510618971E+03  0.00000000000E+00 0. -1.
         23    2    1    2    0    0  0.35623044137E+03 -0.43260322116E+03  0.72224165700E+03  0.91855959712E+03  0.89850142068E+02 0.  0.
         13    1    3    3    0    0  0.19840669096E+03 -0.24646550880E+03  0.33469470960E+03  0.46057682386E+03  0.00000000000E+00 0.  1.
        -13    1    3    3    0    0  0.15782375041E+03 -0.18613771236E+03  0.38754694740E+03  0.45798277325E+03  0.00000000000E+00 0. -1.
         22    1    1    2    0    0 -0.35623044137E+03  0.43260322116E+03  0.11057888400E+04  0.12396832793E+04  0.00000000000E+00 0.  1.
<mgrwt>
<rscale>  0 0.11473085E+04</rscale>
<asrwt>0</asrwt>
<pdfrwt beam="1">  1        2 0.30663640E+00 0.11473085E+04</pdfrwt>
<pdfrwt beam="2">  1       -2 0.25400954E-01 0.11473085E+04</pdfrwt>
<totfact> 0.93159847E+01</totfact>
</mgrwt>
</event>
<event>
 6    1  0.5040916E-004  0.1732007E+04  0.7818608E-02  0.8743317E-01
         -1   -1    0    0    0  501 -0.00000000000E+00  0.00000000000E+00  0.10754237601E+04  0.10754237601E+04  0.00000000000E+00 0. -1.
          1   -1    0    0  501    0  0.00000000000E+00 -0.00000000000E+00 -0.69736409304E+03  0.69736409304E+03  0.00000000000E+00 0.  1.
         23    2    1    2    0    0  0.74810715352E+03  0.42640769920E+03  0.12226960630E+03  0.87450260095E+03  0.91198154329E+02 0.  0.
         11    1    3    3    0    0  0.35977586841E+03  0.17887318503E+03  0.17221428688E+02  0.40215776683E+03  0.00000000000E+00 0. -1.
        -11    1    3    3    0    0  0.38833128511E+03  0.24753451417E+03  0.10504817761E+03  0.47234483412E+03  0.00000000000E+00 0.  1.
         22    1    1    2    0    0 -0.74810715352E+03 -0.42640769920E+03  0.25579006075E+03  0.89828525217E+03  0.00000000000E+00 0. -1.
<mgrwt>
<rscale>  0 0.17320068E+04</rscale>
<asrwt>0</asrwt>
<pdfrwt beam="1">  1        1 0.10728678E+00 0.17320068E+04</pdfrwt>
<pdfrwt beam="2">  1       -1 0.16544981E+00 0.17320068E+04</pdfrwt>
<totfact> 0.69151977E+00</totfact>
</mgrwt>
</event>
<event>
 6    1  0.5040916E-004  0.3131052E+04  0.7818608E-02  0.8207267E-01
         -2   -1    0    0    0  501 -0.00000000000E+00  0.00000000000E+00  0.10648746019E+04  0.10648746019E+04  0.00000000000E+00 0. -1.
          2   -1    0    0  501    0  0.00000000000E+00 -0.00000000000E+00 -0.23015586305E+04  0.23015586305E+04  0.00000000000E+00 0.  1.
         23    2    1    2    0    0  0.14098997011E+04  0.51836929661E+03 -0.15028865353E+03  0.15125781125E+04  0.93712177439E+02 0.  0.
         11    1    3    3    0    0  0.12450068830E+04  0.47609739424E+03 -0.10877510567E+03  0.13373641580E+04  0.00000000000E+00 0. -1.
        -11    1    3    3    0    0  0.16489281809E+03  0.42271902364E+02 -0.41513547862E+02  0.17521395448E+03  0.00000000000E+00 0.  1.
         22    1    1    2    0    0 -0.14098997011E+04 -0.51836929661E+03 -0.10863953751E+04  0.18538551200E+04  0.00000000000E+00 0.  1.
<mgrwt>
<rscale>  0 0.31310518E+04</rscale>
<asrwt>0</asrwt>
<pdfrwt beam="1">  1        2 0.35408594E+00 0.31310518E+04</pdfrwt>
<pdfrwt beam="2">  1       -2 0.16382686E+00 0.31310518E+04</pdfrwt>
<totfact> 0.90459430E-01</totfact>
</mgrwt>
</event>
<event>
 6    1  0.5040916E-004  0.1724476E+04  0.7818608E-02  0.8747527E-01
         -2   -1    0    0    0  501 -0.00000000000E+00  0.00000000000E+00  0.24974334992E+03  0.24974334992E+03  0.00000000000E+00 0. -1.
          2   -1    0    0  501    0  0.00000000000E+00 -0.00000000000E+00 -0.29768734860E+04  0.29768734860E+04  0.00000000000E+00 0.  1.
         23    2    1    2    0    0  0.56545400088E+03 -0.38791239858E+03 -0.23379572850E+04  0.24381564602E+04  0.91369589581E+02 0.  0.
         11    1    3    3    0    0  0.30920708491E+03 -0.22116904815E+03 -0.14516041576E+04  0.15005596954E+04  0.00000000000E+00 0. -1.
        -11    1    3    3    0    0  0.25624691597E+03 -0.16674335043E+03 -0.88635312738E+03  0.93759676475E+03  0.00000000000E+00 0.  1.
         22    1    1    2    0    0 -0.56545400088E+03  0.38791239858E+03 -0.38917285114E+03  0.78846037577E+03  0.00000000000E+00 0. -1.
<mgrwt>
<rscale>  0 0.17244760E+04</rscale>
<asrwt>0</asrwt>
<pdfrwt beam="1">  1        2 0.45798052E+00 0.17244760E+04</pdfrwt>
<pdfrwt beam="2">  1       -2 0.38422055E-01 0.17244760E+04</pdfrwt>
<totfact> 0.10986909E+01</totfact>
</mgrwt>
</event>
<event>
 6    1  0.5040916E-004  0.1976965E+04  0.7818608E-02  0.8617466E-01
          2   -1    0    0  501    0  0.00000000000E+00  0.00000000000E+00  0.27461123027E+04  0.27461123027E+04  0.00000000000E+00 0.  1.
         -2   -1    0    0    0  501 -0.00000000000E+00 -0.00000000000E+00 -0.35581139572E+03  0.35581139572E+03  0.00000000000E+00 0. -1.
         23    2    1    2    0    0 -0.73989809330E+03  0.28546735853E+03  0.21179524553E+04  0.22634044796E+04  0.91304074500E+02 0.  0.
         13    1    3    3    0    0 -0.39904851071E+03  0.10912238606E+03  0.11502397378E+04  0.12223742730E+04  0.00000000000E+00 0. -1.
        -13    1    3    3    0    0 -0.34084958260E+03  0.17634497246E+03  0.96771271756E+03  0.10410302066E+04  0.00000000000E+00 0.  1.
         22    1    1    2    0    0  0.73989809330E+03 -0.28546735853E+03  0.27234845170E+03  0.83851921886E+03  0.00000000000E+00 0. -1.
<mgrwt>
<rscale>  0 0.19769654E+04</rscale>
<asrwt>0</asrwt>
<pdfrwt beam="1">  1        2 0.42247880E+00 0.19769654E+04</pdfrwt>
<pdfrwt beam="2">  1       -2 0.54740217E-01 0.19769654E+04</pdfrwt>
<totfact> 0.72931662E+00</totfact>
</mgrwt>
</event>
<event>
 6    1  0.5040916E-004  0.4086705E+04  0.7818608E-02  0.7987280E-01
          2   -1    0    0  501    0  0.00000000000E+00  0.00000000000E+00  0.49044787582E+04  0.49044787582E+04  0.00000000000E+00 0.  1.
         -2   -1    0    0    0  501 -0.00000000000E+00 -0.00000000000E+00 -0.85132161585E+03  0.85132161585E+03  0.00000000000E+00 0. -1.
         23    2    1    2    0    0  0.17607894386E+03 -0.13971853212E+04  0.41108606179E+04  0.43463819453E+04  0.93436492953E+02 0.  0.
         11    1    3    3    0    0  0.24680686264E+02 -0.12692529908E+03  0.46301183320E+03  0.48072770412E+03  0.00000000000E+00 0. -1.
        -11    1    3    3    0    0  0.15139825759E+03 -0.12702600221E+04  0.36478487847E+04  0.38656542412E+04  0.00000000000E+00 0.  1.
         22    1    1    2    0    0 -0.17607894386E+03  0.13971853212E+04 -0.57703475526E+02  0.14094184288E+04  0.00000000000E+00 0. -1.
<mgrwt>
<rscale>  0 0.40867047E+04</rscale>
<asrwt>0</asrwt>
<pdfrwt beam="1">  1        2 0.75453518E+00 0.40867047E+04</pdfrwt>
<pdfrwt beam="2">  1       -2 0.13097256E+00 0.40867047E+04</pdfrwt>
<totfact> 0.14852190E-02</totfact>
</mgrwt>
</event>
<event>
 6    1  0.5040916E-004  0.1939306E+04  0.7818608E-02  0.8635535E-01
         -2   -1    0    0    0  501 -0.00000000000E+00  0.00000000000E+00  0.36480220975E+03  0.36480220975E+03  0.00000000000E+00 0. -1.
          2   -1    0    0  501    0  0.00000000000E+00 -0.00000000000E+00 -0.25773619439E+04  0.25773619439E+04  0.00000000000E+00 0.  1.
         23    2    1    2    0    0  0.79836731385E+03  0.21529729594E+03 -0.18709065894E+04  0.20474741711E+04  0.90087300100E+02 0.  0.
         13    1    3    3    0    0  0.46877092058E+03  0.14646141371E+03 -0.12062589622E+04  0.13024046244E+04  0.00000000000E+00 0. -1.
        -13    1    3    3    0    0  0.32959639328E+03  0.68835882228E+02 -0.66464762720E+03  0.74506954675E+03  0.00000000000E+00 0.  1.
         22    1    1    2    0    0 -0.79836731385E+03 -0.21529729594E+03 -0.34165314468E+03  0.89468998247E+03  0.00000000000E+00 0.  1.
<mgrwt>
<rscale>  0 0.19393064E+04</rscale>
<asrwt>0</asrwt>
<pdfrwt beam="1">  1        2 0.39651722E+00 0.19393064E+04</pdfrwt>
<pdfrwt beam="2">  1       -2 0.56123417E-01 0.19393064E+04</pdfrwt>
<totfact> 0.87398022E+00</totfact>
</mgrwt>
</event>
<event>
 6    1  0.5040916E-004  0.2241480E+04  0.7818608E-02  0.8501359E-01
          2   -1    0    0  501    0  0.00000000000E+00  0.00000000000E+00  0.16716734766E+04  0.16716734766E+04  0.00000000000E+00 0.  1.
         -2   -1    0    0    0  501 -0.00000000000E+00 -0.00000000000E+00 -0.75137787588E+03  0.75137787588E+03  0.00000000000E+00 0. -1.
         23    2    1    2    0    0  0.88479572354E+03 -0.68148435856E+03  0.53481217937E+03  0.12415769044E+04  0.90580014115E+02 0.  0.
         13    1    3    3    0    0  0.33507086290E+02 -0.16295011838E+02  0.28888206010E+01  0.37371078750E+02  0.00000000000E+00 0. -1.
        -13    1    3    3    0    0  0.85128863725E+03 -0.66518934672E+03  0.53192335877E+03  0.12042058256E+04  0.00000000000E+00 0.  1.
         22    1    1    2    0    0 -0.88479572354E+03  0.68148435856E+03  0.38548342137E+03  0.11814744481E+04  0.00000000000E+00 0. -1.
<mgrwt>
<rscale>  0 0.22414803E+04</rscale>
<asrwt>0</asrwt>
<pdfrwt beam="1">  1        2 0.25718053E+00 0.22414803E+04</pdfrwt>
<pdfrwt beam="2">  1       -2 0.11559660E+00 0.22414803E+04</pdfrwt>
<totfact> 0.53944984E+00</totfact>
</mgrwt>
</event>
<event>
 6    1  0.5040916E-004  0.1476697E+04  0.7818608E-02  0.8900099E-01
         -2   -1    0    0    0  501 -0.00000000000E+00  0.00000000000E+00  0.32415080628E+03  0.32415080628E+03  0.00000000000E+00 0. -1.
          2   -1    0    0  501    0  0.00000000000E+00 -0.00000000000E+00 -0.16818052399E+04  0.16818052399E+04  0.00000000000E+00 0.  1.
         23    2    1    2    0    0  0.72130088009E+02  0.72873772102E+03 -0.58782665214E+03  0.94346076208E+03  0.91195509634E+02 0.  0.
         11    1    3    3    0    0  0.35153397702E+02  0.53023270583E+03 -0.47156769605E+03  0.71046363430E+03  0.00000000000E+00 0.  1.
        -11    1    3    3    0    0  0.36976690306E+02  0.19850501519E+03 -0.11625895609E+03  0.23299712778E+03  0.00000000000E+00 0. -1.
         22    1    1    2    0    0 -0.72130088009E+02 -0.72873772102E+03 -0.76982778150E+03  0.10624952841E+04  0.00000000000E+00 0.  1.
<mgrwt>
<rscale>  0 0.14766970E+04</rscale>
<asrwt>0</asrwt>
<pdfrwt beam="1">  1        2 0.25873926E+00 0.14766970E+04</pdfrwt>
<pdfrwt beam="2">  1       -2 0.49869357E-01 0.14766970E+04</pdfrwt>
<totfact> 0.36959352E+01</totfact>
</mgrwt>
</event>
<event>
 6    1  0.5040916E-004  0.1870782E+04  0.7818608E-02  0.8669538E-01
         -2   -1    0    0    0  501 -0.00000000000E+00  0.00000000000E+00  0.98175922895E+03  0.98175922895E+03  0.00000000000E+00 0. -1.
          2   -1    0    0  501    0  0.00000000000E+00 -0.00000000000E+00 -0.89121291308E+03  0.89121291308E+03  0.00000000000E+00 0.  1.
         23    2    1    2    0    0 -0.18932835669E+03  0.55513384655E+03 -0.68141131599E+03  0.90346845476E+03  0.88966583387E+02 0.  0.
         13    1    3    3    0    0 -0.81265016537E+02  0.34692983508E+03 -0.37110031351E+03  0.51447036461E+03  0.00000000000E+00 0. -1.
        -13    1    3    3    0    0 -0.10806334016E+03  0.20820401147E+03 -0.31031100248E+03  0.38899809015E+03  0.00000000000E+00 0.  1.
         22    1    1    2    0    0  0.18932835669E+03 -0.55513384655E+03  0.77195763186E+03  0.96950368727E+03  0.00000000000E+00 0. -1.
<mgrwt>
<rscale>  0 0.18707822E+04</rscale>
<asrwt>0</asrwt>
<pdfrwt beam="1">  1        2 0.13710968E+00 0.18707822E+04</pdfrwt>
<pdfrwt beam="2">  1       -2 0.15103988E+00 0.18707822E+04</pdfrwt>
<totfact> 0.82072065E+00</totfact>
</mgrwt>
</event>
<event>
 6    1  0.5040916E-004  0.2044720E+04  0.7818608E-02  0.8585993E-01
         -2   -1    0    0    0  501 -0.00000000000E+00  0.00000000000E+00  0.35553258252E+03  0.35553258252E+03  0.00000000000E+00 0. -1.
          2   -1    0    0  501    0  0.00000000000E+00 -0.00000000000E+00 -0.29398706953E+04  0.29398706953E+04  0.00000000000E+00 0.  1.
         23    2    1    2    0    0 -0.41931516216E+03  0.43305045698E+02 -0.27922554793E+04  0.28253711901E+04  0.91275230923E+02 0.  0.
         13    1    3    3    0    0 -0.13154011103E+03  0.45048362988E+02 -0.11105931420E+04  0.11192628301E+04  0.00000000000E+00 0.  1.
        -13    1    3    3    0    0 -0.28777505113E+03 -0.17433172908E+01 -0.16816623373E+04  0.17061083600E+04  0.00000000000E+00 0. -1.
         22    1    1    2    0    0  0.41931516216E+03 -0.43305045698E+02  0.20791736653E+03  0.47003208774E+03  0.00000000000E+00 0. -1.
<mgrwt>
<rscale>  0 0.20447199E+04</rscale>
<asrwt>0</asrwt>
<pdfrwt beam="1">  1        2 0.45228781E+00 0.20447199E+04</pdfrwt>
<pdfrwt beam="2">  1       -2 0.54697320E-01 0.20447199E+04</pdfrwt>
<totfact> 0.55363674E+00</totfact>
</mgrwt>
</event>
<event>
 6    1  0.5040916E-004  0.1764036E+04  0.7818608E-02  0.8725662E-01
         -2   -1    0    0    0  501 -0.00000000000E+00  0.00000000000E+00  0.63622509822E+03  0.63622509822E+03  0.00000000000E+00 0. -1.
          2   -1    0    0  501    0  0.00000000000E+00 -0.00000000000E+00 -0.12227684747E+04  0.12227684747E+04  0.00000000000E+00 0.  1.
         23    2    1    2    0    0 -0.31272274725E+03  0.49026935034E+03 -0.98959474687E+03  0.11514556165E+04  0.91611796788E+02 0.  0.
         13    1    3    3    0    0 -0.88611621602E+01  0.65296731235E+02 -0.98579594566E+02  0.11857537590E+03  0.00000000000E+00 0. -1.
        -13    1    3    3    0    0 -0.30386158509E+03  0.42497261911E+03 -0.89101515231E+03  0.10328802406E+04  0.00000000000E+00 0.  1.
         22    1    1    2    0    0  0.31272274725E+03 -0.49026935034E+03  0.40305137039E+03  0.70753795637E+03  0.00000000000E+00 0. -1.
<mgrwt>
<rscale>  0 0.17640363E+04</rscale>
<asrwt>0</asrwt>
<pdfrwt beam="1">  1        2 0.18811822E+00 0.17640363E+04</pdfrwt>
<pdfrwt beam="2">  1       -2 0.97880786E-01 0.17640363E+04</pdfrwt>
<totfact> 0.15104040E+01</totfact>
</mgrwt>
</event>
<event>
 6    1  0.5040916E-004  0.1166265E+04  0.7818608E-02  0.9142908E-01
         -2   -1    0    0    0  501 -0.00000000000E+00  0.00000000000E+00  0.36890998708E+03  0.36890998708E+03  0.00000000000E+00 0. -1.
          2   -1    0    0  501    0  0.00000000000E+00 -0.00000000000E+00 -0.92175232156E+03  0.92175232156E+03  0.00000000000E+00 0.  1.
         23    2    1    2    0    0 -0.23806865813E+03 -0.52575716700E+03 -0.33792993518E+03  0.67480142823E+03  0.89794442004E+02 0.  0.
         13    1    3    3    0    0 -0.11785373152E+03 -0.17668460765E+03 -0.15391280066E+03  0.26229011194E+03  0.00000000000E+00 0.  1.
        -13    1    3    3    0    0 -0.12021492661E+03 -0.34907255935E+03 -0.18401713451E+03  0.41251131629E+03  0.00000000000E+00 0. -1.
         22    1    1    2    0    0  0.23806865813E+03  0.52575716700E+03 -0.21491239930E+03  0.61586088040E+03  0.00000000000E+00 0.  1.
<mgrwt>
<rscale>  0 0.11662652E+04</rscale>
<asrwt>0</asrwt>
<pdfrwt beam="1">  1        2 0.14180805E+00 0.11662652E+04</pdfrwt>
<pdfrwt beam="2">  1       -2 0.56755382E-01 0.11662652E+04</pdfrwt>
<totfact> 0.81629844E+01</totfact>
</mgrwt>
</event>
<event>
 6    1  0.5040916E-004  0.5354307E+04  0.7818608E-02  0.7776061E-01
         -2   -1    0    0    0  501 -0.00000000000E+00  0.00000000000E+00  0.24586775676E+04  0.24586775676E+04  0.00000000000E+00 0. -1.
          2   -1    0    0  501    0  0.00000000000E+00 -0.00000000000E+00 -0.29150433531E+04  0.29150433531E+04  0.00000000000E+00 0.  1.
         23    2    1    2    0    0  0.16473489064E+04 -0.19367680349E+04 -0.10668555496E+04  0.27588544628E+04  0.90930428721E+02 0.  0.
         13    1    3    3    0    0  0.10215056279E+04 -0.11493802933E+04 -0.67670330291E+03  0.16800226685E+04  0.00000000000E+00 0. -1.
        -13    1    3    3    0    0  0.62584327859E+03 -0.78738774157E+03 -0.39015224665E+03  0.10788317943E+04  0.00000000000E+00 0.  1.
         22    1    1    2    0    0 -0.16473489064E+04  0.19367680349E+04  0.61048976412E+03  0.26148664579E+04  0.00000000000E+00 0. -1.
<mgrwt>
<rscale>  0 0.53543073E+04</rscale>
<asrwt>0</asrwt>
<pdfrwt beam="1">  1        2 0.44846821E+00 0.53543073E+04</pdfrwt>
<pdfrwt beam="2">  1       -2 0.37825809E+00 0.53543073E+04</pdfrwt>
<totfact> 0.14305736E-02</totfact>
</mgrwt>
</event>
<event>
 6    1  0.5040916E-004  0.3293660E+04  0.7818608E-02  0.8164510E-01
          2   -1    0    0  501    0  0.00000000000E+00  0.00000000000E+00  0.20448974051E+04  0.20448974051E+04  0.00000000000E+00 0.  1.
         -2   -1    0    0    0  501 -0.00000000000E+00 -0.00000000000E+00 -0.13262521729E+04  0.13262521729E+04  0.00000000000E+00 0. -1.
         23    2    1    2    0    0  0.58509806790E+03  0.11097772110E+04 -0.73035557568E+03  0.14544992321E+04  0.90573407543E+02 0.  0.
         11    1    3    3    0    0  0.24727344052E+03  0.38833187378E+03 -0.24207939847E+03  0.52014251292E+03  0.00000000000E+00 0. -1.
        -11    1    3    3    0    0  0.33782462737E+03  0.72144533721E+03 -0.48827617721E+03  0.93435671918E+03  0.00000000000E+00 0.  1.
         22    1    1    2    0    0 -0.58509806790E+03 -0.11097772110E+04  0.14490008079E+04  0.19166503459E+04  0.00000000000E+00 0.  1.
<mgrwt>
<rscale>  0 0.32936604E+04</rscale>
<asrwt>0</asrwt>
<pdfrwt beam="1">  1        2 0.31459960E+00 0.32936604E+04</pdfrwt>
<pdfrwt beam="2">  1       -2 0.20403880E+00 0.32936604E+04</pdfrwt>
<totfact> 0.65965516E-01</totfact>
</mgrwt>
</event>
<event>
 6    1  0.5040916E-004  0.2604251E+04  0.7818608E-02  0.8366759E-01
         -2   -1    0    0    0  501 -0.00000000000E+00  0.00000000000E+00  0.68763450344E+03  0.68763450344E+03  0.00000000000E+00 0. -1.
          2   -1    0    0  501    0  0.00000000000E+00 -0.00000000000E+00 -0.24657435140E+04  0.24657435140E+04  0.00000000000E+00 0.  1.
         23    2    1    2    0    0 -0.51532186274E+03 -0.10708338867E+04 -0.15297443682E+04  0.19393241346E+04  0.92835508544E+02 0.  0.
         11    1    3    3    0    0 -0.29941727104E+03 -0.60417028828E+03 -0.79355674822E+03  0.10413475655E+04  0.00000000000E+00 0.  1.
        -11    1    3    3    0    0 -0.21590459171E+03 -0.46666359840E+03 -0.73618762001E+03  0.89797656910E+03  0.00000000000E+00 0. -1.
         22    1    1    2    0    0  0.51532186274E+03  0.10708338867E+04 -0.24836464237E+03  0.12140538829E+04  0.00000000000E+00 0. -1.
<mgrwt>
<rscale>  0 0.26042506E+04</rscale>
<asrwt>0</asrwt>
<pdfrwt beam="1">  1        2 0.37934516E+00 0.26042506E+04</pdfrwt>
<pdfrwt beam="2">  1       -2 0.10578992E+00 0.26042506E+04</pdfrwt>
<totfact> 0.23256460E+00</totfact>
</mgrwt>
</event>
<event>
 6    1  0.5040916E-004  0.4607461E+04  0.7818608E-02  0.7892089E-01
          2   -1    0    0  501    0  0.00000000000E+00  0.00000000000E+00  0.18630137157E+04  0.18630137157E+04  0.00000000000E+00 0.  1.
         -2   -1    0    0    0  501 -0.00000000000E+00 -0.00000000000E+00 -0.28487039180E+04  0.28487039180E+04  0.00000000000E+00 0. -1.
         23    2    1    2    0    0  0.22091772058E+03  0.11525420564E+04  0.15331583173E+04  0.19329129094E+04  0.91760876853E+02 0.  0.
         13    1    3    3    0    0  0.82297210534E+02  0.44324901317E+03  0.66322835102E+03  0.80194411534E+03  0.00000000000E+00 0.  1.
        -13    1    3    3    0    0  0.13862051004E+03  0.70929304322E+03  0.86992996629E+03  0.11309687941E+04  0.00000000000E+00 0. -1.
         22    1    1    2    0    0 -0.22091772058E+03 -0.11525420564E+04 -0.25188485196E+04  0.27788047243E+04  0.00000000000E+00 0. -1.
<mgrwt>
<rscale>  0 0.46074611E+04</rscale>
<asrwt>0</asrwt>
<pdfrwt beam="1">  1        2 0.28661750E+00 0.46074611E+04</pdfrwt>
<pdfrwt beam="2">  1       -2 0.43826214E+00 0.46074611E+04</pdfrwt>
<totfact> 0.24851476E-02</totfact>
</mgrwt>
</event>
<event>
 6    1  0.5040916E-004  0.2191861E+04  0.7818608E-02  0.8521823E-01
          2   -1    0    0  501    0  0.00000000000E+00  0.00000000000E+00  0.16989283210E+04  0.16989283210E+04  0.00000000000E+00 0.  1.
         -2   -1    0    0    0  501 -0.00000000000E+00 -0.00000000000E+00 -0.70695387062E+03  0.70695387062E+03  0.00000000000E+00 0. -1.
         23    2    1    2    0    0 -0.42218284997E+02 -0.29089401552E+03 -0.65989153513E+03  0.72806725966E+03  0.90682879294E+02 0.  0.
         13    1    3    3    0    0  0.15497979375E+02 -0.93788418951E+02 -0.28731132111E+03  0.30262889838E+03  0.00000000000E+00 0.  1.
        -13    1    3    3    0    0 -0.57716264373E+02 -0.19710559657E+03 -0.37258021402E+03  0.42543836128E+03  0.00000000000E+00 0. -1.
         22    1    1    2    0    0  0.42218284997E+02  0.29089401552E+03  0.16518659855E+04  0.16778149320E+04  0.00000000000E+00 0.  1.
<mgrwt>
<rscale>  0 0.21918613E+04</rscale>
<asrwt>0</asrwt>
<pdfrwt beam="1">  1        2 0.26137359E+00 0.21918613E+04</pdfrwt>
<pdfrwt beam="2">  1       -2 0.10876213E+00 0.21918613E+04</pdfrwt>
<totfact> 0.60659093E+00</totfact>
</mgrwt>
</event>
<event>
 6    1  0.5040916E-004  0.3446954E+04  0.7818608E-02  0.8126478E-01
          2   -1    0    0  501    0  0.00000000000E+00  0.00000000000E+00  0.13720684450E+04  0.13720684450E+04  0.00000000000E+00 0.  1.
         -2   -1    0    0    0  501 -0.00000000000E+00 -0.00000000000E+00 -0.21648864913E+04  0.21648864913E+04  0.00000000000E+00 0. -1.
         23    2    1    2    0    0 -0.14885905483E+04  0.54665413984E+03 -0.10861236822E+04  0.19242675006E+04  0.91696192213E+02 0.  0.
         13    1    3    3    0    0 -0.12876275312E+04  0.44545210235E+03 -0.95471317500E+03  0.16636975329E+04  0.00000000000E+00 0. -1.
        -13    1    3    3    0    0 -0.20096301713E+03  0.10120203749E+03 -0.13141050719E+03  0.26056996766E+03  0.00000000000E+00 0.  1.
         22    1    1    2    0    0  0.14885905483E+04 -0.54665413984E+03  0.29330563598E+03  0.16126874357E+04  0.00000000000E+00 0. -1.
<mgrwt>
<rscale>  0 0.34469537E+04</rscale>
<asrwt>0</asrwt>
<pdfrwt beam="1">  1        2 0.21108745E+00 0.34469537E+04</pdfrwt>
<pdfrwt beam="2">  1       -2 0.33305946E+00 0.34469537E+04</pdfrwt>
<totfact> 0.24612369E-01</totfact>
</mgrwt>
</event>
<event>
 6    1  0.5040916E-004  0.1639015E+04  0.7818608E-02  0.8796932E-01
          2   -1    0    0  501    0  0.00000000000E+00  0.00000000000E+00  0.10458710435E+04  0.10458710435E+04  0.00000000000E+00 0.  1.
         -2   -1    0    0    0  501 -0.00000000000E+00 -0.00000000000E+00 -0.64213727240E+03  0.64213727240E+03  0.00000000000E+00 0. -1.
         23    2    1    2    0    0  0.56785150789E+03  0.31839096811E+03  0.71086675936E+03  0.96817582426E+03  0.90579984196E+02 0.  0.
         11    1    3    3    0    0  0.18489834831E+03  0.13589363299E+03  0.20230011675E+03  0.30590818220E+03  0.00000000000E+00 0.  1.
        -11    1    3    3    0    0  0.38295315958E+03  0.18249733512E+03  0.50856664261E+03  0.66226764207E+03  0.00000000000E+00 0. -1.
         22    1    1    2    0    0 -0.56785150789E+03 -0.31839096811E+03 -0.30713298823E+03  0.71983249166E+03  0.00000000000E+00 0. -1.
<mgrwt>
<rscale>  0 0.16390153E+04</rscale>
<asrwt>0</asrwt>
<pdfrwt beam="1">  1        2 0.16090324E+00 0.16390153E+04</pdfrwt>
<pdfrwt beam="2">  1       -2 0.98790350E-01 0.16390153E+04</pdfrwt>
<totfact> 0.19144027E+01</totfact>
</mgrwt>
</event>
<event>
 6    1  0.5040916E-004  0.3032561E+04  0.7818608E-02  0.8234494E-01
         -4   -1    0    0    0  501 -0.00000000000E+00  0.00000000000E+00  0.24343297882E+04  0.24343297882E+04  0.00000000000E+00 0. -1.
          4   -1    0    0  501    0  0.00000000000E+00 -0.00000000000E+00 -0.94445136690E+03  0.94445136690E+03  0.00000000000E+00 0.  1.
         23    2    1    2    0    0 -0.93495696323E+01  0.15126646725E+04  0.65388422348E+03  0.16504501322E+04  0.90439124706E+02 0.  0.
         11    1    3    3    0    0  0.28035540290E+02  0.10824201817E+04  0.49068407775E+03  0.11887768106E+04  0.00000000000E+00 0.  1.
        -11    1    3    3    0    0 -0.37385109922E+02  0.43024449078E+03  0.16320014574E+03  0.46167332158E+03  0.00000000000E+00 0. -1.
         22    1    1    2    0    0  0.93495696323E+01 -0.15126646725E+04  0.83599419778E+03  0.17283310229E+04  0.00000000000E+00 0. -1.
<mgrwt>
<rscale>  0 0.30325607E+04</rscale>
<asrwt>0</asrwt>
<pdfrwt beam="1">  1        4 0.14530021E+00 0.30325607E+04</pdfrwt>
<pdfrwt beam="2">  1       -4 0.37451227E+00 0.30325607E+04</pdfrwt>
<totfact> 0.55952585E-03</totfact>
</mgrwt>
</event>
<event>
 6    1  0.5040916E-004  0.3330231E+04  0.7818608E-02  0.8155246E-01
         -2   -1    0    0    0  501 -0.00000000000E+00  0.00000000000E+00  0.18502448961E+04  0.18502448961E+04  0.00000000000E+00 0. -1.
          2   -1    0    0  501    0  0.00000000000E+00 -0.00000000000E+00 -0.14985091011E+04  0.14985091011E+04  0.00000000000E+00 0.  1.
         23    2    1    2    0    0  0.14830897144E+04 -0.66927429978E+03  0.52577740323E+03  0.17123635576E+04  0.90905919686E+02 0.  0.
         13    1    3    3    0    0  0.90406600695E+03 -0.43727283452E+03  0.36121169819E+03  0.10672472851E+04  0.00000000000E+00 0.  1.
        -13    1    3    3    0    0  0.57902370750E+03 -0.23200146525E+03  0.16456570504E+03  0.64511627246E+03  0.00000000000E+00 0. -1.
         22    1    1    2    0    0 -0.14830897144E+04  0.66927429978E+03 -0.17404160828E+03  0.16363904396E+04  0.00000000000E+00 0.  1.
<mgrwt>
<rscale>  0 0.33302305E+04</rscale>
<asrwt>0</asrwt>
<pdfrwt beam="1">  1        2 0.23053986E+00 0.33302305E+04</pdfrwt>
<pdfrwt beam="2">  1       -2 0.28465306E+00 0.33302305E+04</pdfrwt>
<totfact> 0.41798365E-01</totfact>
</mgrwt>
</event>
<event>
 6    1  0.5040916E-004  0.2643023E+04  0.7818608E-02  0.8353732E-01
          2   -1    0    0  501    0  0.00000000000E+00  0.00000000000E+00  0.90342883092E+03  0.90342883092E+03  0.00000000000E+00 0.  1.
         -2   -1    0    0    0  501 -0.00000000000E+00 -0.00000000000E+00 -0.19330714110E+04  0.19330714110E+04  0.00000000000E+00 0. -1.
         23    2    1    2    0    0  0.56278819834E+03 -0.32535759574E+03 -0.17482953953E+04  0.18674543245E+04  0.90888631962E+02 0.  0.
         13    1    3    3    0    0  0.31347884999E+03 -0.21469139638E+03 -0.11134177234E+04  0.11764609691E+04  0.00000000000E+00 0.  1.
        -13    1    3    3    0    0  0.24930934835E+03 -0.11066619936E+03 -0.63487767197E+03  0.69099335541E+03  0.00000000000E+00 0. -1.
         22    1    1    2    0    0 -0.56278819834E+03  0.32535759574E+03  0.71865281523E+03  0.96904591745E+03  0.00000000000E+00 0.  1.
<mgrwt>
<rscale>  0 0.26430228E+04</rscale>
<asrwt>0</asrwt>
<pdfrwt beam="1">  1        2 0.13898905E+00 0.26430228E+04</pdfrwt>
<pdfrwt beam="2">  1       -2 0.29739560E+00 0.26430228E+04</pdfrwt>
<totfact> 0.84765065E-01</totfact>
</mgrwt>
</event>
<event>
 6    1  0.5040916E-004  0.2660666E+04  0.7818608E-02  0.8347881E-01
         -2   -1    0    0    0  501 -0.00000000000E+00  0.00000000000E+00  0.11167682823E+04  0.11167682823E+04  0.00000000000E+00 0. -1.
          2   -1    0    0  501    0  0.00000000000E+00 -0.00000000000E+00 -0.15847389189E+04  0.15847389189E+04  0.00000000000E+00 0.  1.
         23    2    1    2    0    0 -0.85826691556E+03  0.28973403016E+03 -0.12213181674E+04  0.15233304705E+04  0.91376964799E+02 0.  0.
         11    1    3    3    0    0 -0.37971902700E+03  0.14669418582E+03 -0.61911247170E+03  0.74094937495E+03  0.00000000000E+00 0. -1.
        -11    1    3    3    0    0 -0.47854788856E+03  0.14303984434E+03 -0.60220569568E+03  0.78238109552E+03  0.00000000000E+00 0.  1.
         22    1    1    2    0    0  0.85826691556E+03 -0.28973403016E+03  0.75334753077E+03  0.11781767307E+04  0.00000000000E+00 0. -1.
<mgrwt>
<rscale>  0 0.26606662E+04</rscale>
<asrwt>0</asrwt>
<pdfrwt beam="1">  1        2 0.24380599E+00 0.26606662E+04</pdfrwt>
<pdfrwt beam="2">  1       -2 0.17181050E+00 0.26606662E+04</pdfrwt>
<totfact> 0.20716798E+00</totfact>
</mgrwt>
</event>
<event>
 6    1  0.5040916E-004  0.4571759E+04  0.7818608E-02  0.7898193E-01
         -2   -1    0    0    0  501 -0.00000000000E+00  0.00000000000E+00  0.16259575726E+04  0.16259575726E+04  0.00000000000E+00 0. -1.
          2   -1    0    0  501    0  0.00000000000E+00 -0.00000000000E+00 -0.32136422158E+04  0.32136422158E+04  0.00000000000E+00 0.  1.
         23    2    1    2    0    0 -0.13599475442E+04  0.41946416850E+02  0.11491052835E+04  0.17832562331E+04  0.91340108731E+02 0.  0.
         13    1    3    3    0    0 -0.24166108699E+03 -0.20538415191E+02  0.17780113441E+03  0.30072437690E+03  0.00000000000E+00 0.  1.
        -13    1    3    3    0    0 -0.11182864572E+04  0.62484832041E+02  0.97130414909E+03  0.14825318562E+04  0.00000000000E+00 0. -1.
         22    1    1    2    0    0  0.13599475442E+04 -0.41946416850E+02 -0.27367899267E+04  0.30563435553E+04  0.00000000000E+00 0.  1.
<mgrwt>
<rscale>  0 0.45717594E+04</rscale>
<asrwt>0</asrwt>
<pdfrwt beam="1">  1        2 0.49440649E+00 0.45717594E+04</pdfrwt>
<pdfrwt beam="2">  1       -2 0.25014732E+00 0.45717594E+04</pdfrwt>
<totfact> 0.61309826E-02</totfact>
</mgrwt>
</event>
<event>
 6    1  0.5040916E-004  0.3958021E+04  0.7818608E-02  0.8013069E-01
          2   -1    0    0  501    0  0.00000000000E+00  0.00000000000E+00  0.46142436279E+04  0.46142436279E+04  0.00000000000E+00 0.  1.
         -2   -1    0    0    0  501 -0.00000000000E+00 -0.00000000000E+00 -0.84878083938E+03  0.84878083938E+03  0.00000000000E+00 0. -1.
         23    2    1    2    0    0  0.34671714564E+03 -0.17552003454E+04  0.30478984617E+04  0.35353731516E+04  0.90759335929E+02 0.  0.
         13    1    3    3    0    0  0.33497367374E+02 -0.25233964836E+03  0.38157849204E+03  0.45869327153E+03  0.00000000000E+00 0. -1.
        -13    1    3    3    0    0  0.31321977827E+03 -0.15028606970E+04  0.26663199696E+04  0.30766798801E+04  0.00000000000E+00 0.  1.
         22    1    1    2    0    0 -0.34671714564E+03  0.17552003454E+04  0.71756432688E+03  0.19276513157E+04  0.00000000000E+00 0. -1.
<mgrwt>
<rscale>  0 0.39580205E+04</rscale>
<asrwt>0</asrwt>
<pdfrwt beam="1">  1        2 0.70988362E+00 0.39580205E+04</pdfrwt>
<pdfrwt beam="2">  1       -2 0.13058167E+00 0.39580205E+04</pdfrwt>
<totfact> 0.31860263E-02</totfact>
</mgrwt>
</event>
<event>
 6    1  0.5040916E-004  0.2995777E+04  0.7818608E-02  0.8244938E-01
         -2   -1    0    0    0  501 -0.00000000000E+00  0.00000000000E+00  0.14696503863E+04  0.14696503863E+04  0.00000000000E+00 0. -1.
          2   -1    0    0  501    0  0.00000000000E+00 -0.00000000000E+00 -0.15266695337E+04  0.15266695337E+04  0.00000000000E+00 0.  1.
         23    2    1    2    0    0 -0.12871588733E+03 -0.23962462844E+03  0.14432017791E+04  0.14716394386E+04  0.94358463720E+02 0.  0.
         11    1    3    3    0    0 -0.68151523797E+02 -0.42219170709E+02  0.34477970152E+03  0.35397758566E+03  0.00000000000E+00 0. -1.
        -11    1    3    3    0    0 -0.60564363533E+02 -0.19740545773E+03  0.10984220776E+04  0.11176618529E+04  0.00000000000E+00 0.  1.
         22    1    1    2    0    0  0.12871588733E+03  0.23962462844E+03 -0.15002209265E+04  0.15246804815E+04  0.00000000000E+00 0.  1.
<mgrwt>
<rscale>  0 0.29957773E+04</rscale>
<asrwt>0</asrwt>
<pdfrwt beam="1">  1        2 0.23487224E+00 0.29957773E+04</pdfrwt>
<pdfrwt beam="2">  1       -2 0.22610006E+00 0.29957773E+04</pdfrwt>
<totfact> 0.94976833E-01</totfact>
</mgrwt>
</event>
<event>
 6    1  0.5040916E-004  0.2723643E+04  0.7818608E-02  0.8327374E-01
          2   -1    0    0  501    0  0.00000000000E+00  0.00000000000E+00  0.84293319683E+03  0.84293319683E+03  0.00000000000E+00 0.  1.
         -2   -1    0    0    0  501 -0.00000000000E+00 -0.00000000000E+00 -0.22001235859E+04  0.22001235859E+04  0.00000000000E+00 0. -1.
         23    2    1    2    0    0 -0.44202223150E+03  0.38463561626E+03 -0.20508669395E+04  0.21350284973E+04  0.94674547782E+02 0.  0.
         13    1    3    3    0    0 -0.18381790190E+03  0.17184918365E+03 -0.10493794268E+04  0.10791285115E+04  0.00000000000E+00 0. -1.
        -13    1    3    3    0    0 -0.25820432960E+03  0.21278643262E+03 -0.10014875128E+04  0.10558999858E+04  0.00000000000E+00 0.  1.
         22    1    1    2    0    0  0.44202223150E+03 -0.38463561626E+03  0.69367655050E+03  0.90802828544E+03  0.00000000000E+00 0.  1.
<mgrwt>
<rscale>  0 0.27236426E+04</rscale>
<asrwt>0</asrwt>
<pdfrwt beam="1">  1        2 0.12968203E+00 0.27236426E+04</pdfrwt>
<pdfrwt beam="2">  1       -2 0.33848056E+00 0.27236426E+04</pdfrwt>
<totfact> 0.51665280E-01</totfact>
</mgrwt>
</event>
<event>
 6    1  0.5040916E-004  0.3112100E+04  0.7818608E-02  0.8212425E-01
          2   -1    0    0  501    0  0.00000000000E+00  0.00000000000E+00  0.34021787286E+04  0.34021787286E+04  0.00000000000E+00 0.  1.
         -2   -1    0    0    0  501 -0.00000000000E+00 -0.00000000000E+00 -0.71168839866E+03  0.71168839866E+03  0.00000000000E+00 0. -1.
         23    2    1    2    0    0  0.18218858257E+03  0.15348744765E+04  0.15678809744E+04  0.22035571777E+04  0.91548606027E+02 0.  0.
         11    1    3    3    0    0  0.77986812307E+02  0.96815897530E+03  0.10191097851E+04  0.14078346844E+04  0.00000000000E+00 0. -1.
        -11    1    3    3    0    0  0.10420177027E+03  0.56671550120E+03  0.54877118931E+03  0.79572249336E+03  0.00000000000E+00 0.  1.
         22    1    1    2    0    0 -0.18218858257E+03 -0.15348744765E+04  0.11226093555E+04  0.19103099495E+04  0.00000000000E+00 0. -1.
<mgrwt>
<rscale>  0 0.31120997E+04</rscale>
<asrwt>0</asrwt>
<pdfrwt beam="1">  1        2 0.52341210E+00 0.31120997E+04</pdfrwt>
<pdfrwt beam="2">  1       -2 0.10949052E+00 0.31120997E+04</pdfrwt>
<totfact> 0.53491829E-01</totfact>
</mgrwt>
</event>
<event>
 6    1  0.5040916E-004  0.1492279E+04  0.7818608E-02  0.8889603E-01
         -2   -1    0    0    0  501 -0.00000000000E+00  0.00000000000E+00  0.53163992832E+03  0.53163992832E+03  0.00000000000E+00 0. -1.
          2   -1    0    0  501    0  0.00000000000E+00 -0.00000000000E+00 -0.10471833145E+04  0.10471833145E+04  0.00000000000E+00 0.  1.
         23    2    1    2    0    0 -0.47345855206E+03 -0.26969808107E+03 -0.79367479501E+03  0.96705765370E+03  0.91546544957E+02 0.  0.
         11    1    3    3    0    0 -0.15691355862E+03 -0.76950199497E+02 -0.33047286359E+03  0.37383888462E+03  0.00000000000E+00 0. -1.
        -11    1    3    3    0    0 -0.31654499343E+03 -0.19274788157E+03 -0.46320193142E+03  0.59321876908E+03  0.00000000000E+00 0.  1.
         22    1    1    2    0    0  0.47345855206E+03  0.26969808107E+03  0.27813140884E+03  0.61176558912E+03  0.00000000000E+00 0.  1.
<mgrwt>
<rscale>  0 0.14922794E+04</rscale>
<asrwt>0</asrwt>
<pdfrwt beam="1">  1        2 0.16110512E+00 0.14922794E+04</pdfrwt>
<pdfrwt beam="2">  1       -2 0.81790758E-01 0.14922794E+04</pdfrwt>
<totfact> 0.29885715E+01</totfact>
</mgrwt>
</event>
<event>
 6    1  0.5040916E-004  0.5033171E+04  0.7818608E-02  0.7823411E-01
         -2   -1    0    0    0  501 -0.00000000000E+00  0.00000000000E+00  0.25386171168E+04  0.25386171168E+04  0.00000000000E+00 0. -1.
          2   -1    0    0  501    0  0.00000000000E+00 -0.00000000000E+00 -0.24947449825E+04  0.24947449825E+04  0.00000000000E+00 0.  1.
         23    2    1    2    0    0  0.18158794221E+04  0.77887816255E+03  0.15794567029E+04  0.25309454204E+04  0.83258496950E+02 0.  0.
         13    1    3    3    0    0  0.17236373981E+04  0.71975598766E+03  0.14839446097E+04  0.23855955581E+04  0.00000000000E+00 0. -1.
        -13    1    3    3    0    0  0.92242023917E+02  0.59122174892E+02  0.95512093180E+02  0.14534986235E+03  0.00000000000E+00 0.  1.
         22    1    1    2    0    0 -0.18158794221E+04 -0.77887816255E+03 -0.15355845685E+04  0.25024166789E+04  0.00000000000E+00 0.  1.
<mgrwt>
<rscale>  0 0.50331709E+04</rscale>
<asrwt>0</asrwt>
<pdfrwt beam="1">  1        2 0.38380692E+00 0.50331709E+04</pdfrwt>
<pdfrwt beam="2">  1       -2 0.39055648E+00 0.50331709E+04</pdfrwt>
<totfact> 0.21784406E-02</totfact>
</mgrwt>
</event>
<event>
 6    1  0.5040916E-004  0.2159791E+04  0.7818608E-02  0.8535353E-01
          1   -1    0    0  501    0  0.00000000000E+00  0.00000000000E+00  0.63935039952E+03  0.63935039952E+03  0.00000000000E+00 0.  1.
         -1   -1    0    0    0  501 -0.00000000000E+00 -0.00000000000E+00 -0.18239984583E+04  0.18239984583E+04  0.00000000000E+00 0. -1.
         23    2    1    2    0    0  0.43068544022E+03  0.90177759974E+03 -0.10542691720E+04  0.14555336754E+04  0.91662453546E+02 0.  0.
         11    1    3    3    0    0  0.14611332961E+03  0.37362359012E+03 -0.47252600167E+03  0.61985846323E+03  0.00000000000E+00 0.  1.
        -11    1    3    3    0    0  0.28457211060E+03  0.52815400961E+03 -0.58174317033E+03  0.83567521217E+03  0.00000000000E+00 0. -1.
         22    1    1    2    0    0 -0.43068544022E+03 -0.90177759974E+03 -0.13037888679E+03  0.10078151824E+04  0.00000000000E+00 0.  1.
<mgrwt>
<rscale>  0 0.21597909E+04</rscale>
<asrwt>0</asrwt>
<pdfrwt beam="1">  1        1 0.98361601E-01 0.21597909E+04</pdfrwt>
<pdfrwt beam="2">  1       -1 0.28061514E+00 0.21597909E+04</pdfrwt>
<totfact> 0.12595511E+00</totfact>
</mgrwt>
</event>
<event>
 6    1  0.5040916E-004  0.3078868E+04  0.7818608E-02  0.8221561E-01
          2   -1    0    0  501    0  0.00000000000E+00  0.00000000000E+00  0.14500232218E+04  0.14500232218E+04  0.00000000000E+00 0.  1.
         -2   -1    0    0    0  501 -0.00000000000E+00 -0.00000000000E+00 -0.16343584090E+04  0.16343584090E+04  0.00000000000E+00 0. -1.
         23    2    1    2    0    0 -0.83097366199E+03  0.81023877353E+03  0.91888646328E+03  0.14831002354E+04  0.90718679324E+02 0.  0.
         11    1    3    3    0    0 -0.20717099913E+03  0.15364222047E+03  0.22274494947E+03  0.34079475833E+03  0.00000000000E+00 0.  1.
        -11    1    3    3    0    0 -0.62380266286E+03  0.65659655306E+03  0.69614151380E+03  0.11423054771E+04  0.00000000000E+00 0. -1.
         22    1    1    2    0    0  0.83097366199E+03 -0.81023877353E+03 -0.11032216505E+04  0.16012813953E+04  0.00000000000E+00 0. -1.
<mgrwt>
<rscale>  0 0.30788684E+04</rscale>
<asrwt>0</asrwt>
<pdfrwt beam="1">  1        2 0.22308050E+00 0.30788684E+04</pdfrwt>
<pdfrwt beam="2">  1       -2 0.25143975E+00 0.30788684E+04</pdfrwt>
<totfact> 0.72560734E-01</totfact>
</mgrwt>
</event>
<event>
 6    1  0.5040916E-004  0.4450357E+04  0.7818608E-02  0.7919386E-01
         -2   -1    0    0    0  501 -0.00000000000E+00  0.00000000000E+00  0.15532533716E+04  0.15532533716E+04  0.00000000000E+00 0. -1.
          2   -1    0    0  501    0  0.00000000000E+00 -0.00000000000E+00 -0.31877728785E+04  0.31877728785E+04  0.00000000000E+00 0.  1.
         23    2    1    2    0    0 -0.13493015778E+04  0.47127974751E+03  0.99802890004E+03  0.17455245453E+04  0.89860474649E+02 0.  0.
         13    1    3    3    0    0 -0.48978417817E+03  0.21328535405E+03  0.35138045508E+03  0.63941176690E+03  0.00000000000E+00 0. -1.
        -13    1    3    3    0    0 -0.85951739959E+03  0.25799439346E+03  0.64664844496E+03  0.11061127784E+04  0.00000000000E+00 0.  1.
         22    1    1    2    0    0  0.13493015778E+04 -0.47127974751E+03 -0.26325484070E+04  0.29955017048E+04  0.00000000000E+00 0.  1.
<mgrwt>
<rscale>  0 0.44503568E+04</rscale>
<asrwt>0</asrwt>
<pdfrwt beam="1">  1        2 0.49042659E+00 0.44503568E+04</pdfrwt>
<pdfrwt beam="2">  1       -2 0.23896206E+00 0.44503568E+04</pdfrwt>
<totfact> 0.75469805E-02</totfact>
</mgrwt>
</event>
<event>
 6    1  0.5040916E-004  0.2208197E+04  0.7818608E-02  0.8515024E-01
          2   -1    0    0  501    0  0.00000000000E+00  0.00000000000E+00  0.19623167498E+04  0.19623167498E+04  0.00000000000E+00 0.  1.
         -2   -1    0    0    0  501 -0.00000000000E+00 -0.00000000000E+00 -0.62122172640E+03  0.62122172640E+03  0.00000000000E+00 0. -1.
         23    2    1    2    0    0 -0.56420699807E+03 -0.87613612064E+03  0.10917152686E+04  0.15120281866E+04  0.91885639798E+02 0.  0.
         13    1    3    3    0    0 -0.21442556029E+03 -0.32600498536E+03  0.34576334095E+03  0.52135387150E+03  0.00000000000E+00 0.  1.
        -13    1    3    3    0    0 -0.34978143777E+03 -0.55013113529E+03  0.74595192764E+03  0.99067431509E+03  0.00000000000E+00 0. -1.
         22    1    1    2    0    0  0.56420699807E+03  0.87613612064E+03  0.24937975476E+03  0.10715102896E+04  0.00000000000E+00 0.  1.
<mgrwt>
<rscale>  0 0.22081973E+04</rscale>
<asrwt>0</asrwt>
<pdfrwt beam="1">  1        2 0.30189488E+00 0.22081973E+04</pdfrwt>
<pdfrwt beam="2">  1       -2 0.95572574E-01 0.22081973E+04</pdfrwt>
<totfact> 0.58853436E+00</totfact>
</mgrwt>
</event>
<event>
 6    1  0.5040916E-004  0.7948045E+03  0.7818608E-02  0.9567568E-01
         -2   -1    0    0    0  501 -0.00000000000E+00  0.00000000000E+00  0.12752827461E+03  0.12752827461E+03  0.00000000000E+00 0. -1.
          2   -1    0    0  501    0  0.00000000000E+00 -0.00000000000E+00 -0.12383807502E+04  0.12383807502E+04  0.00000000000E+00 0.  1.
         23    2    1    2    0    0  0.27083426421E+03 -0.22923383511E+03 -0.85059301951E+03  0.92587001028E+03  0.88472827864E+02 0.  0.
         11    1    3    3    0    0  0.16972447227E+03 -0.13794454413E+03 -0.40985826740E+03  0.46456312068E+03  0.00000000000E+00 0. -1.
        -11    1    3    3    0    0  0.10110979194E+03 -0.91289290979E+02 -0.44073475211E+03  0.46130688960E+03  0.00000000000E+00 0.  1.
         22    1    1    2    0    0 -0.27083426421E+03  0.22923383511E+03 -0.26025945612E+03  0.44003901455E+03  0.00000000000E+00 0. -1.
<mgrwt>
<rscale>  0 0.79480453E+03</rscale>
<asrwt>0</asrwt>
<pdfrwt beam="1">  1        2 0.19052012E+00 0.79480453E+03</pdfrwt>
<pdfrwt beam="2">  1       -2 0.19619734E-01 0.79480453E+03</pdfrwt>
<totfact> 0.39920358E+02</totfact>
</mgrwt>
</event>
<event>
 6    1  0.5040916E-004  0.4547563E+03  0.7818608E-02  0.1026313E+00
          2   -1    0    0  501    0  0.00000000000E+00  0.00000000000E+00  0.29263110633E+03  0.29263110633E+03  0.00000000000E+00 0.  1.
         -2   -1    0    0    0  501 -0.00000000000E+00 -0.00000000000E+00 -0.17667572466E+03  0.17667572466E+03  0.00000000000E+00 0. -1.
         23    2    1    2    0    0 -0.77389798521E+02 -0.19111816264E+03 -0.15155453180E+02  0.22495997912E+03  0.88667758719E+02 0.  0.
         13    1    3    3    0    0 -0.75942721822E+02 -0.71724991644E+02 -0.15189704703E+02  0.10555803405E+03  0.00000000000E+00 0.  1.
        -13    1    3    3    0    0 -0.14470766991E+01 -0.11939317100E+03  0.34251522123E-01  0.11940194506E+03  0.00000000000E+00 0. -1.
         22    1    1    2    0    0  0.77389798521E+02  0.19111816264E+03  0.13111083485E+03  0.24434685188E+03  0.00000000000E+00 0. -1.
<mgrwt>
<rscale>  0 0.45475625E+03</rscale>
<asrwt>0</asrwt>
<pdfrwt beam="1">  1        2 0.45020170E-01 0.45475625E+03</pdfrwt>
<pdfrwt beam="2">  1       -2 0.27180881E-01 0.45475625E+03</pdfrwt>
<totfact> 0.13842409E+03</totfact>
</mgrwt>
</event>
<event>
 6    1  0.5040916E-004  0.1514120E+04  0.7818608E-02  0.8875118E-01
          2   -1    0    0  501    0  0.00000000000E+00  0.00000000000E+00  0.12569458785E+04  0.12569458785E+04  0.00000000000E+00 0.  1.
         -2   -1    0    0    0  501 -0.00000000000E+00 -0.00000000000E+00 -0.45597787224E+03  0.45597787224E+03  0.00000000000E+00 0. -1.
         23    2    1    2    0    0  0.15606226993E+03 -0.69555046085E+03  0.68052756622E+03  0.98997715843E+03  0.93761026737E+02 0.  0.
         11    1    3    3    0    0  0.71165763806E+02 -0.14695485705E+03  0.17160396905E+03  0.23687173353E+03  0.00000000000E+00 0.  1.
        -11    1    3    3    0    0  0.84896506120E+02 -0.54859560380E+03  0.50892359717E+03  0.75310542490E+03  0.00000000000E+00 0. -1.
         22    1    1    2    0    0 -0.15606226993E+03  0.69555046085E+03  0.12044043999E+03  0.72294659227E+03  0.00000000000E+00 0. -1.
<mgrwt>
<rscale>  0 0.15141196E+04</rscale>
<asrwt>0</asrwt>
<pdfrwt beam="1">  1        2 0.19337629E+00 0.15141196E+04</pdfrwt>
<pdfrwt beam="2">  1       -2 0.70150442E-01 0.15141196E+04</pdfrwt>
<totfact> 0.31291013E+01</totfact>
</mgrwt>
</event>
<event>
 6    1  0.5040916E-004  0.3913872E+04  0.7818608E-02  0.8022150E-01
          2   -1    0    0  501    0  0.00000000000E+00  0.00000000000E+00  0.30181690486E+04  0.30181690486E+04  0.00000000000E+00 0.  1.
         -2   -1    0    0    0  501 -0.00000000000E+00 -0.00000000000E+00 -0.12688484230E+04  0.12688484230E+04  0.00000000000E+00 0. -1.
         23    2    1    2    0    0  0.11695301813E+04  0.49185910810E+02  0.25913750217E+04  0.28450480875E+04  0.94095792509E+02 0.  0.
         11    1    3    3    0    0  0.68176159810E+03 -0.12072344137E+02  0.15595208086E+04  0.17020721990E+04  0.00000000000E+00 0. -1.
        -11    1    3    3    0    0  0.48776858318E+03  0.61258254947E+02  0.10318542131E+04  0.11429758885E+04  0.00000000000E+00 0.  1.
         22    1    1    2    0    0 -0.11695301813E+04 -0.49185910810E+02 -0.84205439606E+03  0.14419693841E+04  0.00000000000E+00 0. -1.
<mgrwt>
<rscale>  0 0.39138723E+04</rscale>
<asrwt>0</asrwt>
<pdfrwt beam="1">  1        2 0.46433370E+00 0.39138723E+04</pdfrwt>
<pdfrwt beam="2">  1       -2 0.19520745E+00 0.39138723E+04</pdfrwt>
<totfact> 0.19261530E-01</totfact>
</mgrwt>
</event>
<event>
 6    1  0.5040916E-004  0.1914530E+04  0.7818608E-02  0.8647657E-01
         -2   -1    0    0    0  501 -0.00000000000E+00  0.00000000000E+00  0.71885045888E+03  0.71885045888E+03  0.00000000000E+00 0. -1.
          2   -1    0    0  501    0  0.00000000000E+00 -0.00000000000E+00 -0.12747528928E+04  0.12747528928E+04  0.00000000000E+00 0.  1.
         23    2    1    2    0    0  0.85624037433E+02 -0.41441439567E+03 -0.11702352372E+04  0.12476304565E+04  0.89780167362E+02 0.  0.
         11    1    3    3    0    0  0.47290208681E+02 -0.31253925030E+03 -0.96295388801E+03  0.10135074431E+04  0.00000000000E+00 0.  1.
        -11    1    3    3    0    0  0.38333828752E+02 -0.10187514537E+03 -0.20728134923E+03  0.23412301341E+03  0.00000000000E+00 0. -1.
         22    1    1    2    0    0 -0.85624037433E+02  0.41441439567E+03  0.61433280330E+03  0.74597289517E+03  0.00000000000E+00 0. -1.
<mgrwt>
<rscale>  0 0.19145304E+04</rscale>
<asrwt>0</asrwt>
<pdfrwt beam="1">  1        2 0.19611583E+00 0.19145304E+04</pdfrwt>
<pdfrwt beam="2">  1       -2 0.11059238E+00 0.19145304E+04</pdfrwt>
<totfact> 0.10378249E+01</totfact>
</mgrwt>
</event>
<event>
 6    1  0.5040916E-004  0.1994999E+04  0.7818608E-02  0.8608962E-01
          2   -1    0    0  501    0  0.00000000000E+00  0.00000000000E+00  0.15263527377E+04  0.15263527377E+04  0.00000000000E+00 0.  1.
         -2   -1    0    0    0  501 -0.00000000000E+00 -0.00000000000E+00 -0.65188402683E+03  0.65188402683E+03  0.00000000000E+00 0. -1.
         23    2    1    2    0    0 -0.42067727546E+03  0.35014885382E+03 -0.46970354506E+03  0.72690198458E+03  0.90506823089E+02 0.  0.
         11    1    3    3    0    0 -0.94601904528E+02  0.12744740522E+03 -0.15650001984E+03  0.22290046579E+03  0.00000000000E+00 0.  1.
        -11    1    3    3    0    0 -0.32607537093E+03  0.22270144860E+03 -0.31320352521E+03  0.50400151879E+03  0.00000000000E+00 0. -1.
         22    1    1    2    0    0  0.42067727546E+03 -0.35014885382E+03  0.13441722559E+04  0.14513347799E+04  0.00000000000E+00 0.  1.
<mgrwt>
<rscale>  0 0.19949987E+04</rscale>
<asrwt>0</asrwt>
<pdfrwt beam="1">  1        2 0.23482350E+00 0.19949987E+04</pdfrwt>
<pdfrwt beam="2">  1       -2 0.10028985E+00 0.19949987E+04</pdfrwt>
<totfact> 0.93536589E+00</totfact>
</mgrwt>
</event>
<event>
 6    1  0.5040916E-004  0.3261550E+04  0.7818608E-02  0.8172748E-01
          2   -1    0    0  501    0  0.00000000000E+00  0.00000000000E+00  0.19669370319E+04  0.19669370319E+04  0.00000000000E+00 0.  1.
         -2   -1    0    0    0  501 -0.00000000000E+00 -0.00000000000E+00 -0.13520651540E+04  0.13520651540E+04  0.00000000000E+00 0. -1.
         23    2    1    2    0    0  0.33543221172E+03 -0.15884174607E+04  0.16697961659E+03  0.16349023444E+04  0.97152896590E+02 0.  0.
         11    1    3    3    0    0  0.19519071275E+03 -0.98058598795E+03  0.56712638069E+02  0.10014312844E+04  0.00000000000E+00 0. -1.
        -11    1    3    3    0    0  0.14024149898E+03 -0.60783147275E+03  0.11026697852E+03  0.63347105999E+03  0.00000000000E+00 0.  1.
         22    1    1    2    0    0 -0.33543221172E+03  0.15884174607E+04  0.44789226134E+03  0.16840998414E+04  0.00000000000E+00 0.  1.
<mgrwt>
<rscale>  0 0.32615500E+04</rscale>
<asrwt>0</asrwt>
<pdfrwt beam="1">  1        2 0.30260570E+00 0.32615500E+04</pdfrwt>
<pdfrwt beam="2">  1       -2 0.20801002E+00 0.32615500E+04</pdfrwt>
<totfact> 0.68882241E-01</totfact>
</mgrwt>
</event>
<event>
 6    1  0.5040916E-004  0.2284765E+04  0.7818608E-02  0.8483952E-01
          2   -1    0    0  501    0  0.00000000000E+00  0.00000000000E+00  0.17745094763E+04  0.17745094763E+04  0.00000000000E+00 0.  1.
         -2   -1    0    0    0  501 -0.00000000000E+00 -0.00000000000E+00 -0.73543596566E+03  0.73543596566E+03  0.00000000000E+00 0. -1.
         23    2    1    2    0    0 -0.16658893163E+03 -0.78024438966E+03 -0.37513318393E+03  0.88621093326E+03  0.90065158671E+02 0.  0.
         13    1    3    3    0    0 -0.12244037497E+03 -0.46417449414E+03 -0.26665657254E+03  0.54914054131E+03  0.00000000000E+00 0. -1.
        -13    1    3    3    0    0 -0.44148556659E+02 -0.31606989552E+03 -0.10847661139E+03  0.33707039195E+03  0.00000000000E+00 0.  1.
         22    1    1    2    0    0  0.16658893163E+03  0.78024438966E+03  0.14142066945E+04  0.16237345087E+04  0.00000000000E+00 0.  1.
<mgrwt>
<rscale>  0 0.22847653E+04</rscale>
<asrwt>0</asrwt>
<pdfrwt beam="1">  1        2 0.27300146E+00 0.22847653E+04</pdfrwt>
<pdfrwt beam="2">  1       -2 0.11314399E+00 0.22847653E+04</pdfrwt>
<totfact> 0.49651372E+00</totfact>
</mgrwt>
</event>
<event>
 6    1  0.5833323E-004  0.3155348E+04  0.7818608E-02  0.8200710E-01
          2   -1    0    0  501    0  0.00000000000E+00  0.00000000000E+00  0.20146767756E+04  0.20146767756E+04  0.00000000000E+00 0.  1.
         -2   -1    0    0    0  501 -0.00000000000E+00 -0.00000000000E+00 -0.12354616087E+04  0.12354616087E+04  0.00000000000E+00 0. -1.
         23    2    1    2    0    0 -0.33864916796E+03  0.14306298794E+04 -0.19610986137E+03  0.14858696912E+04  0.89244331163E+02 0.  0.
         11    1    3    3    0    0 -0.80744241929E+02  0.49386517237E+03 -0.90333119316E+02  0.50851009186E+03  0.00000000000E+00 0. -1.
        -11    1    3    3    0    0 -0.25790492603E+03  0.93676470703E+03 -0.10577674205E+03  0.97735959931E+03  0.00000000000E+00 0.  1.
         22    1    1    2    0    0  0.33864916796E+03 -0.14306298794E+04  0.97532502828E+03  0.17642686931E+04  0.00000000000E+00 0.  1.
<mgrwt>
<rscale>  0 0.31553484E+04</rscale>
<asrwt>0</asrwt>
<pdfrwt beam="1">  1        2 0.30995027E+00 0.31553484E+04</pdfrwt>
<pdfrwt beam="2">  1       -2 0.19007102E+00 0.31553484E+04</pdfrwt>
<totfact> 0.85805191E-01</totfact>
</mgrwt>
</event>
<event>
 6    1  0.5040916E-004  0.1510889E+04  0.7818608E-02  0.8877244E-01
          2   -1    0    0  501    0  0.00000000000E+00  0.00000000000E+00  0.17622726597E+04  0.17622726597E+04  0.00000000000E+00 0.  1.
         -2   -1    0    0    0  501 -0.00000000000E+00 -0.00000000000E+00 -0.32384117964E+03  0.32384117964E+03  0.00000000000E+00 0. -1.
         23    2    1    2    0    0 -0.48162518974E+02 -0.50898830739E+03 -0.40890361610E+02  0.52093594640E+03  0.91178469418E+02 0.  0.
         11    1    3    3    0    0  0.10883480426E+02 -0.34253012337E+03 -0.28096606327E+02  0.34385280986E+03  0.00000000000E+00 0.  1.
        -11    1    3    3    0    0 -0.59045999400E+02 -0.16645818403E+03 -0.12793755283E+02  0.17708313655E+03  0.00000000000E+00 0. -1.
         22    1    1    2    0    0  0.48162518974E+02  0.50898830739E+03  0.14793218417E+04  0.15651778929E+04  0.00000000000E+00 0.  1.
<mgrwt>
<rscale>  0 0.15108891E+04</rscale>
<asrwt>0</asrwt>
<pdfrwt beam="1">  1        2 0.27111886E+00 0.15108891E+04</pdfrwt>
<pdfrwt beam="2">  1       -2 0.49821721E-01 0.15108891E+04</pdfrwt>
<totfact> 0.33321801E+01</totfact>
</mgrwt>
</event>
<event>
 6    1  0.5040916E-004  0.3498874E+04  0.7818608E-02  0.8114057E-01
          2   -1    0    0  501    0  0.00000000000E+00  0.00000000000E+00  0.33295338392E+04  0.33295338392E+04  0.00000000000E+00 0.  1.
         -2   -1    0    0    0  501 -0.00000000000E+00 -0.00000000000E+00 -0.91920667649E+03  0.91920667649E+03  0.00000000000E+00 0. -1.
         23    2    1    2    0    0  0.52117668319E+03 -0.10302180276E+04 -0.38810068751E+03  0.12215020460E+04  0.92036869526E+02 0.  0.
         13    1    3    3    0    0  0.24895852245E+03 -0.39262489960E+03 -0.15136157455E+03  0.48892226778E+03  0.00000000000E+00 0. -1.
        -13    1    3    3    0    0  0.27221816074E+03 -0.63759312796E+03 -0.23673911296E+03  0.73257977823E+03  0.00000000000E+00 0.  1.
         22    1    1    2    0    0 -0.52117668319E+03  0.10302180276E+04  0.27984278502E+04  0.30272384697E+04  0.00000000000E+00 0.  1.
<mgrwt>
<rscale>  0 0.34988740E+04</rscale>
<asrwt>0</asrwt>
<pdfrwt beam="1">  1        2 0.51223597E+00 0.34988740E+04</pdfrwt>
<pdfrwt beam="2">  1       -2 0.14141641E+00 0.34988740E+04</pdfrwt>
<totfact> 0.30559518E-01</totfact>
</mgrwt>
</event>
<event>
 6    1  0.5040916E-004  0.1391197E+04  0.7818608E-02  0.8960216E-01
          2   -1    0    0  501    0  0.00000000000E+00  0.00000000000E+00  0.93009336283E+03  0.93009336283E+03  0.00000000000E+00 0.  1.
         -2   -1    0    0    0  501 -0.00000000000E+00 -0.00000000000E+00 -0.52022403891E+03  0.52022403891E+03  0.00000000000E+00 0. -1.
         23    2    1    2    0    0 -0.22751716280E+03 -0.13305920732E+03  0.87346723254E+03  0.91703339402E+03  0.92392788734E+02 0.  0.
         11    1    3    3    0    0 -0.10125113676E+03 -0.71643366588E+02  0.55975233245E+03  0.57332995592E+03  0.00000000000E+00 0. -1.
        -11    1    3    3    0    0 -0.12626602604E+03 -0.61415840735E+02  0.31371490008E+03  0.34370343810E+03  0.00000000000E+00 0.  1.
         22    1    1    2    0    0  0.22751716280E+03  0.13305920732E+03 -0.46359790861E+03  0.53328400772E+03  0.00000000000E+00 0. -1.
<mgrwt>
<rscale>  0 0.13911965E+04</rscale>
<asrwt>0</asrwt>
<pdfrwt beam="1">  1        2 0.14309129E+00 0.13911965E+04</pdfrwt>
<pdfrwt beam="2">  1       -2 0.80034468E-01 0.13911965E+04</pdfrwt>
<totfact> 0.37653343E+01</totfact>
</mgrwt>
</event>
<event>
 6    1  0.5040916E-004  0.3772165E+04  0.7818608E-02  0.8052155E-01
          1   -1    0    0  501    0  0.00000000000E+00  0.00000000000E+00  0.12153800188E+04  0.12153800188E+04  0.00000000000E+00 0.  1.
         -1   -1    0    0    0  501 -0.00000000000E+00 -0.00000000000E+00 -0.29269091874E+04  0.29269091874E+04  0.00000000000E+00 0. -1.
         23    2    1    2    0    0 -0.11846160529E+04  0.41343521261E+03 -0.24012176867E+04  0.27105370909E+04  0.83192997532E+02 0.  0.
         13    1    3    3    0    0 -0.70874684013E+03  0.25919980230E+03 -0.13585977616E+04  0.15541217773E+04  0.00000000000E+00 0.  1.
        -13    1    3    3    0    0 -0.47586921273E+03  0.15423541030E+03 -0.10426199251E+04  0.11564153136E+04  0.00000000000E+00 0. -1.
         22    1    1    2    0    0  0.11846160529E+04 -0.41343521261E+03  0.68968851799E+03  0.14317521153E+04  0.00000000000E+00 0.  1.
<mgrwt>
<rscale>  0 0.37721649E+04</rscale>
<asrwt>0</asrwt>
<pdfrwt beam="1">  1        1 0.18698154E+00 0.37721649E+04</pdfrwt>
<pdfrwt beam="2">  1       -1 0.45029371E+00 0.37721649E+04</pdfrwt>
<totfact> 0.26733551E-02</totfact>
</mgrwt>
</event>
<event>
 6    1  0.5040916E-004  0.2063939E+04  0.7818608E-02  0.8577297E-01
         -2   -1    0    0    0  501 -0.00000000000E+00  0.00000000000E+00  0.72556810756E+03  0.72556810756E+03  0.00000000000E+00 0. -1.
          2   -1    0    0  501    0  0.00000000000E+00 -0.00000000000E+00 -0.14677611662E+04  0.14677611662E+04  0.00000000000E+00 0.  1.
         23    2    1    2    0    0 -0.42278748149E+03  0.85763473610E+03  0.35183095344E+02  0.96101426539E+03  0.89576632059E+02 0.  0.
         11    1    3    3    0    0 -0.71740639839E+02  0.19931753499E+03 -0.20777545329E+02  0.21285183943E+03  0.00000000000E+00 0. -1.
        -11    1    3    3    0    0 -0.35104684165E+03  0.65831720111E+03  0.55960640673E+02  0.74816242596E+03  0.00000000000E+00 0.  1.
         22    1    1    2    0    0  0.42278748149E+03 -0.85763473610E+03 -0.77737615398E+03  0.12323150084E+04  0.00000000000E+00 0.  1.
<mgrwt>
<rscale>  0 0.20639387E+04</rscale>
<asrwt>0</asrwt>
<pdfrwt beam="1">  1        2 0.22580941E+00 0.20639387E+04</pdfrwt>
<pdfrwt beam="2">  1       -2 0.11162586E+00 0.20639387E+04</pdfrwt>
<totfact> 0.77593195E+00</totfact>
</mgrwt>
</event>
<event>
 6    1  0.5040916E-004  0.1429586E+04  0.7818608E-02  0.8932677E-01
          2   -1    0    0  501    0  0.00000000000E+00  0.00000000000E+00  0.17737293345E+04  0.17737293345E+04  0.00000000000E+00 0.  1.
         -2   -1    0    0    0  501 -0.00000000000E+00 -0.00000000000E+00 -0.28805368001E+03  0.28805368001E+03  0.00000000000E+00 0. -1.
         23    2    1    2    0    0 -0.15800985982E+03  0.18052911315E+03  0.17125616494E+04  0.17315783339E+04  0.89096840243E+02 0.  0.
         13    1    3    3    0    0 -0.32086058206E+02  0.82045246540E+02  0.41792858505E+03  0.42711267812E+03  0.00000000000E+00 0. -1.
        -13    1    3    3    0    0 -0.12592380161E+03  0.98483866609E+02  0.12946330643E+04  0.13044656557E+04  0.00000000000E+00 0.  1.
         22    1    1    2    0    0  0.15800985982E+03 -0.18052911315E+03 -0.22688599483E+03  0.33020468068E+03  0.00000000000E+00 0. -1.
<mgrwt>
<rscale>  0 0.14295863E+04</rscale>
<asrwt>0</asrwt>
<pdfrwt beam="1">  1        2 0.27288143E+00 0.14295863E+04</pdfrwt>
<pdfrwt beam="2">  1       -2 0.44315952E-01 0.14295863E+04</pdfrwt>
<totfact> 0.41849854E+01</totfact>
</mgrwt>
</event>
<event>
 6    1  0.5040916E-004  0.4296324E+04  0.7818608E-02  0.7947298E-01
         -2   -1    0    0    0  501 -0.00000000000E+00  0.00000000000E+00  0.20300692930E+04  0.20300692930E+04  0.00000000000E+00 0. -1.
          2   -1    0    0  501    0  0.00000000000E+00 -0.00000000000E+00 -0.22731246592E+04  0.22731246592E+04  0.00000000000E+00 0.  1.
         23    2    1    2    0    0 -0.87545503888E+03  0.19582989090E+04 -0.24213165293E+02  0.21469824480E+04  0.87127564443E+02 0.  0.
         13    1    3    3    0    0 -0.78383026867E+03  0.17952221292E+04 -0.44302217593E+01  0.19588854000E+04  0.00000000000E+00 0.  1.
        -13    1    3    3    0    0 -0.91624770215E+02  0.16307677981E+03 -0.19782943533E+02  0.18809704805E+03  0.00000000000E+00 0. -1.
         22    1    1    2    0    0  0.87545503888E+03 -0.19582989090E+04 -0.21884220088E+03  0.21562115043E+04  0.00000000000E+00 0. -1.
<mgrwt>
<rscale>  0 0.42963243E+04</rscale>
<asrwt>0</asrwt>
<pdfrwt beam="1">  1        2 0.34971149E+00 0.42963243E+04</pdfrwt>
<pdfrwt beam="2">  1       -2 0.31231835E+00 0.42963243E+04</pdfrwt>
<totfact> 0.96582301E-02</totfact>
</mgrwt>
</event>
<event>
 6    1  0.5040916E-004  0.2773865E+04  0.7818608E-02  0.8311428E-01
         -2   -1    0    0    0  501 -0.00000000000E+00  0.00000000000E+00  0.71733107843E+03  0.71733107843E+03  0.00000000000E+00 0. -1.
          2   -1    0    0  501    0  0.00000000000E+00 -0.00000000000E+00 -0.26815813653E+04  0.26815813653E+04  0.00000000000E+00 0.  1.
         23    2    1    2    0    0  0.85283852564E+03 -0.10046171987E+04 -0.45948903130E+03  0.13986885305E+04  0.92790994202E+02 0.  0.
         11    1    3    3    0    0  0.68592567700E+03 -0.82092500605E+03 -0.33485936796E+03  0.11209561527E+04  0.00000000000E+00 0.  1.
        -11    1    3    3    0    0  0.16691284864E+03 -0.18369219269E+03 -0.12462966333E+03  0.27773237780E+03  0.00000000000E+00 0. -1.
         22    1    1    2    0    0 -0.85283852564E+03  0.10046171987E+04 -0.15047612555E+04  0.20002239132E+04  0.00000000000E+00 0. -1.
<mgrwt>
<rscale>  0 0.27738649E+04</rscale>
<asrwt>0</asrwt>
<pdfrwt beam="1">  1        2 0.41255098E+00 0.27738649E+04</pdfrwt>
<pdfrwt beam="2">  1       -2 0.11035863E+00 0.27738649E+04</pdfrwt>
<totfact> 0.15475607E+00</totfact>
</mgrwt>
</event>
<event>
 6    1  0.5040916E-004  0.2268840E+04  0.7818608E-02  0.8490309E-01
          2   -1    0    0  501    0  0.00000000000E+00  0.00000000000E+00  0.28274822209E+04  0.28274822209E+04  0.00000000000E+00 0.  1.
         -2   -1    0    0    0  501 -0.00000000000E+00 -0.00000000000E+00 -0.45514308329E+03  0.45514308329E+03  0.00000000000E+00 0. -1.
         23    2    1    2    0    0 -0.39944550775E+03  0.66465275655E+03  0.23824221696E+04  0.25071114952E+04  0.91392858200E+02 0.  0.
         13    1    3    3    0    0 -0.73825760407E+02  0.19393738559E+03  0.68954471211E+03  0.72009295402E+03  0.00000000000E+00 0. -1.
        -13    1    3    3    0    0 -0.32561974734E+03  0.47071537096E+03  0.16928774575E+04  0.17870185412E+04  0.00000000000E+00 0.  1.
         22    1    1    2    0    0  0.39944550775E+03 -0.66465275655E+03 -0.10083031996E+02  0.77551380902E+03  0.00000000000E+00 0. -1.
<mgrwt>
<rscale>  0 0.22688402E+04</rscale>
<asrwt>0</asrwt>
<pdfrwt beam="1">  1        2 0.43499726E+00 0.22688402E+04</pdfrwt>
<pdfrwt beam="2">  1       -2 0.70022014E-01 0.22688402E+04</pdfrwt>
<totfact> 0.37591487E+00</totfact>
</mgrwt>
</event>
<event>
 6    1  0.5040916E-004  0.3620183E+04  0.7818608E-02  0.8085884E-01
          2   -1    0    0  501    0  0.00000000000E+00  0.00000000000E+00  0.36013182509E+04  0.36013182509E+04  0.00000000000E+00 0.  1.
         -2   -1    0    0    0  501 -0.00000000000E+00 -0.00000000000E+00 -0.90978684217E+03  0.90978684217E+03  0.00000000000E+00 0. -1.
         23    2    1    2    0    0  0.87849084840E+03 -0.14512591949E+04  0.56391133638E+03  0.17899533895E+04  0.89653330938E+02 0.  0.
         11    1    3    3    0    0  0.21769653033E+03 -0.43694821081E+03  0.15522628614E+03  0.51226040073E+03  0.00000000000E+00 0.  1.
        -11    1    3    3    0    0  0.66079431807E+03 -0.10143109841E+04  0.40868505024E+03  0.12776929888E+04  0.00000000000E+00 0. -1.
         22    1    1    2    0    0 -0.87849084840E+03  0.14512591949E+04  0.21276200724E+04  0.27211517036E+04  0.00000000000E+00 0. -1.
<mgrwt>
<rscale>  0 0.36201834E+04</rscale>
<asrwt>0</asrwt>
<pdfrwt beam="1">  1        2 0.55404895E+00 0.36201834E+04</pdfrwt>
<pdfrwt beam="2">  1       -2 0.13996721E+00 0.36201834E+04</pdfrwt>
<totfact> 0.20106077E-01</totfact>
</mgrwt>
</event>
<event>
 6    1  0.5040916E-004  0.3071408E+04  0.7818608E-02  0.8223629E-01
          2   -1    0    0  501    0  0.00000000000E+00  0.00000000000E+00  0.11192461742E+04  0.11192461742E+04  0.00000000000E+00 0.  1.
         -2   -1    0    0    0  501 -0.00000000000E+00 -0.00000000000E+00 -0.21071213587E+04  0.21071213587E+04  0.00000000000E+00 0. -1.
         23    2    1    2    0    0 -0.44656471324E+03  0.44236918315E+03 -0.19647614195E+04  0.20647233303E+04  0.87661038967E+02 0.  0.
         13    1    3    3    0    0 -0.23440787851E+03  0.29001608320E+03 -0.11980217670E+04  0.12547161178E+04  0.00000000000E+00 0.  1.
        -13    1    3    3    0    0 -0.21215683473E+03  0.15235309996E+03 -0.76673965255E+03  0.81000721255E+03  0.00000000000E+00 0. -1.
         22    1    1    2    0    0  0.44656471324E+03 -0.44236918315E+03  0.97688623497E+03  0.11616442026E+04  0.00000000000E+00 0.  1.
<mgrwt>
<rscale>  0 0.30714085E+04</rscale>
<asrwt>0</asrwt>
<pdfrwt beam="1">  1        2 0.17219172E+00 0.30714085E+04</pdfrwt>
<pdfrwt beam="2">  1       -2 0.32417252E+00 0.30714085E+04</pdfrwt>
<totfact> 0.40696986E-01</totfact>
</mgrwt>
</event>
<event>
 6    1  0.5040916E-004  0.1839240E+04  0.7818608E-02  0.8685706E-01
         -2   -1    0    0    0  501 -0.00000000000E+00  0.00000000000E+00  0.56112014932E+03  0.56112014932E+03  0.00000000000E+00 0. -1.
          2   -1    0    0  501    0  0.00000000000E+00 -0.00000000000E+00 -0.15071657801E+04  0.15071657801E+04  0.00000000000E+00 0.  1.
         23    2    1    2    0    0  0.60829596424E+03  0.42687402864E+03  0.13089296928E+03  0.75983563815E+03  0.89284999592E+02 0.  0.
         13    1    3    3    0    0  0.26415574748E+03  0.20462574999E+03  0.10103791906E+03  0.34908253690E+03  0.00000000000E+00 0. -1.
        -13    1    3    3    0    0  0.34414021676E+03  0.22224827865E+03  0.29855050227E+02  0.41075310124E+03  0.00000000000E+00 0.  1.
         22    1    1    2    0    0 -0.60829596424E+03 -0.42687402864E+03 -0.10769386000E+04  0.13084502913E+04  0.00000000000E+00 0. -1.
<mgrwt>
<rscale>  0 0.18392402E+04</rscale>
<asrwt>0</asrwt>
<pdfrwt beam="1">  1        2 0.23187166E+00 0.18392402E+04</pdfrwt>
<pdfrwt beam="2">  1       -2 0.86326177E-01 0.18392402E+04</pdfrwt>
<totfact> 0.13765627E+01</totfact>
</mgrwt>
</event>
<event>
 6    1  0.5040916E-004  0.2187550E+04  0.7818608E-02  0.8523628E-01
          2   -1    0    0  501    0  0.00000000000E+00  0.00000000000E+00  0.33544813152E+04  0.33544813152E+04  0.00000000000E+00 0.  1.
         -2   -1    0    0    0  501 -0.00000000000E+00 -0.00000000000E+00 -0.35664052191E+03  0.35664052191E+03  0.00000000000E+00 0. -1.
         23    2    1    2    0    0  0.67272406227E+03  0.61203930000E+03  0.47702606345E+03  0.10312605215E+04  0.93779684967E+02 0.  0.
         13    1    3    3    0    0  0.43488075563E+03  0.44730801534E+03  0.34938978854E+03  0.71503773085E+03  0.00000000000E+00 0. -1.
        -13    1    3    3    0    0  0.23784330664E+03  0.16473128466E+03  0.12763627491E+03  0.31622279066E+03  0.00000000000E+00 0.  1.
         22    1    1    2    0    0 -0.67272406227E+03 -0.61203930000E+03  0.25208147298E+04  0.26798613156E+04  0.00000000000E+00 0.  1.
<mgrwt>
<rscale>  0 0.21875502E+04</rscale>
<asrwt>0</asrwt>
<pdfrwt beam="1">  1        2 0.51607403E+00 0.21875502E+04</pdfrwt>
<pdfrwt beam="2">  1       -2 0.54867775E-01 0.21875502E+04</pdfrwt>
<totfact> 0.29352957E+00</totfact>
</mgrwt>
</event>
<event>
 6    1  0.5040916E-004  0.1893569E+04  0.7818608E-02  0.8658064E-01
          2   -1    0    0  501    0  0.00000000000E+00  0.00000000000E+00  0.28575460186E+04  0.28575460186E+04  0.00000000000E+00 0.  1.
         -2   -1    0    0    0  501 -0.00000000000E+00 -0.00000000000E+00 -0.31369608012E+03  0.31369608012E+03  0.00000000000E+00 0. -1.
         23    2    1    2    0    0  0.75737198136E+03  0.35844825603E+03  0.54501181886E+03  0.10038816536E+04  0.92967851469E+02 0.  0.
         13    1    3    3    0    0  0.49432543192E+03  0.19046442579E+03  0.36857554834E+03  0.64535437162E+03  0.00000000000E+00 0.  1.
        -13    1    3    3    0    0  0.26304654944E+03  0.16798383024E+03  0.17643627052E+03  0.35852728202E+03  0.00000000000E+00 0. -1.
         22    1    1    2    0    0 -0.75737198136E+03 -0.35844825603E+03  0.19988381196E+04  0.21673604450E+04  0.00000000000E+00 0.  1.
<mgrwt>
<rscale>  0 0.18935691E+04</rscale>
<asrwt>0</asrwt>
<pdfrwt beam="1">  1        2 0.43962245E+00 0.18935691E+04</pdfrwt>
<pdfrwt beam="2">  1       -2 0.48260937E-01 0.18935691E+04</pdfrwt>
<totfact> 0.81489678E+00</totfact>
</mgrwt>
</event>
<event>
 6    1  0.5040916E-004  0.2556269E+04  0.7818608E-02  0.8383209E-01
         -2   -1    0    0    0  501 -0.00000000000E+00  0.00000000000E+00  0.16255395857E+04  0.16255395857E+04  0.00000000000E+00 0. -1.
          2   -1    0    0  501    0  0.00000000000E+00 -0.00000000000E+00 -0.10049759210E+04  0.10049759210E+04  0.00000000000E+00 0.  1.
         23    2    1    2    0    0 -0.10508234497E+03 -0.82075625959E+03  0.13109721155E+04  0.15528574135E+04  0.89638841785E+02 0.  0.
         11    1    3    3    0    0 -0.77553842409E+02 -0.61423608089E+03  0.10498098950E+04  0.12187704366E+04  0.00000000000E+00 0. -1.
        -11    1    3    3    0    0 -0.27528502557E+02 -0.20652017870E+03  0.26116222057E+03  0.33408697687E+03  0.00000000000E+00 0.  1.
         22    1    1    2    0    0  0.10508234497E+03  0.82075625959E+03 -0.69040845080E+03  0.10776580932E+04  0.00000000000E+00 0.  1.
<mgrwt>
<rscale>  0 0.25562693E+04</rscale>
<asrwt>0</asrwt>
<pdfrwt beam="1">  1        2 0.15461168E+00 0.25562693E+04</pdfrwt>
<pdfrwt beam="2">  1       -2 0.25008301E+00 0.25562693E+04</pdfrwt>
<totfact> 0.14246017E+00</totfact>
</mgrwt>
</event>
<event>
 6    1  0.5040916E-004  0.1849126E+04  0.7818608E-02  0.8680602E-01
          2   -1    0    0  501    0  0.00000000000E+00  0.00000000000E+00  0.15713930708E+04  0.15713930708E+04  0.00000000000E+00 0.  1.
         -2   -1    0    0    0  501 -0.00000000000E+00 -0.00000000000E+00 -0.54398684920E+03  0.54398684920E+03  0.00000000000E+00 0. -1.
         23    2    1    2    0    0  0.44712898366E+03  0.80382812723E+03  0.43666378677E+03  0.10222007899E+04  0.90306179517E+02 0.  0.
         13    1    3    3    0    0  0.33732039685E+03  0.52410457119E+03  0.30966175439E+03  0.69596052604E+03  0.00000000000E+00 0. -1.
        -13    1    3    3    0    0  0.10980858681E+03  0.27972355604E+03  0.12700203238E+03  0.32624026387E+03  0.00000000000E+00 0.  1.
         22    1    1    2    0    0 -0.44712898366E+03 -0.80382812723E+03  0.59074243480E+03  0.10931791301E+04  0.00000000000E+00 0. -1.
<mgrwt>
<rscale>  0 0.18491265E+04</rscale>
<asrwt>0</asrwt>
<pdfrwt beam="1">  1        2 0.24175278E+00 0.18491265E+04</pdfrwt>
<pdfrwt beam="2">  1       -2 0.83690285E-01 0.18491265E+04</pdfrwt>
<totfact> 0.13582512E+01</totfact>
</mgrwt>
</event>
<event>
 6    1  0.5040916E-004  0.2968240E+04  0.7818608E-02  0.8252859E-01
         -2   -1    0    0    0  501 -0.00000000000E+00  0.00000000000E+00  0.10516991603E+04  0.10516991603E+04  0.00000000000E+00 0. -1.
          2   -1    0    0  501    0  0.00000000000E+00 -0.00000000000E+00 -0.20943363299E+04  0.20943363299E+04  0.00000000000E+00 0.  1.
         23    2    1    2    0    0  0.26387501418E+03  0.71313251240E+03 -0.18709285160E+04  0.20216447405E+04  0.92119169023E+02 0.  0.
         13    1    3    3    0    0  0.75003871331E+02  0.19858543283E+03 -0.41907673168E+03  0.46977341547E+03  0.00000000000E+00 0.  1.
        -13    1    3    3    0    0  0.18887114285E+03  0.51454707957E+03 -0.14518517843E+04  0.15518713250E+04  0.00000000000E+00 0. -1.
         22    1    1    2    0    0 -0.26387501418E+03 -0.71313251240E+03  0.82829134645E+03  0.11243907497E+04  0.00000000000E+00 0. -1.
<mgrwt>
<rscale>  0 0.29682397E+04</rscale>
<asrwt>0</asrwt>
<pdfrwt beam="1">  1        2 0.32220559E+00 0.29682397E+04</pdfrwt>
<pdfrwt beam="2">  1       -2 0.16179987E+00 0.29682397E+04</pdfrwt>
<totfact> 0.12411214E+00</totfact>
</mgrwt>
</event>
<event>
 6    1  0.5040916E-004  0.2730820E+04  0.7818608E-02  0.8325074E-01
         -2   -1    0    0    0  501 -0.00000000000E+00  0.00000000000E+00  0.14098941454E+04  0.14098941454E+04  0.00000000000E+00 0. -1.
          2   -1    0    0  501    0  0.00000000000E+00 -0.00000000000E+00 -0.13223297898E+04  0.13223297898E+04  0.00000000000E+00 0.  1.
         23    2    1    2    0    0 -0.52080757360E+02  0.41539299575E+03 -0.12548928815E+04  0.13260037606E+04  0.90918001751E+02 0.  0.
         13    1    3    3    0    0 -0.37727729982E+02  0.10658126366E+03 -0.24451300924E+03  0.26938737732E+03  0.00000000000E+00 0. -1.
        -13    1    3    3    0    0 -0.14353027378E+02  0.30881173209E+03 -0.10103798722E+04  0.10566163833E+04  0.00000000000E+00 0.  1.
         22    1    1    2    0    0  0.52080757360E+02 -0.41539299575E+03  0.13424572371E+04  0.14062201746E+04  0.00000000000E+00 0. -1.
<mgrwt>
<rscale>  0 0.27308204E+04</rscale>
<asrwt>0</asrwt>
<pdfrwt beam="1">  1        2 0.20343535E+00 0.27308204E+04</pdfrwt>
<pdfrwt beam="2">  1       -2 0.21690679E+00 0.27308204E+04</pdfrwt>
<totfact> 0.14519157E+00</totfact>
</mgrwt>
</event>
<event>
 6    1  0.5040916E-004  0.2044721E+04  0.7818608E-02  0.8585993E-01
         -2   -1    0    0    0  501 -0.00000000000E+00  0.00000000000E+00  0.36033703239E+03  0.36033703239E+03  0.00000000000E+00 0. -1.
          2   -1    0    0  501    0  0.00000000000E+00 -0.00000000000E+00 -0.29006762500E+04  0.29006762500E+04  0.00000000000E+00 0.  1.
         23    2    1    2    0    0  0.44033064452E+03  0.57299565066E+03 -0.12390692089E+03  0.73883958956E+03  0.91191676582E+02 0.  0.
         11    1    3    3    0    0  0.23542520333E+03  0.34483865298E+03 -0.11036336677E+03  0.43187821858E+03  0.00000000000E+00 0. -1.
        -11    1    3    3    0    0  0.20490544119E+03  0.22815699767E+03 -0.13543554113E+02  0.30696137098E+03  0.00000000000E+00 0.  1.
         22    1    1    2    0    0 -0.44033064452E+03 -0.57299565066E+03 -0.24164322968E+04  0.25221736929E+04  0.00000000000E+00 0.  1.
<mgrwt>
<rscale>  0 0.20447211E+04</rscale>
<asrwt>0</asrwt>
<pdfrwt beam="1">  1        2 0.44625788E+00 0.20447211E+04</pdfrwt>
<pdfrwt beam="2">  1       -2 0.55436467E-01 0.20447211E+04</pdfrwt>
<totfact> 0.56917513E+00</totfact>
</mgrwt>
</event>
<event>
 6    1  0.5040916E-004  0.2430814E+04  0.7818608E-02  0.8428057E-01
         -2   -1    0    0    0  501 -0.00000000000E+00  0.00000000000E+00  0.21201184522E+04  0.21201184522E+04  0.00000000000E+00 0. -1.
          2   -1    0    0  501    0  0.00000000000E+00 -0.00000000000E+00 -0.69676010101E+03  0.69676010101E+03  0.00000000000E+00 0.  1.
         23    2    1    2    0    0  0.47227704955E+03 -0.78819917829E+03  0.16317807291E+04  0.18746771715E+04  0.86038324748E+02 0.  0.
         13    1    3    3    0    0  0.35992957997E+03 -0.58802176730E+03  0.11461489686E+04  0.13375262089E+04  0.00000000000E+00 0.  1.
        -13    1    3    3    0    0  0.11234746957E+03 -0.20017741099E+03  0.48563176048E+03  0.53715096255E+03  0.00000000000E+00 0. -1.
         22    1    1    2    0    0 -0.47227704955E+03  0.78819917829E+03 -0.20842237785E+03  0.94220138175E+03  0.00000000000E+00 0.  1.
<mgrwt>
<rscale>  0 0.24308138E+04</rscale>
<asrwt>0</asrwt>
<pdfrwt beam="1">  1        2 0.10719386E+00 0.24308138E+04</pdfrwt>
<pdfrwt beam="2">  1       -2 0.32617207E+00 0.24308138E+04</pdfrwt>
<totfact> 0.81099436E-01</totfact>
</mgrwt>
</event>
<event>
 6    1  0.5040916E-004  0.3622221E+04  0.7818608E-02  0.8085421E-01
         -2   -1    0    0    0  501 -0.00000000000E+00  0.00000000000E+00  0.11234608783E+04  0.11234608783E+04  0.00000000000E+00 0. -1.
          2   -1    0    0  501    0  0.00000000000E+00 -0.00000000000E+00 -0.29196583175E+04  0.29196583175E+04  0.00000000000E+00 0.  1.
         23    2    1    2    0    0  0.10211199732E+04  0.14197045995E+04 -0.14192601560E+04  0.22541728956E+04  0.93535572453E+02 0.  0.
         13    1    3    3    0    0  0.14609323467E+03  0.15519751563E+03 -0.18878072572E+03  0.28472383897E+03  0.00000000000E+00 0.  1.
        -13    1    3    3    0    0  0.87502673855E+03  0.12645070839E+04 -0.12304794303E+04  0.19694490566E+04  0.00000000000E+00 0. -1.
         22    1    1    2    0    0 -0.10211199732E+04 -0.14197045995E+04 -0.37693728329E+03  0.17889463002E+04  0.00000000000E+00 0. -1.
<mgrwt>
<rscale>  0 0.36222214E+04</rscale>
<asrwt>0</asrwt>
<pdfrwt beam="1">  1        2 0.44917821E+00 0.36222214E+04</pdfrwt>
<pdfrwt beam="2">  1       -2 0.17284013E+00 0.36222214E+04</pdfrwt>
<totfact> 0.32324811E-01</totfact>
</mgrwt>
</event>
<event>
 6    1  0.7837053E-004  0.3276973E+04  0.7818608E-02  0.8168780E-01
         -2   -1    0    0    0  501 -0.00000000000E+00  0.00000000000E+00  0.90842837425E+03  0.90842837425E+03  0.00000000000E+00 0. -1.
          2   -1    0    0  501    0  0.00000000000E+00 -0.00000000000E+00 -0.29552548269E+04  0.29552548269E+04  0.00000000000E+00 0.  1.
         23    2    1    2    0    0 -0.14684822245E+04  0.62703474821E+02 -0.18745203627E+04  0.23837976792E+04  0.91065996673E+02 0.  0.
         13    1    3    3    0    0 -0.79437008321E+03  0.44765234369E+02 -0.94297933342E+03  0.12337900059E+04  0.00000000000E+00 0. -1.
        -13    1    3    3    0    0 -0.67411214131E+03  0.17938240453E+02 -0.93154102925E+03  0.11500076733E+04  0.00000000000E+00 0.  1.
         22    1    1    2    0    0  0.14684822245E+04 -0.62703474821E+02 -0.17230608997E+03  0.14798855220E+04  0.00000000000E+00 0.  1.
<mgrwt>
<rscale>  0 0.32769726E+04</rscale>
<asrwt>0</asrwt>
<pdfrwt beam="1">  1        2 0.45465459E+00 0.32769726E+04</pdfrwt>
<pdfrwt beam="2">  1       -2 0.13975821E+00 0.32769726E+04</pdfrwt>
<totfact> 0.56020659E-01</totfact>
</mgrwt>
</event>
<event>
 6    1  0.5040916E-004  0.2708393E+04  0.7818608E-02  0.8332287E-01
          2   -1    0    0  501    0  0.00000000000E+00  0.00000000000E+00  0.90949803514E+03  0.90949803514E+03  0.00000000000E+00 0.  1.
         -2   -1    0    0    0  501 -0.00000000000E+00 -0.00000000000E+00 -0.20163298478E+04  0.20163298478E+04  0.00000000000E+00 0. -1.
         23    2    1    2    0    0 -0.11983639091E+04  0.59715867656E+03 -0.76243775584E+03  0.15433367220E+04  0.88895233148E+02 0.  0.
         13    1    3    3    0    0 -0.73623516565E+03  0.39831760576E+03 -0.43852125750E+03  0.94498678693E+03  0.00000000000E+00 0. -1.
        -13    1    3    3    0    0 -0.46212874342E+03  0.19884107080E+03 -0.32391649834E+03  0.59834993510E+03  0.00000000000E+00 0.  1.
         22    1    1    2    0    0  0.11983639091E+04 -0.59715867656E+03 -0.34439405678E+03  0.13824911609E+04  0.00000000000E+00 0.  1.
<mgrwt>
<rscale>  0 0.27083929E+04</rscale>
<asrwt>0</asrwt>
<pdfrwt beam="1">  1        2 0.13992278E+00 0.27083929E+04</pdfrwt>
<pdfrwt beam="2">  1       -2 0.31020459E+00 0.27083929E+04</pdfrwt>
<totfact> 0.69696804E-01</totfact>
</mgrwt>
</event>
<event>
 6    1  0.5040916E-004  0.1333027E+04  0.7818608E-02  0.9003777E-01
         -2   -1    0    0    0  501 -0.00000000000E+00  0.00000000000E+00  0.15714181360E+03  0.15714181360E+03  0.00000000000E+00 0. -1.
          2   -1    0    0  501    0  0.00000000000E+00 -0.00000000000E+00 -0.28270013350E+04  0.28270013350E+04  0.00000000000E+00 0.  1.
         23    2    1    2    0    0 -0.48644924183E+03  0.89805941674E+02 -0.35188689919E+03  0.61397542260E+03  0.91888289302E+02 0.  0.
         13    1    3    3    0    0 -0.29483436556E+03  0.28364759669E+02 -0.16348186343E+03  0.33831668948E+03  0.00000000000E+00 0. -1.
        -13    1    3    3    0    0 -0.19161487626E+03  0.61441182004E+02 -0.18840503576E+03  0.27565873313E+03  0.00000000000E+00 0.  1.
         22    1    1    2    0    0  0.48644924183E+03 -0.89805941674E+02 -0.23179726222E+04  0.23701677260E+04  0.00000000000E+00 0.  1.
<mgrwt>
<rscale>  0 0.13330268E+04</rscale>
<asrwt>0</asrwt>
<pdfrwt beam="1">  1        2 0.43492328E+00 0.13330268E+04</pdfrwt>
<pdfrwt beam="2">  1       -2 0.24175664E-01 0.13330268E+04</pdfrwt>
<totfact> 0.33468760E+01</totfact>
</mgrwt>
</event>
<event>
 6    1  0.5040916E-004  0.1935915E+04  0.7818608E-02  0.8637183E-01
          1   -1    0    0  501    0  0.00000000000E+00  0.00000000000E+00  0.15706205939E+04  0.15706205939E+04  0.00000000000E+00 0. -1.
         -1   -1    0    0    0  501 -0.00000000000E+00 -0.00000000000E+00 -0.59654254918E+03  0.59654254918E+03  0.00000000000E+00 0.  1.
         23    2    1    2    0    0  0.81295949994E+03 -0.39762018372E+03  0.11247742099E+03  0.91761898864E+03  0.10182572878E+03 0.  0.
         11    1    3    3    0    0  0.12339650125E+03 -0.10141112358E+03  0.83593561164E+01  0.15993996168E+03  0.00000000000E+00 0. -1.
        -11    1    3    3    0    0  0.68956299868E+03 -0.29620906013E+03  0.10411806487E+03  0.75767902696E+03  0.00000000000E+00 0.  1.
         22    1    1    2    0    0 -0.81295949994E+03  0.39762018372E+03  0.86160062370E+03  0.12495441544E+04  0.00000000000E+00 0. -1.
<mgrwt>
<rscale>  0 0.19359153E+04</rscale>
<asrwt>0</asrwt>
<pdfrwt beam="1">  1        1 0.24163394E+00 0.19359153E+04</pdfrwt>
<pdfrwt beam="2">  1       -1 0.91775777E-01 0.19359153E+04</pdfrwt>
<totfact> 0.63071448E+00</totfact>
</mgrwt>
</event>
<event>
 6    1  0.5040916E-004  0.2128305E+04  0.7818608E-02  0.8548876E-01
         -2   -1    0    0    0  501 -0.00000000000E+00  0.00000000000E+00  0.13164254196E+04  0.13164254196E+04  0.00000000000E+00 0. -1.
          2   -1    0    0  501    0  0.00000000000E+00 -0.00000000000E+00 -0.86022400496E+03  0.86022400496E+03  0.00000000000E+00 0.  1.
         23    2    1    2    0    0 -0.54921102218E+03  0.48667779916E+03 -0.55672773507E+03  0.92584428810E+03  0.93561999411E+02 0.  0.
         13    1    3    3    0    0 -0.26156164907E+03  0.29397696394E+03 -0.29172436792E+03  0.48983676712E+03  0.00000000000E+00 0.  1.
        -13    1    3    3    0    0 -0.28764937311E+03  0.19270083523E+03 -0.26500336715E+03  0.43600752098E+03  0.00000000000E+00 0. -1.
         22    1    1    2    0    0  0.54921102218E+03 -0.48667779916E+03  0.10129291497E+04  0.12508051365E+04  0.00000000000E+00 0. -1.
<mgrwt>
<rscale>  0 0.21283052E+04</rscale>
<asrwt>0</asrwt>
<pdfrwt beam="1">  1        2 0.13234215E+00 0.21283052E+04</pdfrwt>
<pdfrwt beam="2">  1       -2 0.20252699E+00 0.21283052E+04</pdfrwt>
<totfact> 0.36736411E+00</totfact>
</mgrwt>
</event>
<event>
 6    1  0.5040916E-004  0.3523623E+04  0.7818608E-02  0.8108214E-01
          2   -1    0    0  501    0  0.00000000000E+00  0.00000000000E+00  0.32478682357E+04  0.32478682357E+04  0.00000000000E+00 0.  1.
         -2   -1    0    0    0  501 -0.00000000000E+00 -0.00000000000E+00 -0.95569777314E+03  0.95569777314E+03  0.00000000000E+00 0. -1.
         23    2    1    2    0    0  0.77285278274E+02  0.49105903353E+03  0.31615740104E+04  0.32020798544E+04  0.10321425616E+03 0.  0.
         13    1    3    3    0    0 -0.11890797241E+02  0.64249151497E+02  0.61337482243E+03  0.61684521342E+03  0.00000000000E+00 0. -1.
        -13    1    3    3    0    0  0.89176075515E+02  0.42680988204E+03  0.25481991879E+04  0.25852346410E+04  0.00000000000E+00 0.  1.
         22    1    1    2    0    0 -0.77285278274E+02 -0.49105903353E+03 -0.86940354775E+03  0.10014861544E+04  0.00000000000E+00 0. -1.
<mgrwt>
<rscale>  0 0.35236234E+04</rscale>
<asrwt>0</asrwt>
<pdfrwt beam="1">  1        2 0.49967203E+00 0.35236234E+04</pdfrwt>
<pdfrwt beam="2">  1       -2 0.14703043E+00 0.35236234E+04</pdfrwt>
<totfact> 0.31215473E-01</totfact>
</mgrwt>
</event>
<event>
 6    1  0.5040916E-004  0.2577726E+04  0.7818608E-02  0.8375807E-01
         -2   -1    0    0    0  501 -0.00000000000E+00  0.00000000000E+00  0.20580338520E+04  0.20580338520E+04  0.00000000000E+00 0. -1.
          2   -1    0    0  501    0  0.00000000000E+00 -0.00000000000E+00 -0.80716279935E+03  0.80716279935E+03  0.00000000000E+00 0.  1.
         23    2    1    2    0    0 -0.12015282907E+04 -0.42493486896E+03  0.42480235178E+03  0.13464374950E+04  0.90537360610E+02 0.  0.
         11    1    3    3    0    0 -0.54628859510E+03 -0.20273363970E+03  0.14771441886E+03  0.60112536741E+03  0.00000000000E+00 0. -1.
        -11    1    3    3    0    0 -0.65523969565E+03 -0.22220122926E+03  0.27708793291E+03  0.74531212764E+03  0.00000000000E+00 0.  1.
         22    1    1    2    0    0  0.12015282907E+04  0.42493486896E+03  0.82606870092E+03  0.15187591563E+04  0.00000000000E+00 0. -1.
<mgrwt>
<rscale>  0 0.25777264E+04</rscale>
<asrwt>0</asrwt>
<pdfrwt beam="1">  1        2 0.12417889E+00 0.25777264E+04</pdfrwt>
<pdfrwt beam="2">  1       -2 0.31662059E+00 0.25777264E+04</pdfrwt>
<totfact> 0.75795879E-01</totfact>
</mgrwt>
</event>
<event>
 6    1  0.5040916E-004  0.1661154E+04  0.7818608E-02  0.8783835E-01
         -2   -1    0    0    0  501 -0.00000000000E+00  0.00000000000E+00  0.63461782591E+03  0.63461782591E+03  0.00000000000E+00 0. -1.
          2   -1    0    0  501    0  0.00000000000E+00 -0.00000000000E+00 -0.10870453851E+04  0.10870453851E+04  0.00000000000E+00 0.  1.
         23    2    1    2    0    0 -0.14440080192E+03 -0.49292921691E+03  0.44653301773E+03  0.68630775353E+03  0.88293783194E+02 0.  0.
         11    1    3    3    0    0  0.55814356102E+01 -0.86497679513E+02  0.57233121819E+02  0.10386833597E+03  0.00000000000E+00 0.  1.
        -11    1    3    3    0    0 -0.14998223753E+03 -0.40643153740E+03  0.38929989591E+03  0.58243941756E+03  0.00000000000E+00 0. -1.
         22    1    1    2    0    0  0.14440080192E+03  0.49292921691E+03 -0.89896057697E+03  0.10353554575E+04  0.00000000000E+00 0.  1.
<mgrwt>
<rscale>  0 0.16611543E+04</rscale>
<asrwt>0</asrwt>
<pdfrwt beam="1">  1        2 0.16723775E+00 0.16611543E+04</pdfrwt>
<pdfrwt beam="2">  1       -2 0.97633512E-01 0.16611543E+04</pdfrwt>
<totfact> 0.18517499E+01</totfact>
</mgrwt>
</event>
<event>
 6    1  0.5040916E-004  0.4201120E+04  0.7818608E-02  0.7965159E-01
          2   -1    0    0  501    0  0.00000000000E+00  0.00000000000E+00  0.31127919844E+04  0.31127919844E+04  0.00000000000E+00 0.  1.
         -2   -1    0    0    0  501 -0.00000000000E+00 -0.00000000000E+00 -0.14174904597E+04  0.14174904597E+04  0.00000000000E+00 0. -1.
         23    2    1    2    0    0  0.17679940429E+04 -0.11235364016E+04  0.10054327690E+04  0.23248219749E+04  0.75928787211E+02 0.  0.
         13    1    3    3    0    0  0.91845992958E+03 -0.58824060247E+03  0.48161301063E+03  0.11922863501E+04  0.00000000000E+00 0.  1.
        -13    1    3    3    0    0  0.84953411328E+03 -0.53529579912E+03  0.52381975832E+03  0.11325356248E+04  0.00000000000E+00 0. -1.
         22    1    1    2    0    0 -0.17679940429E+04  0.11235364016E+04  0.68986875572E+03  0.22054604692E+04  0.00000000000E+00 0. -1.
<mgrwt>
<rscale>  0 0.42011203E+04</rscale>
<asrwt>0</asrwt>
<pdfrwt beam="1">  1        2 0.47889107E+00 0.42011203E+04</pdfrwt>
<pdfrwt beam="2">  1       -2 0.21807546E+00 0.42011203E+04</pdfrwt>
<totfact> 0.11642819E-01</totfact>
</mgrwt>
</event>
<event>
 6    1  0.5040916E-004  0.1023059E+04  0.7818608E-02  0.9283610E-01
         -2   -1    0    0    0  501 -0.00000000000E+00  0.00000000000E+00  0.25343483926E+03  0.25343483926E+03  0.00000000000E+00 0. -1.
          2   -1    0    0  501    0  0.00000000000E+00 -0.00000000000E+00 -0.10324636253E+04  0.10324636253E+04  0.00000000000E+00 0.  1.
         23    2    1    2    0    0 -0.22268630130E+03  0.16557643795E+03 -0.92657833530E+03  0.97161258345E+03  0.92080699828E+02 0.  0.
         11    1    3    3    0    0 -0.94887876702E+02  0.61618072116E+02 -0.53426969792E+03  0.54611775843E+03  0.00000000000E+00 0.  1.
        -11    1    3    3    0    0 -0.12779842460E+03  0.10395836584E+03 -0.39230863738E+03  0.42549482502E+03  0.00000000000E+00 0. -1.
         22    1    1    2    0    0  0.22268630130E+03 -0.16557643795E+03  0.14754954925E+03  0.31428588112E+03  0.00000000000E+00 0. -1.
<mgrwt>
<rscale>  0 0.10230587E+04</rscale>
<asrwt>0</asrwt>
<pdfrwt beam="1">  1        2 0.15884055E+00 0.10230587E+04</pdfrwt>
<pdfrwt beam="2">  1       -2 0.38989976E-01 0.10230587E+04</pdfrwt>
<totfact> 0.14874688E+02</totfact>
</mgrwt>
</event>
<event>
 6    1  0.5040916E-004  0.7243072E+03  0.7818608E-02  0.9676543E-01
          2   -1    0    0  501    0  0.00000000000E+00  0.00000000000E+00  0.27021709267E+04  0.27021709267E+04  0.00000000000E+00 0.  1.
         -2   -1    0    0    0  501 -0.00000000000E+00 -0.00000000000E+00 -0.48536988547E+02  0.48536988547E+02  0.00000000000E+00 0. -1.
         23    2    1    2    0    0  0.11638833465E+03  0.91599570363E+02  0.25790739974E+04  0.25848890065E+04  0.89954243897E+02 0.  0.
         11    1    3    3    0    0  0.12067067498E+03  0.62141157869E+02  0.17394948853E+04  0.17447823335E+04  0.00000000000E+00 0. -1.
        -11    1    3    3    0    0 -0.42823403275E+01  0.29458412494E+02  0.83957911213E+03  0.84010667301E+03  0.00000000000E+00 0.  1.
         22    1    1    2    0    0 -0.11638833465E+03 -0.91599570363E+02  0.74559940714E+02  0.16581890873E+03  0.00000000000E+00 0. -1.
<mgrwt>
<rscale>  0 0.72430723E+03</rscale>
<asrwt>0</asrwt>
<pdfrwt beam="1">  1        2 0.41571849E+00 0.72430723E+03</pdfrwt>
<pdfrwt beam="2">  1       -2 0.74672311E-02 0.72430723E+03</pdfrwt>
<totfact> 0.30454794E+02</totfact>
</mgrwt>
</event>
<event>
 6    1  0.5040916E-004  0.2551551E+04  0.7818608E-02  0.8384847E-01
         -2   -1    0    0    0  501 -0.00000000000E+00  0.00000000000E+00  0.65825610481E+03  0.65825610481E+03  0.00000000000E+00 0. -1.
          2   -1    0    0  501    0  0.00000000000E+00 -0.00000000000E+00 -0.24725989755E+04  0.24725989755E+04  0.00000000000E+00 0.  1.
         23    2    1    2    0    0 -0.59174894618E+03 -0.85701219935E+03 -0.82048758972E+01  0.10459639126E+04  0.96625365434E+02 0.  0.
         11    1    3    3    0    0 -0.44232433038E+03 -0.69632858968E+03 -0.29819776815E+02  0.82547776296E+03  0.00000000000E+00 0. -1.
        -11    1    3    3    0    0 -0.14942461579E+03 -0.16068360967E+03  0.21614900917E+02  0.22048614960E+03  0.00000000000E+00 0.  1.
         22    1    1    2    0    0  0.59174894618E+03  0.85701219935E+03 -0.18061379947E+04  0.20848911677E+04  0.00000000000E+00 0.  1.
<mgrwt>
<rscale>  0 0.25515512E+04</rscale>
<asrwt>0</asrwt>
<pdfrwt beam="1">  1        2 0.38039984E+00 0.25515512E+04</pdfrwt>
<pdfrwt beam="2">  1       -2 0.10127017E+00 0.25515512E+04</pdfrwt>
<totfact> 0.25698294E+00</totfact>
</mgrwt>
</event>
<event>
 6    1  0.5040916E-004  0.2607993E+04  0.7818608E-02  0.8365491E-01
         -2   -1    0    0    0  501 -0.00000000000E+00  0.00000000000E+00  0.11931547650E+04  0.11931547650E+04  0.00000000000E+00 0. -1.
          2   -1    0    0  501    0  0.00000000000E+00 -0.00000000000E+00 -0.14251351767E+04  0.14251351767E+04  0.00000000000E+00 0.  1.
         23    2    1    2    0    0 -0.77005326021E+03 -0.22607964584E+03  0.91363881826E+03  0.12195271134E+04  0.91741267505E+02 0.  0.
         11    1    3    3    0    0 -0.29349123914E+03 -0.13077129048E+03  0.34326553077E+03  0.47018024467E+03  0.00000000000E+00 0. -1.
        -11    1    3    3    0    0 -0.47656202107E+03 -0.95308355361E+02  0.57037328749E+03  0.74934686869E+03  0.00000000000E+00 0.  1.
         22    1    1    2    0    0  0.77005326021E+03  0.22607964584E+03 -0.11456192300E+04  0.13987628283E+04  0.00000000000E+00 0.  1.
<mgrwt>
<rscale>  0 0.26079930E+04</rscale>
<asrwt>0</asrwt>
<pdfrwt beam="1">  1        2 0.21925157E+00 0.26079930E+04</pdfrwt>
<pdfrwt beam="2">  1       -2 0.18356227E+00 0.26079930E+04</pdfrwt>
<totfact> 0.21211286E+00</totfact>
</mgrwt>
</event>
<event>
 6    1  0.5040916E-004  0.1734419E+04  0.7818608E-02  0.8741974E-01
          2   -1    0    0  501    0  0.00000000000E+00  0.00000000000E+00  0.79362780102E+03  0.79362780102E+03  0.00000000000E+00 0.  1.
         -2   -1    0    0    0  501 -0.00000000000E+00 -0.00000000000E+00 -0.94761304632E+03  0.94761304632E+03  0.00000000000E+00 0. -1.
         23    2    1    2    0    0 -0.50083150423E+03  0.66625961912E+03 -0.30910926999E+03  0.89342156309E+03  0.88991420409E+02 0.  0.
         13    1    3    3    0    0 -0.21394681068E+03  0.24863464166E+03 -0.16194968972E+03  0.36581433110E+03  0.00000000000E+00 0. -1.
        -13    1    3    3    0    0 -0.28688469355E+03  0.41762497746E+03 -0.14715958026E+03  0.52760723199E+03  0.00000000000E+00 0.  1.
         22    1    1    2    0    0  0.50083150423E+03 -0.66625961912E+03  0.15512402469E+03  0.84781928424E+03  0.00000000000E+00 0. -1.
<mgrwt>
<rscale>  0 0.17344187E+04</rscale>
<asrwt>0</asrwt>
<pdfrwt beam="1">  1        2 0.12209658E+00 0.17344187E+04</pdfrwt>
<pdfrwt beam="2">  1       -2 0.14578662E+00 0.17344187E+04</pdfrwt>
<totfact> 0.10669203E+01</totfact>
</mgrwt>
</event>
<event>
 6    1  0.5040916E-004  0.2805948E+04  0.7818608E-02  0.8301424E-01
          2   -1    0    0  501    0  0.00000000000E+00  0.00000000000E+00  0.25906452385E+04  0.25906452385E+04  0.00000000000E+00 0.  1.
         -2   -1    0    0    0  501 -0.00000000000E+00 -0.00000000000E+00 -0.75978603256E+03  0.75978603256E+03  0.00000000000E+00 0. -1.
         23    2    1    2    0    0  0.20123410933E+03  0.47987703701E+02  0.25714843408E+04  0.25814556038E+04  0.92646277914E+02 0.  0.
         13    1    3    3    0    0  0.73215405313E+02 -0.25374019078E+02  0.10385042598E+04  0.10413911052E+04  0.00000000000E+00 0.  1.
        -13    1    3    3    0    0  0.12801870402E+03  0.73361722779E+02  0.15329800811E+04  0.15400644986E+04  0.00000000000E+00 0. -1.
         22    1    1    2    0    0 -0.20123410933E+03 -0.47987703701E+02 -0.74062513487E+03  0.76897566728E+03  0.00000000000E+00 0. -1.
<mgrwt>
<rscale>  0 0.28059480E+04</rscale>
<asrwt>0</asrwt>
<pdfrwt beam="1">  1        2 0.39856080E+00 0.28059480E+04</pdfrwt>
<pdfrwt beam="2">  1       -2 0.11689016E+00 0.28059480E+04</pdfrwt>
<totfact> 0.15182989E+00</totfact>
</mgrwt>
</event>
<event>
 6    1  0.5040916E-004  0.3319379E+04  0.7818608E-02  0.8157982E-01
          2   -1    0    0  501    0  0.00000000000E+00  0.00000000000E+00  0.44309080420E+04  0.44309080420E+04  0.00000000000E+00 0. -1.
         -2   -1    0    0    0  501 -0.00000000000E+00 -0.00000000000E+00 -0.62167148572E+03  0.62167148572E+03  0.00000000000E+00 0.  1.
         23    2    1    2    0    0 -0.84628648915E+03 -0.40094144556E+03 -0.17744325147E+03  0.95739079531E+03  0.90311477488E+02 0.  0.
         11    1    3    3    0    0 -0.57304830382E+03 -0.31682968060E+03 -0.13024669024E+03  0.66762984156E+03  0.00000000000E+00 0. -1.
        -11    1    3    3    0    0 -0.27323818533E+03 -0.84111764959E+02 -0.47196561232E+02  0.28976095375E+03  0.00000000000E+00 0.  1.
         22    1    1    2    0    0  0.84628648915E+03  0.40094144556E+03  0.39866798078E+04  0.40951887324E+04  0.00000000000E+00 0. -1.
<mgrwt>
<rscale>  0 0.33193790E+04</rscale>
<asrwt>0</asrwt>
<pdfrwt beam="1">  1        2 0.68167814E+00 0.33193790E+04</pdfrwt>
<pdfrwt beam="2">  1       -2 0.95641770E-01 0.33193790E+04</pdfrwt>
<totfact> 0.10940957E-01</totfact>
</mgrwt>
</event>
<event>
 6    1  0.5040916E-004  0.2539687E+04  0.7818608E-02  0.8388982E-01
         -2   -1    0    0    0  501 -0.00000000000E+00  0.00000000000E+00  0.11887719595E+04  0.11887719595E+04  0.00000000000E+00 0. -1.
          2   -1    0    0  501    0  0.00000000000E+00 -0.00000000000E+00 -0.13564443225E+04  0.13564443225E+04  0.00000000000E+00 0.  1.
         23    2    1    2    0    0 -0.96617441734E+03  0.65609035025E+02 -0.90456208212E+03  0.13283333754E+04  0.91866455489E+02 0.  0.
         11    1    3    3    0    0 -0.40978832543E+03  0.56682172463E+02 -0.33808050194E+03  0.53426376082E+03  0.00000000000E+00 0.  1.
        -11    1    3    3    0    0 -0.55638609192E+03  0.89268625624E+01 -0.56648158018E+03  0.79406961461E+03  0.00000000000E+00 0. -1.
         22    1    1    2    0    0  0.96617441734E+03 -0.65609035025E+02  0.73688971915E+03  0.12168829066E+04  0.00000000000E+00 0. -1.
<mgrwt>
<rscale>  0 0.25396874E+04</rscale>
<asrwt>0</asrwt>
<pdfrwt beam="1">  1        2 0.20868374E+00 0.25396874E+04</pdfrwt>
<pdfrwt beam="2">  1       -2 0.18288799E+00 0.25396874E+04</pdfrwt>
<totfact> 0.23607333E+00</totfact>
</mgrwt>
</event>
<event>
 6    1  0.5040916E-004  0.1492574E+04  0.7818608E-02  0.8889406E-01
         -2   -1    0    0    0  501 -0.00000000000E+00  0.00000000000E+00  0.33820335339E+03  0.33820335339E+03  0.00000000000E+00 0. -1.
          2   -1    0    0  501    0  0.00000000000E+00 -0.00000000000E+00 -0.16467732016E+04  0.16467732016E+04  0.00000000000E+00 0.  1.
         23    2    1    2    0    0  0.53067416525E+03 -0.51894517406E+03 -0.59787195201E+03  0.95735276051E+03  0.90301017170E+02 0.  0.
         11    1    3    3    0    0  0.33361297448E+03 -0.27757583972E+03 -0.31213291303E+03  0.53457732736E+03  0.00000000000E+00 0. -1.
        -11    1    3    3    0    0  0.19706119077E+03 -0.24136933434E+03 -0.28573903899E+03  0.42277543314E+03  0.00000000000E+00 0.  1.
         22    1    1    2    0    0 -0.53067416525E+03  0.51894517406E+03 -0.71069789618E+03  0.10276237945E+04  0.00000000000E+00 0.  1.
<mgrwt>
<rscale>  0 0.14925739E+04</rscale>
<asrwt>0</asrwt>
<pdfrwt beam="1">  1        2 0.25334972E+00 0.14925739E+04</pdfrwt>
<pdfrwt beam="2">  1       -2 0.52031285E-01 0.14925739E+04</pdfrwt>
<totfact> 0.35395396E+01</totfact>
</mgrwt>
</event>
<event>
 6    1  0.5040916E-004  0.3121308E+04  0.7818608E-02  0.8209914E-01
          2   -1    0    0  501    0  0.00000000000E+00  0.00000000000E+00  0.11253980489E+04  0.11253980489E+04  0.00000000000E+00 0.  1.
         -2   -1    0    0    0  501 -0.00000000000E+00 -0.00000000000E+00 -0.21642484387E+04  0.21642484387E+04  0.00000000000E+00 0. -1.
         23    2    1    2    0    0  0.46224480523E+03 -0.73855675601E+03  0.84145220435E+03  0.12172869175E+04  0.12086887725E+03 0.  0.
         11    1    3    3    0    0  0.37501356224E+03 -0.50214846291E+03  0.62483943281E+03  0.88499297594E+03  0.00000000000E+00 0. -1.
        -11    1    3    3    0    0  0.87231242991E+02 -0.23640829311E+03  0.21661277154E+03  0.33229394156E+03  0.00000000000E+00 0.  1.
         22    1    1    2    0    0 -0.46224480523E+03  0.73855675601E+03 -0.18803025942E+04  0.20723595700E+04  0.00000000000E+00 0. -1.
<mgrwt>
<rscale>  0 0.31213080E+04</rscale>
<asrwt>0</asrwt>
<pdfrwt beam="1">  1        2 0.17313816E+00 0.31213080E+04</pdfrwt>
<pdfrwt beam="2">  1       -2 0.33296129E+00 0.31213080E+04</pdfrwt>
<totfact> 0.35430060E-01</totfact>
</mgrwt>
</event>
<event>
 6    1  0.5040916E-004  0.1665938E+04  0.7818608E-02  0.8781033E-01
         -1   -1    0    0    0  501 -0.00000000000E+00  0.00000000000E+00  0.21773896542E+04  0.21773896542E+04  0.00000000000E+00 0.  1.
          1   -1    0    0  501    0  0.00000000000E+00 -0.00000000000E+00 -0.31865554320E+03  0.31865554320E+03  0.00000000000E+00 0. -1.
         23    2    1    2    0    0 -0.31327028516E+03 -0.34944760933E+03  0.19585966610E+04  0.20162281154E+04  0.93930985090E+02 0.  0.
         13    1    3    3    0    0 -0.14727102246E+03 -0.14112962264E+03  0.66880883379E+03  0.69922212537E+03  0.00000000000E+00 0.  1.
        -13    1    3    3    0    0 -0.16599926270E+03 -0.20831798669E+03  0.12897878272E+04  0.13170059901E+04  0.00000000000E+00 0. -1.
         22    1    1    2    0    0  0.31327028516E+03  0.34944760933E+03 -0.99862549974E+02  0.47981708193E+03  0.00000000000E+00 0. -1.
<mgrwt>
<rscale>  0 0.16659379E+04</rscale>
<asrwt>0</asrwt>
<pdfrwt beam="1">  1        1 0.49023931E-01 0.16659379E+04</pdfrwt>
<pdfrwt beam="2">  1       -1 0.33498301E+00 0.16659379E+04</pdfrwt>
<totfact> 0.15139388E+00</totfact>
</mgrwt>
</event>
<event>
 6    1  0.5040916E-004  0.4152140E+04  0.7818608E-02  0.7974539E-01
         -2   -1    0    0    0  501 -0.00000000000E+00  0.00000000000E+00  0.24596540267E+04  0.24596540267E+04  0.00000000000E+00 0. -1.
          2   -1    0    0  501    0  0.00000000000E+00 -0.00000000000E+00 -0.17523056717E+04  0.17523056717E+04  0.00000000000E+00 0.  1.
         23    2    1    2    0    0  0.10072436645E+04 -0.15877447901E+04 -0.53685669371E+03  0.19572935321E+04  0.85495866237E+02 0.  0.
         13    1    3    3    0    0  0.83407876464E+03 -0.13423233844E+04 -0.42207690529E+03  0.16357470366E+04  0.00000000000E+00 0.  1.
        -13    1    3    3    0    0  0.17316489991E+03 -0.24542140567E+03 -0.11477978842E+03  0.32154649547E+03  0.00000000000E+00 0. -1.
         22    1    1    2    0    0 -0.10072436645E+04  0.15877447901E+04  0.12442050488E+04  0.22546661663E+04  0.00000000000E+00 0. -1.
<mgrwt>
<rscale>  0 0.41521395E+04</rscale>
<asrwt>0</asrwt>
<pdfrwt beam="1">  1        2 0.26958549E+00 0.41521395E+04</pdfrwt>
<pdfrwt beam="2">  1       -2 0.37840831E+00 0.41521395E+04</pdfrwt>
<totfact> 0.73248049E-02</totfact>
</mgrwt>
</event>
<event>
 6    1  0.5040916E-004  0.6999868E+03  0.7818608E-02  0.9717255E-01
          2   -1    0    0  501    0  0.00000000000E+00  0.00000000000E+00  0.85313266468E+03  0.85313266468E+03  0.00000000000E+00 0.  1.
         -2   -1    0    0    0  501 -0.00000000000E+00 -0.00000000000E+00 -0.14358302627E+03  0.14358302627E+03  0.00000000000E+00 0. -1.
         23    2    1    2    0    0  0.22429534825E+03 -0.72564005421E+02  0.30623522534E+01  0.25193503624E+03  0.88814111238E+02 0.  0.
         13    1    3    3    0    0  0.59631003190E+02  0.15290682906E+02  0.19505816679E+02  0.64576608842E+02  0.00000000000E+00 0.  1.
        -13    1    3    3    0    0  0.16466434506E+03 -0.87854688327E+02 -0.16443464426E+02  0.18735842740E+03  0.00000000000E+00 0. -1.
         22    1    1    2    0    0 -0.22429534825E+03  0.72564005421E+02  0.70648728616E+03  0.74478065471E+03  0.00000000000E+00 0.  1.
<mgrwt>
<rscale>  0 0.69998677E+03</rscale>
<asrwt>0</asrwt>
<pdfrwt beam="1">  1        2 0.13125118E+00 0.69998677E+03</pdfrwt>
<pdfrwt beam="2">  1       -2 0.22089697E-01 0.69998677E+03</pdfrwt>
<totfact> 0.56873393E+02</totfact>
</mgrwt>
</event>
<event>
 6    1  0.5040916E-004  0.1822885E+04  0.7818608E-02  0.8694223E-01
         -2   -1    0    0    0  501 -0.00000000000E+00  0.00000000000E+00  0.20815104219E+03  0.20815104219E+03  0.00000000000E+00 0. -1.
          2   -1    0    0  501    0  0.00000000000E+00 -0.00000000000E+00 -0.39909823798E+04  0.39909823798E+04  0.00000000000E+00 0.  1.
         23    2    1    2    0    0  0.71215198190E+03 -0.15559690288E+03 -0.31476248808E+04  0.32322528273E+04  0.92439753722E+02 0.  0.
         11    1    3    3    0    0  0.25019322187E+03 -0.93576265643E+02 -0.12500473267E+04  0.12782689407E+04  0.00000000000E+00 0. -1.
        -11    1    3    3    0    0  0.46195876003E+03 -0.62020637240E+02 -0.18975775541E+04  0.19539838866E+04  0.00000000000E+00 0.  1.
         22    1    1    2    0    0 -0.71215198190E+03  0.15559690288E+03 -0.63520645676E+03  0.96688059460E+03  0.00000000000E+00 0. -1.
<mgrwt>
<rscale>  0 0.18228847E+04</rscale>
<asrwt>0</asrwt>
<pdfrwt beam="1">  1        2 0.61399732E+00 0.18228847E+04</pdfrwt>
<pdfrwt beam="2">  1       -2 0.32023236E-01 0.18228847E+04</pdfrwt>
<totfact> 0.30160324E+00</totfact>
</mgrwt>
</event>
<event>
 6    1  0.5040916E-004  0.1842445E+04  0.7818608E-02  0.8684048E-01
         -2   -1    0    0    0  501 -0.00000000000E+00  0.00000000000E+00  0.25475101434E+03  0.25475101434E+03  0.00000000000E+00 0. -1.
          2   -1    0    0  501    0  0.00000000000E+00 -0.00000000000E+00 -0.33312947062E+04  0.33312947062E+04  0.00000000000E+00 0.  1.
         23    2    1    2    0    0  0.64236680140E+03 -0.15633947430E+03 -0.27844777270E+04  0.28632873470E+04  0.89560484151E+02 0.  0.
         11    1    3    3    0    0  0.28777160104E+03 -0.88997830127E+02 -0.14428828774E+04  0.14739891811E+04  0.00000000000E+00 0.  1.
        -11    1    3    3    0    0  0.35459520035E+03 -0.67341644174E+02 -0.13415948497E+04  0.13892981659E+04  0.00000000000E+00 0. -1.
         22    1    1    2    0    0 -0.64236680140E+03  0.15633947430E+03 -0.29206596486E+03  0.72275837359E+03  0.00000000000E+00 0. -1.
<mgrwt>
<rscale>  0 0.18424448E+04</rscale>
<asrwt>0</asrwt>
<pdfrwt beam="1">  1        2 0.51250692E+00 0.18424448E+04</pdfrwt>
<pdfrwt beam="2">  1       -2 0.39192461E-01 0.18424448E+04</pdfrwt>
<totfact> 0.61834121E+00</totfact>
</mgrwt>
</event>
<event>
 6    1  0.5040916E-004  0.5097089E+04  0.7818608E-02  0.7813702E-01
          2   -1    0    0  501    0  0.00000000000E+00  0.00000000000E+00  0.15108623496E+04  0.15108623496E+04  0.00000000000E+00 0.  1.
         -2   -1    0    0    0  501 -0.00000000000E+00 -0.00000000000E+00 -0.42989216423E+04  0.42989216423E+04  0.00000000000E+00 0. -1.
         23    2    1    2    0    0  0.14638492387E+04 -0.20784720878E+04 -0.15864176911E+04  0.29978730132E+04  0.87296614104E+02 0.  0.
         11    1    3    3    0    0  0.40543328276E+03 -0.63068095883E+03 -0.49623064798E+03  0.89909925736E+03  0.00000000000E+00 0.  1.
        -11    1    3    3    0    0  0.10584159560E+04 -0.14477911290E+04 -0.10901870431E+04  0.20987737558E+04  0.00000000000E+00 0. -1.
         22    1    1    2    0    0 -0.14638492387E+04  0.20784720878E+04 -0.12016416017E+04  0.28119109788E+04  0.00000000000E+00 0. -1.
<mgrwt>
<rscale>  0 0.50970889E+04</rscale>
<asrwt>0</asrwt>
<pdfrwt beam="1">  1        2 0.23244037E+00 0.50970889E+04</pdfrwt>
<pdfrwt beam="2">  1       -2 0.66137255E+00 0.50970889E+04</pdfrwt>
<totfact> 0.28151314E-03</totfact>
</mgrwt>
</event>
<event>
 6    1  0.5040916E-004  0.2453064E+04  0.7818608E-02  0.8419900E-01
          4   -1    0    0  501    0  0.00000000000E+00  0.00000000000E+00  0.17076996074E+04  0.17076996074E+04  0.00000000000E+00 0.  1.
         -4   -1    0    0    0  501 -0.00000000000E+00 -0.00000000000E+00 -0.88093993093E+03  0.88093993093E+03  0.00000000000E+00 0. -1.
         23    2    1    2    0    0 -0.95668605908E+01  0.12130131622E+04  0.23370342593E+03  0.12383772776E+04  0.86420680621E+02 0.  0.
         11    1    3    3    0    0  0.18269010868E+02  0.96665719635E+03  0.20956626353E+03  0.98928151242E+03  0.00000000000E+00 0. -1.
        -11    1    3    3    0    0 -0.27835871459E+02  0.24635596581E+03  0.24137162402E+02  0.24909576520E+03  0.00000000000E+00 0.  1.
         22    1    1    2    0    0  0.95668605908E+01 -0.12130131622E+04  0.59305625054E+03  0.13502622607E+04  0.00000000000E+00 0.  1.
<mgrwt>
<rscale>  0 0.24530640E+04</rscale>
<asrwt>0</asrwt>
<pdfrwt beam="1">  1        4 0.26272302E+00 0.24530640E+04</pdfrwt>
<pdfrwt beam="2">  1       -4 0.13552922E+00 0.24530640E+04</pdfrwt>
<totfact> 0.36572740E-02</totfact>
</mgrwt>
</event>
<event>
 6    1  0.5040916E-004  0.1389194E+04  0.7818608E-02  0.8961678E-01
          2   -1    0    0  501    0  0.00000000000E+00  0.00000000000E+00  0.26341414460E+04  0.26341414460E+04  0.00000000000E+00 0.  1.
         -2   -1    0    0    0  501 -0.00000000000E+00 -0.00000000000E+00 -0.18315825856E+03  0.18315825856E+03  0.00000000000E+00 0. -1.
         23    2    1    2    0    0  0.64182049702E+03  0.78595435039E+02  0.17287282993E+04  0.18478860074E+04  0.89835241958E+02 0.  0.
         11    1    3    3    0    0  0.54685187393E+03  0.77622854710E+02  0.13792627284E+04  0.14857449154E+04  0.00000000000E+00 0. -1.
        -11    1    3    3    0    0  0.94968623090E+02  0.97258032866E+00  0.34946557090E+03  0.36214109202E+03  0.00000000000E+00 0.  1.
         22    1    1    2    0    0 -0.64182049702E+03 -0.78595435039E+02  0.72225488809E+03  0.96941369712E+03  0.00000000000E+00 0. -1.
<mgrwt>
<rscale>  0 0.13891937E+04</rscale>
<asrwt>0</asrwt>
<pdfrwt beam="1">  1        2 0.40525250E+00 0.13891937E+04</pdfrwt>
<pdfrwt beam="2">  1       -2 0.28178196E-01 0.13891937E+04</pdfrwt>
<totfact> 0.32771247E+01</totfact>
</mgrwt>
</event>
<event>
 6    1  0.5040916E-004  0.2051116E+04  0.7818608E-02  0.8583088E-01
          2   -1    0    0  501    0  0.00000000000E+00  0.00000000000E+00  0.22778202426E+04  0.22778202426E+04  0.00000000000E+00 0.  1.
         -2   -1    0    0    0  501 -0.00000000000E+00 -0.00000000000E+00 -0.46174385227E+03  0.46174385227E+03  0.00000000000E+00 0. -1.
         23    2    1    2    0    0 -0.76879353918E+03  0.45641378649E+02  0.95465742533E+01  0.77572178508E+03  0.92339100263E+02 0.  0.
         11    1    3    3    0    0 -0.70030786002E+02  0.31222424343E+02 -0.22952866892E+01  0.76709967481E+02  0.00000000000E+00 0.  1.
        -11    1    3    3    0    0 -0.69876275318E+03  0.14418954305E+02  0.11841860943E+02  0.69901181760E+03  0.00000000000E+00 0. -1.
         22    1    1    2    0    0  0.76879353918E+03 -0.45641378649E+02  0.18065298161E+04  0.19638423098E+04  0.00000000000E+00 0.  1.
<mgrwt>
<rscale>  0 0.20511163E+04</rscale>
<asrwt>0</asrwt>
<pdfrwt beam="1">  1        2 0.35043388E+00 0.20511163E+04</pdfrwt>
<pdfrwt beam="2">  1       -2 0.71037517E-01 0.20511163E+04</pdfrwt>
<totfact> 0.77724865E+00</totfact>
</mgrwt>
</event>
<event>
 6    1  0.5040916E-004  0.2617014E+04  0.7818608E-02  0.8362445E-01
         -2   -1    0    0    0  501 -0.00000000000E+00  0.00000000000E+00  0.69602374308E+03  0.69602374308E+03  0.00000000000E+00 0. -1.
          2   -1    0    0  501    0  0.00000000000E+00 -0.00000000000E+00 -0.24599608358E+04  0.24599608358E+04  0.00000000000E+00 0.  1.
         23    2    1    2    0    0  0.53718465850E+03 -0.83831556763E+03  0.13770958762E+03  0.10094523883E+04  0.93219340855E+02 0.  0.
         13    1    3    3    0    0  0.32470320323E+03 -0.57129538153E+03  0.63093889786E+02  0.66014500080E+03  0.00000000000E+00 0.  1.
        -13    1    3    3    0    0  0.21248145527E+03 -0.26702018609E+03  0.74615697830E+02  0.34930738752E+03  0.00000000000E+00 0. -1.
         22    1    1    2    0    0 -0.53718465850E+03  0.83831556763E+03 -0.19016466804E+04  0.21465321906E+04  0.00000000000E+00 0.  1.
<mgrwt>
<rscale>  0 0.26170144E+04</rscale>
<asrwt>0</asrwt>
<pdfrwt beam="1">  1        2 0.37845551E+00 0.26170144E+04</pdfrwt>
<pdfrwt beam="2">  1       -2 0.10708058E+00 0.26170144E+04</pdfrwt>
<totfact> 0.22737247E+00</totfact>
</mgrwt>
</event>
<event>
 6    1  0.5040916E-004  0.1556106E+04  0.7818608E-02  0.8847977E-01
         -2   -1    0    0    0  501 -0.00000000000E+00  0.00000000000E+00  0.32007218286E+03  0.32007218286E+03  0.00000000000E+00 0. -1.
          2   -1    0    0  501    0  0.00000000000E+00 -0.00000000000E+00 -0.18913431873E+04  0.18913431873E+04  0.00000000000E+00 0.  1.
         23    2    1    2    0    0 -0.11230038501E+01 -0.39524043607E+03 -0.17362798247E+04  0.17831115362E+04  0.92751589158E+02 0.  0.
         13    1    3    3    0    0  0.40563365467E+02 -0.26257728834E+03 -0.12039664717E+04  0.12329345011E+04  0.00000000000E+00 0.  1.
        -13    1    3    3    0    0 -0.41686369317E+02 -0.13266314773E+03 -0.53231335305E+03  0.55017703513E+03  0.00000000000E+00 0. -1.
         22    1    1    2    0    0  0.11230038501E+01  0.39524043607E+03  0.16500882027E+03  0.42830383399E+03  0.00000000000E+00 0. -1.
<mgrwt>
<rscale>  0 0.15561058E+04</rscale>
<asrwt>0</asrwt>
<pdfrwt beam="1">  1        2 0.29097588E+00 0.15561058E+04</pdfrwt>
<pdfrwt beam="2">  1       -2 0.49241874E-01 0.15561058E+04</pdfrwt>
<totfact> 0.28842183E+01</totfact>
</mgrwt>
</event>
<event>
 6    1  0.5040916E-004  0.2787465E+04  0.7818608E-02  0.8307171E-01
          2   -1    0    0  501    0  0.00000000000E+00  0.00000000000E+00  0.24487368764E+04  0.24487368764E+04  0.00000000000E+00 0.  1.
         -2   -1    0    0    0  501 -0.00000000000E+00 -0.00000000000E+00 -0.79326214696E+03  0.79326214696E+03  0.00000000000E+00 0. -1.
         23    2    1    2    0    0  0.12401895347E+04  0.40754698166E+03  0.26588495008E+03  0.13353988086E+04  0.91818010925E+02 0.  0.
         11    1    3    3    0    0  0.44076973706E+03  0.11590046893E+03  0.12759369800E+03  0.47327690792E+03  0.00000000000E+00 0. -1.
        -11    1    3    3    0    0  0.79941979760E+03  0.29164651273E+03  0.13829125208E+03  0.86212190065E+03  0.00000000000E+00 0.  1.
         22    1    1    2    0    0 -0.12401895347E+04 -0.40754698166E+03  0.13895897794E+04  0.19066002148E+04  0.00000000000E+00 0.  1.
<mgrwt>
<rscale>  0 0.27874650E+04</rscale>
<asrwt>0</asrwt>
<pdfrwt beam="1">  1        2 0.37672875E+00 0.27874650E+04</pdfrwt>
<pdfrwt beam="2">  1       -2 0.12204033E+00 0.27874650E+04</pdfrwt>
<totfact> 0.16525817E+00</totfact>
</mgrwt>
</event>
<event>
 6    1  0.5040916E-004  0.4241325E+04  0.7818608E-02  0.7957558E-01
          2   -1    0    0  501    0  0.00000000000E+00  0.00000000000E+00  0.20124579210E+04  0.20124579210E+04  0.00000000000E+00 0.  1.
         -2   -1    0    0    0  501 -0.00000000000E+00 -0.00000000000E+00 -0.22346846339E+04  0.22346846339E+04  0.00000000000E+00 0. -1.
         23    2    1    2    0    0  0.13169456325E+04  0.10496504138E+04  0.11778002516E+04  0.20571226254E+04  0.91805625818E+02 0.  0.
         13    1    3    3    0    0  0.89500694220E+03  0.66201953445E+03  0.75713370690E+03  0.13463130174E+04  0.00000000000E+00 0. -1.
        -13    1    3    3    0    0  0.42193869033E+03  0.38763087935E+03  0.42066654468E+03  0.71080960801E+03  0.00000000000E+00 0.  1.
         22    1    1    2    0    0 -0.13169456325E+04 -0.10496504138E+04 -0.14000269645E+04  0.21900199295E+04  0.00000000000E+00 0. -1.
<mgrwt>
<rscale>  0 0.42413247E+04</rscale>
<asrwt>0</asrwt>
<pdfrwt beam="1">  1        2 0.30960891E+00 0.42413247E+04</pdfrwt>
<pdfrwt beam="2">  1       -2 0.34379763E+00 0.42413247E+04</pdfrwt>
<totfact> 0.86582705E-02</totfact>
</mgrwt>
</event>
<event>
 6    1  0.5040916E-004  0.2736821E+04  0.7818608E-02  0.8323156E-01
         -2   -1    0    0    0  501 -0.00000000000E+00  0.00000000000E+00  0.17497854498E+04  0.17497854498E+04  0.00000000000E+00 0. -1.
          2   -1    0    0  501    0  0.00000000000E+00 -0.00000000000E+00 -0.10701582655E+04  0.10701582655E+04  0.00000000000E+00 0.  1.
         23    2    1    2    0    0 -0.10397363529E+04  0.88695207985E+03  0.36750294061E+03  0.14181030614E+04  0.90676381205E+02 0.  0.
         11    1    3    3    0    0 -0.25289854070E+03  0.26847516480E+03  0.96405114048E+02  0.38122241804E+03  0.00000000000E+00 0.  1.
        -11    1    3    3    0    0 -0.78683781216E+03  0.61847691505E+03  0.27109782657E+03  0.10368806434E+04  0.00000000000E+00 0. -1.
         22    1    1    2    0    0  0.10397363529E+04 -0.88695207985E+03  0.31212424365E+03  0.14018406539E+04  0.00000000000E+00 0.  1.
<mgrwt>
<rscale>  0 0.27368210E+04</rscale>
<asrwt>0</asrwt>
<pdfrwt beam="1">  1        2 0.16463973E+00 0.27368210E+04</pdfrwt>
<pdfrwt beam="2">  1       -2 0.26919776E+00 0.27368210E+04</pdfrwt>
<totfact> 0.97475417E-01</totfact>
</mgrwt>
</event>
<event>
 6    1  0.5040916E-004  0.2112404E+04  0.7818608E-02  0.8555799E-01
          2   -1    0    0  501    0  0.00000000000E+00  0.00000000000E+00  0.13692430296E+04  0.13692430296E+04  0.00000000000E+00 0.  1.
         -2   -1    0    0    0  501 -0.00000000000E+00 -0.00000000000E+00 -0.81472961842E+03  0.81472961842E+03  0.00000000000E+00 0. -1.
         23    2    1    2    0    0  0.30186745583E+03  0.77291190177E+02 -0.76355230216E+03  0.82957421563E+03  0.89907575539E+02 0.  0.
         11    1    3    3    0    0  0.88761153946E+02  0.55732029294E+02 -0.18471521221E+03  0.21237775580E+03  0.00000000000E+00 0.  1.
        -11    1    3    3    0    0  0.21310630189E+03  0.21559160883E+02 -0.57883708995E+03  0.61719645983E+03  0.00000000000E+00 0. -1.
         22    1    1    2    0    0 -0.30186745583E+03 -0.77291190177E+02  0.13180657133E+04  0.13543984324E+04  0.00000000000E+00 0.  1.
<mgrwt>
<rscale>  0 0.21124042E+04</rscale>
<asrwt>0</asrwt>
<pdfrwt beam="1">  1        2 0.21065277E+00 0.21124042E+04</pdfrwt>
<pdfrwt beam="2">  1       -2 0.12534302E+00 0.21124042E+04</pdfrwt>
<totfact> 0.66084124E+00</totfact>
</mgrwt>
</event>
<event>
 6    1  0.5040916E-004  0.1917747E+04  0.7818608E-02  0.8646073E-01
          2   -1    0    0  501    0  0.00000000000E+00  0.00000000000E+00  0.26665320297E+04  0.26665320297E+04  0.00000000000E+00 0.  1.
         -2   -1    0    0    0  501 -0.00000000000E+00 -0.00000000000E+00 -0.34480674111E+03  0.34480674111E+03  0.00000000000E+00 0. -1.
         23    2    1    2    0    0  0.21999640401E+03  0.29256137727E+02  0.26247815127E+04  0.26357094132E+04  0.90729169738E+02 0.  0.
         13    1    3    3    0    0  0.19841458208E+03 -0.56178618401E+01  0.21275087754E+04  0.21367483465E+04  0.00000000000E+00 0.  1.
        -13    1    3    3    0    0  0.21581821929E+02  0.34873999567E+02  0.49727273729E+03  0.49896106675E+03  0.00000000000E+00 0. -1.
         22    1    1    2    0    0 -0.21999640401E+03 -0.29256137727E+02 -0.30305622406E+03  0.37562935763E+03  0.00000000000E+00 0. -1.
<mgrwt>
<rscale>  0 0.19177468E+04</rscale>
<asrwt>0</asrwt>
<pdfrwt beam="1">  1        2 0.41023568E+00 0.19177468E+04</pdfrwt>
<pdfrwt beam="2">  1       -2 0.53047193E-01 0.19177468E+04</pdfrwt>
<totfact> 0.87244911E+00</totfact>
</mgrwt>
</event>
<event>
 6    1  0.6136232E-004  0.3521963E+04  0.7818608E-02  0.8108605E-01
          2   -1    0    0  501    0  0.00000000000E+00  0.00000000000E+00  0.23405031798E+04  0.23405031798E+04  0.00000000000E+00 0.  1.
         -2   -1    0    0    0  501 -0.00000000000E+00 -0.00000000000E+00 -0.13249524431E+04  0.13249524431E+04  0.00000000000E+00 0. -1.
         23    2    1    2    0    0  0.39110626799E+03  0.59417435084E+03  0.21833112790E+04  0.22980961397E+04  0.91599422108E+02 0.  0.
         11    1    3    3    0    0  0.25733134680E+03  0.30825059554E+03  0.12221316004E+04  0.12864072063E+04  0.00000000000E+00 0. -1.
        -11    1    3    3    0    0  0.13377492118E+03  0.28592375529E+03  0.96117967859E+03  0.10116889334E+04  0.00000000000E+00 0.  1.
         22    1    1    2    0    0 -0.39110626799E+03 -0.59417435084E+03 -0.11677605423E+04  0.13673594832E+04  0.00000000000E+00 0. -1.
<mgrwt>
<rscale>  0 0.35219628E+04</rscale>
<asrwt>0</asrwt>
<pdfrwt beam="1">  1        2 0.36007741E+00 0.35219628E+04</pdfrwt>
<pdfrwt beam="2">  1       -2 0.20383884E+00 0.35219628E+04</pdfrwt>
<totfact> 0.44265884E-01</totfact>
</mgrwt>
</event>
<event>
 6    1  0.5040916E-004  0.1866681E+04  0.7818608E-02  0.8671622E-01
         -2   -1    0    0    0  501 -0.00000000000E+00  0.00000000000E+00  0.23775043702E+03  0.23775043702E+03  0.00000000000E+00 0. -1.
          2   -1    0    0  501    0  0.00000000000E+00 -0.00000000000E+00 -0.36640275877E+04  0.36640275877E+04  0.00000000000E+00 0.  1.
         23    2    1    2    0    0  0.69205687475E+03  0.50096370635E+03 -0.24912459011E+04  0.26352114885E+04  0.90144863931E+02 0.  0.
         11    1    3    3    0    0  0.20173158448E+03  0.15600614402E+03 -0.87297772699E+03  0.90946339177E+03  0.00000000000E+00 0. -1.
        -11    1    3    3    0    0  0.49032529027E+03  0.34495756234E+03 -0.16182681741E+04  0.17257480967E+04  0.00000000000E+00 0.  1.
         22    1    1    2    0    0 -0.69205687475E+03 -0.50096370635E+03 -0.93503124962E+03  0.12665665362E+04  0.00000000000E+00 0.  1.
<mgrwt>
<rscale>  0 0.18666806E+04</rscale>
<asrwt>0</asrwt>
<pdfrwt beam="1">  1        2 0.56369652E+00 0.18666806E+04</pdfrwt>
<pdfrwt beam="2">  1       -2 0.36576993E-01 0.18666806E+04</pdfrwt>
<totfact> 0.41372143E+00</totfact>
</mgrwt>
</event>
<event>
 6    1  0.5040916E-004  0.7797632E+03  0.7818608E-02  0.9589780E-01
          2   -1    0    0  501    0  0.00000000000E+00  0.00000000000E+00  0.30121940842E+04  0.30121940842E+04  0.00000000000E+00 0.  1.
         -2   -1    0    0    0  501 -0.00000000000E+00 -0.00000000000E+00 -0.50464093370E+02  0.50464093370E+02  0.00000000000E+00 0. -1.
         23    2    1    2    0    0 -0.14302204831E+03 -0.20722101844E+03  0.26417099301E+04  0.26554620381E+04  0.97218433511E+02 0.  0.
         11    1    3    3    0    0 -0.10032455914E+03 -0.13295380728E+03  0.12399138580E+04  0.12510508012E+04  0.00000000000E+00 0.  1.
        -11    1    3    3    0    0 -0.42697489167E+02 -0.74267211166E+02  0.14017960722E+04  0.14044112369E+04  0.00000000000E+00 0. -1.
         22    1    1    2    0    0  0.14302204831E+03  0.20722101844E+03  0.32002006070E+03  0.40719613951E+03  0.00000000000E+00 0. -1.
<mgrwt>
<rscale>  0 0.77976315E+03</rscale>
<asrwt>0</asrwt>
<pdfrwt beam="1">  1        2 0.46341433E+00 0.77976315E+03</pdfrwt>
<pdfrwt beam="2">  1       -2 0.77637090E-02 0.77976315E+03</pdfrwt>
<totfact> 0.18582024E+02</totfact>
</mgrwt>
</event>
<event>
 6    1  0.5040916E-004  0.3676072E+04  0.7818608E-02  0.8073285E-01
         -2   -1    0    0    0  501 -0.00000000000E+00  0.00000000000E+00  0.11161620530E+04  0.11161620530E+04  0.00000000000E+00 0. -1.
          2   -1    0    0  501    0  0.00000000000E+00 -0.00000000000E+00 -0.30267794031E+04  0.30267794031E+04  0.00000000000E+00 0.  1.
         23    2    1    2    0    0 -0.81295117585E+03 -0.16239611582E+04 -0.12670816702E+04  0.22162142754E+04  0.89276525394E+02 0.  0.
         11    1    3    3    0    0 -0.47898489397E+03 -0.10199748816E+04 -0.74555901417E+03  0.13511600687E+04  0.00000000000E+00 0.  1.
        -11    1    3    3    0    0 -0.33396628188E+03 -0.60398627660E+03 -0.52152265603E+03  0.86505420669E+03  0.00000000000E+00 0. -1.
         22    1    1    2    0    0  0.81295117585E+03  0.16239611582E+04 -0.64353567995E+03  0.19267271807E+04  0.00000000000E+00 0. -1.
<mgrwt>
<rscale>  0 0.36760720E+04</rscale>
<asrwt>0</asrwt>
<pdfrwt beam="1">  1        2 0.46565837E+00 0.36760720E+04</pdfrwt>
<pdfrwt beam="2">  1       -2 0.17171724E+00 0.36760720E+04</pdfrwt>
<totfact> 0.28094218E-01</totfact>
</mgrwt>
</event>
<event>
 6    1  0.5040916E-004  0.1303589E+04  0.7818608E-02  0.9026724E-01
          1   -1    0    0  501    0  0.00000000000E+00  0.00000000000E+00  0.48000283568E+03  0.48000283568E+03  0.00000000000E+00 0.  1.
         -1   -1    0    0    0  501 -0.00000000000E+00 -0.00000000000E+00 -0.88506964516E+03  0.88506964516E+03  0.00000000000E+00 0. -1.
         23    2    1    2    0    0 -0.23822135739E+03 -0.58780584244E+03 -0.61323291685E+02  0.64366778891E+03  0.91008531709E+02 0.  0.
         13    1    3    3    0    0 -0.11115714402E+03 -0.36883543928E+03 -0.63916188805E+02  0.39048786297E+03  0.00000000000E+00 0. -1.
        -13    1    3    3    0    0 -0.12706421337E+03 -0.21897040316E+03  0.25928971197E+01  0.25317992594E+03  0.00000000000E+00 0.  1.
         22    1    1    2    0    0  0.23822135739E+03  0.58780584244E+03 -0.34374351780E+03  0.72140469194E+03  0.00000000000E+00 0.  1.
<mgrwt>
<rscale>  0 0.13035888E+04</rscale>
<asrwt>0</asrwt>
<pdfrwt beam="1">  1        1 0.73846591E-01 0.13035888E+04</pdfrwt>
<pdfrwt beam="2">  1       -1 0.13616456E+00 0.13035888E+04</pdfrwt>
<totfact> 0.20755741E+01</totfact>
</mgrwt>
</event>
<event>
 6    1  0.5040916E-004  0.4627039E+04  0.7818608E-02  0.7888766E-01
         -2   -1    0    0    0  501 -0.00000000000E+00  0.00000000000E+00  0.26873675794E+04  0.26873675794E+04  0.00000000000E+00 0. -1.
          2   -1    0    0  501    0  0.00000000000E+00 -0.00000000000E+00 -0.19916786948E+04  0.19916786948E+04  0.00000000000E+00 0.  1.
         23    2    1    2    0    0 -0.81306302766E+03 -0.21560682967E+04  0.14799251930E+03  0.23105713861E+04  0.84476963469E+02 0.  0.
         13    1    3    3    0    0 -0.69204217898E+02 -0.25683907090E+03  0.94654086501E+01  0.26616747749E+03  0.00000000000E+00 0. -1.
        -13    1    3    3    0    0 -0.74385880977E+03 -0.18992292258E+04  0.13852711065E+03  0.20444039086E+04  0.00000000000E+00 0.  1.
         22    1    1    2    0    0  0.81306302766E+03  0.21560682967E+04  0.54769636527E+03  0.23684748881E+04  0.00000000000E+00 0.  1.
<mgrwt>
<rscale>  0 0.46270391E+04</rscale>
<asrwt>0</asrwt>
<pdfrwt beam="1">  1        2 0.30641211E+00 0.46270391E+04</pdfrwt>
<pdfrwt beam="2">  1       -2 0.41344117E+00 0.46270391E+04</pdfrwt>
<totfact> 0.30693786E-02</totfact>
</mgrwt>
</event>
<event>
 6    1  0.5040916E-004  0.1591801E+04  0.7818608E-02  0.8825601E-01
          2   -1    0    0  501    0  0.00000000000E+00  0.00000000000E+00  0.14181733766E+04  0.14181733766E+04  0.00000000000E+00 0.  1.
         -2   -1    0    0    0  501 -0.00000000000E+00 -0.00000000000E+00 -0.44667127874E+03  0.44667127874E+03  0.00000000000E+00 0. -1.
         23    2    1    2    0    0 -0.12233726271E+03  0.48512618700E+03 -0.23560039900E+03  0.55816555889E+03  0.75679719678E+02 0.  0.
         13    1    3    3    0    0 -0.11454194111E+03  0.31419989955E+03 -0.14435382550E+03  0.36425191844E+03  0.00000000000E+00 0.  1.
        -13    1    3    3    0    0 -0.77953215973E+01  0.17092628745E+03 -0.91246573494E+02  0.19391364046E+03  0.00000000000E+00 0. -1.
         22    1    1    2    0    0  0.12233726271E+03 -0.48512618700E+03  0.12071024968E+04  0.13066790964E+04  0.00000000000E+00 0.  1.
<mgrwt>
<rscale>  0 0.15918006E+04</rscale>
<asrwt>0</asrwt>
<pdfrwt beam="1">  1        2 0.21818052E+00 0.15918006E+04</pdfrwt>
<pdfrwt beam="2">  1       -2 0.68718659E-01 0.15918006E+04</pdfrwt>
<totfact> 0.26236009E+01</totfact>
</mgrwt>
</event>
<event>
 6    1  0.5040916E-004  0.2969243E+04  0.7818608E-02  0.8252569E-01
          2   -1    0    0  501    0  0.00000000000E+00  0.00000000000E+00  0.21014638399E+04  0.21014638399E+04  0.00000000000E+00 0.  1.
         -2   -1    0    0    0  501 -0.00000000000E+00 -0.00000000000E+00 -0.10488410275E+04  0.10488410275E+04  0.00000000000E+00 0. -1.
         23    2    1    2    0    0 -0.10483353254E+04  0.77983364770E+03 -0.21803795929E+03  0.13277445064E+04  0.90650152350E+02 0.  0.
         13    1    3    3    0    0 -0.10199662282E+04  0.74995696863E+03 -0.19620688214E+03  0.12811181453E+04  0.00000000000E+00 0. -1.
        -13    1    3    3    0    0 -0.28369097150E+02  0.29876679070E+02 -0.21831077151E+02  0.46626361159E+02  0.00000000000E+00 0.  1.
         22    1    1    2    0    0  0.10483353254E+04 -0.77983364770E+03  0.12706607718E+04  0.18225603610E+04  0.00000000000E+00 0.  1.
<mgrwt>
<rscale>  0 0.29692433E+04</rscale>
<asrwt>0</asrwt>
<pdfrwt beam="1">  1        2 0.32330213E+00 0.29692433E+04</pdfrwt>
<pdfrwt beam="2">  1       -2 0.16136016E+00 0.29692433E+04</pdfrwt>
<totfact> 0.12388663E+00</totfact>
</mgrwt>
</event>
<event>
 6    1  0.5040916E-004  0.4784426E+04  0.7818608E-02  0.7862650E-01
          2   -1    0    0  501    0  0.00000000000E+00  0.00000000000E+00  0.26053685339E+04  0.26053685339E+04  0.00000000000E+00 0.  1.
         -2   -1    0    0    0  501 -0.00000000000E+00 -0.00000000000E+00 -0.21964961475E+04  0.21964961475E+04  0.00000000000E+00 0. -1.
         23    2    1    2    0    0  0.10982348753E+04  0.13438014790E+04  0.18556709696E+04  0.25424071367E+04  0.91635391973E+02 0.  0.
         13    1    3    3    0    0  0.84870791833E+03  0.97771629017E+03  0.13667665634E+04  0.18826271839E+04  0.00000000000E+00 0. -1.
        -13    1    3    3    0    0  0.24952695701E+03  0.36608518881E+03  0.48890440619E+03  0.65977995282E+03  0.00000000000E+00 0.  1.
         22    1    1    2    0    0 -0.10982348753E+04 -0.13438014790E+04 -0.14467985832E+04  0.22594575448E+04  0.00000000000E+00 0. -1.
<mgrwt>
<rscale>  0 0.47844255E+04</rscale>
<asrwt>0</asrwt>
<pdfrwt beam="1">  1        2 0.40082593E+00 0.47844255E+04</pdfrwt>
<pdfrwt beam="2">  1       -2 0.33792248E+00 0.47844255E+04</pdfrwt>
<totfact> 0.41453004E-02</totfact>
</mgrwt>
</event>
<event>
 6    1  0.5040916E-004  0.6631001E+04  0.7818608E-02  0.7616736E-01
          2   -1    0    0  501    0  0.00000000000E+00  0.00000000000E+00  0.30049794510E+04  0.30049794510E+04  0.00000000000E+00 0.  1.
         -2   -1    0    0    0  501 -0.00000000000E+00 -0.00000000000E+00 -0.36581094509E+04  0.36581094509E+04  0.00000000000E+00 0. -1.
         23    2    1    2    0    0 -0.85984932917E+03 -0.31736146981E+04  0.96334945467E+02  0.32907204723E+04  0.91595220158E+02 0.  0.
         11    1    3    3    0    0 -0.21104033822E+03 -0.88856560228E+03 -0.25909758537E+01  0.91328723142E+03  0.00000000000E+00 0. -1.
        -11    1    3    3    0    0 -0.64880899095E+03 -0.22850490958E+04  0.98925921321E+02  0.23774332409E+04  0.00000000000E+00 0.  1.
         22    1    1    2    0    0  0.85984932917E+03  0.31736146981E+04 -0.74946494532E+03  0.33723684296E+04  0.00000000000E+00 0.  1.
<mgrwt>
<rscale>  0 0.66310010E+04</rscale>
<asrwt>0</asrwt>
<pdfrwt beam="1">  1        2 0.46230453E+00 0.66310010E+04</pdfrwt>
<pdfrwt beam="2">  1       -2 0.56278607E+00 0.66310010E+04</pdfrwt>
<totfact> 0.83663422E-04</totfact>
</mgrwt>
</event>
<event>
 6    1  0.5040916E-004  0.4407203E+04  0.7818608E-02  0.7927087E-01
         -1   -1    0    0    0  501 -0.00000000000E+00  0.00000000000E+00  0.18015815689E+04  0.18015815689E+04  0.00000000000E+00 0.  1.
          1   -1    0    0  501    0  0.00000000000E+00 -0.00000000000E+00 -0.26953309921E+04  0.26953309921E+04  0.00000000000E+00 0. -1.
         23    2    1    2    0    0 -0.16582625872E+04 -0.13042626964E+04 -0.10930081363E+04  0.23777995332E+04  0.91257024200E+02 0.  0.
         13    1    3    3    0    0 -0.15769248577E+04 -0.12289490410E+04 -0.10141801178E+04  0.22417781032E+04  0.00000000000E+00 0. -1.
        -13    1    3    3    0    0 -0.81337729506E+02 -0.75313655415E+02 -0.78828018494E+02  0.13602143005E+03  0.00000000000E+00 0.  1.
         22    1    1    2    0    0  0.16582625872E+04  0.13042626964E+04  0.19925871320E+03  0.21191130277E+04  0.00000000000E+00 0. -1.
<mgrwt>
<rscale>  0 0.44072026E+04</rscale>
<asrwt>0</asrwt>
<pdfrwt beam="1">  1        1 0.41466631E+00 0.44072026E+04</pdfrwt>
<pdfrwt beam="2">  1       -1 0.27716639E+00 0.44072026E+04</pdfrwt>
<totfact> 0.34759708E-02</totfact>
</mgrwt>
</event>
<event>
 6    1  0.5040916E-004  0.1153136E+04  0.7818608E-02  0.9154895E-01
          2   -1    0    0  501    0  0.00000000000E+00  0.00000000000E+00  0.87456004591E+03  0.87456004591E+03  0.00000000000E+00 0.  1.
         -2   -1    0    0    0  501 -0.00000000000E+00 -0.00000000000E+00 -0.38011200672E+03  0.38011200672E+03  0.00000000000E+00 0. -1.
         23    2    1    2    0    0 -0.17792829057E+02 -0.47435455505E+03  0.59722398359E+03  0.76898519527E+03  0.96607014757E+02 0.  0.
         13    1    3    3    0    0 -0.53431713290E+02 -0.17840675322E+03  0.23715791619E+03  0.30154235987E+03  0.00000000000E+00 0. -1.
        -13    1    3    3    0    0  0.35638884233E+02 -0.29594780183E+03  0.36006606739E+03  0.46744283540E+03  0.00000000000E+00 0.  1.
         22    1    1    2    0    0  0.17792829057E+02  0.47435455505E+03 -0.10277594440E+03  0.48568685736E+03  0.00000000000E+00 0. -1.
<mgrwt>
<rscale>  0 0.11531362E+04</rscale>
<asrwt>0</asrwt>
<pdfrwt beam="1">  1        2 0.13454770E+00 0.11531362E+04</pdfrwt>
<pdfrwt beam="2">  1       -2 0.58478771E-01 0.11531362E+04</pdfrwt>
<totfact> 0.82601020E+01</totfact>
</mgrwt>
</event>
<event>
 6    1  0.5040916E-004  0.2416589E+04  0.7818608E-02  0.8433319E-01
         -2   -1    0    0    0  501 -0.00000000000E+00  0.00000000000E+00  0.15071092843E+04  0.15071092843E+04  0.00000000000E+00 0. -1.
          2   -1    0    0  501    0  0.00000000000E+00 -0.00000000000E+00 -0.96872593902E+03  0.96872593902E+03  0.00000000000E+00 0.  1.
         23    2    1    2    0    0 -0.25470733142E+03 -0.10672355000E+04  0.78371315811E+03  0.13515335938E+04  0.92570534631E+02 0.  0.
         13    1    3    3    0    0 -0.23185628136E+03 -0.98174868212E+03  0.74926286973E+03  0.12565757669E+04  0.00000000000E+00 0. -1.
        -13    1    3    3    0    0 -0.22851050053E+02 -0.85486817878E+02  0.34450288383E+02  0.94957826897E+02  0.00000000000E+00 0.  1.
         22    1    1    2    0    0  0.25470733142E+03  0.10672355000E+04 -0.24532981280E+03  0.11243016295E+04  0.00000000000E+00 0.  1.
<mgrwt>
<rscale>  0 0.24165892E+04</rscale>
<asrwt>0</asrwt>
<pdfrwt beam="1">  1        2 0.14903476E+00 0.24165892E+04</pdfrwt>
<pdfrwt beam="2">  1       -2 0.23186297E+00 0.24165892E+04</pdfrwt>
<totfact> 0.19723303E+00</totfact>
</mgrwt>
</event>
<event>
 6    1  0.5040916E-004  0.1837458E+04  0.7818608E-02  0.8686629E-01
         -2   -1    0    0    0  501 -0.00000000000E+00  0.00000000000E+00  0.71135464935E+03  0.71135464935E+03  0.00000000000E+00 0. -1.
          2   -1    0    0  501    0  0.00000000000E+00 -0.00000000000E+00 -0.11865578340E+04  0.11865578340E+04  0.00000000000E+00 0.  1.
         23    2    1    2    0    0  0.81915661633E+03  0.41074637855E+03 -0.22211474115E+03  0.94723698152E+03  0.90514039546E+02 0.  0.
         13    1    3    3    0    0  0.59086268221E+03  0.33076106430E+03 -0.13747502523E+03  0.69095656408E+03  0.00000000000E+00 0.  1.
        -13    1    3    3    0    0  0.22829393412E+03  0.79985314247E+02 -0.84639715918E+02  0.25628041743E+03  0.00000000000E+00 0. -1.
         22    1    1    2    0    0 -0.81915661633E+03 -0.41074637855E+03 -0.25308844353E+03  0.95067550185E+03  0.00000000000E+00 0. -1.
<mgrwt>
<rscale>  0 0.18374585E+04</rscale>
<asrwt>0</asrwt>
<pdfrwt beam="1">  1        2 0.18254736E+00 0.18374585E+04</pdfrwt>
<pdfrwt beam="2">  1       -2 0.10943918E+00 0.18374585E+04</pdfrwt>
<totfact> 0.12083601E+01</totfact>
</mgrwt>
</event>
<event>
 6    1  0.5040916E-004  0.1893058E+04  0.7818608E-02  0.8658320E-01
          2   -1    0    0  501    0  0.00000000000E+00  0.00000000000E+00  0.80247295926E+03  0.80247295926E+03  0.00000000000E+00 0.  1.
         -2   -1    0    0    0  501 -0.00000000000E+00 -0.00000000000E+00 -0.11164450152E+04  0.11164450152E+04  0.00000000000E+00 0. -1.
         23    2    1    2    0    0  0.80994553722E+03 -0.41811182611E+03 -0.40708328343E+03  0.10026762089E+04  0.93880284480E+02 0.  0.
         13    1    3    3    0    0  0.40666916906E+03 -0.23593894996E+03 -0.16497651935E+03  0.49826122979E+03  0.00000000000E+00 0.  1.
        -13    1    3    3    0    0  0.40327636816E+03 -0.18217287615E+03 -0.24210676408E+03  0.50441497909E+03  0.00000000000E+00 0. -1.
         22    1    1    2    0    0 -0.80994553722E+03  0.41811182611E+03  0.93111227445E+02  0.91624176562E+03  0.00000000000E+00 0. -1.
<mgrwt>
<rscale>  0 0.18930578E+04</rscale>
<asrwt>0</asrwt>
<pdfrwt beam="1">  1        2 0.12345738E+00 0.18930578E+04</pdfrwt>
<pdfrwt beam="2">  1       -2 0.17176077E+00 0.18930578E+04</pdfrwt>
<totfact> 0.66537434E+00</totfact>
</mgrwt>
</event>
<event>
 6    1  0.5040916E-004  0.7483605E+03  0.7818608E-02  0.9637926E-01
         -2   -1    0    0    0  501 -0.00000000000E+00  0.00000000000E+00  0.10387663011E+03  0.10387663011E+03  0.00000000000E+00 0. -1.
          2   -1    0    0  501    0  0.00000000000E+00 -0.00000000000E+00 -0.13478570653E+04  0.13478570653E+04  0.00000000000E+00 0.  1.
         23    2    1    2    0    0  0.16413093673E+03  0.23164552136E+03 -0.10861011639E+04  0.11268883841E+04  0.98300967062E+02 0.  0.
         13    1    3    3    0    0  0.12740185083E+02  0.76282523892E+01 -0.19765928129E+03  0.19821628094E+03  0.00000000000E+00 0. -1.
        -13    1    3    3    0    0  0.15139075165E+03  0.22401726897E+03 -0.88844188261E+03  0.92867210320E+03  0.00000000000E+00 0.  1.
         22    1    1    2    0    0 -0.16413093673E+03 -0.23164552136E+03 -0.15787927130E+03  0.32484531129E+03  0.00000000000E+00 0. -1.
<mgrwt>
<rscale>  0 0.74836047E+03</rscale>
<asrwt>0</asrwt>
<pdfrwt beam="1">  1        2 0.20736262E+00 0.74836047E+03</pdfrwt>
<pdfrwt beam="2">  1       -2 0.15981020E-01 0.74836047E+03</pdfrwt>
<totfact> 0.49263858E+02</totfact>
</mgrwt>
</event>
<event>
 6    1  0.5040916E-004  0.1866887E+04  0.7818608E-02  0.8671517E-01
          2   -1    0    0  501    0  0.00000000000E+00  0.00000000000E+00  0.89933112023E+03  0.89933112023E+03  0.00000000000E+00 0. -1.
         -2   -1    0    0    0  501 -0.00000000000E+00 -0.00000000000E+00 -0.96884965057E+03  0.96884965057E+03  0.00000000000E+00 0.  1.
         23    2    1    2    0    0  0.27994901245E+03 -0.37089597613E+03  0.77253671471E+03  0.90641556535E+03  0.94026203030E+02 0.  0.
         13    1    3    3    0    0  0.18367784224E+03 -0.28557353797E+03  0.49199313665E+03  0.59778511342E+03  0.00000000000E+00 0. -1.
        -13    1    3    3    0    0  0.96271170212E+02 -0.85322438159E+02  0.28054357807E+03  0.30863045194E+03  0.00000000000E+00 0.  1.
         22    1    1    2    0    0 -0.27994901245E+03  0.37089597613E+03 -0.84205524505E+03  0.96176520544E+03  0.00000000000E+00 0.  1.
<mgrwt>
<rscale>  0 0.18668869E+04</rscale>
<asrwt>0</asrwt>
<pdfrwt beam="1">  1        2 0.13835863E+00 0.18668869E+04</pdfrwt>
<pdfrwt beam="2">  1       -2 0.14905379E+00 0.18668869E+04</pdfrwt>
<totfact> 0.83961663E+00</totfact>
</mgrwt>
</event>
<event>
 6    1  0.5040916E-004  0.5173947E+04  0.7818608E-02  0.7802220E-01
         -2   -1    0    0    0  501 -0.00000000000E+00  0.00000000000E+00  0.17653760037E+04  0.17653760037E+04  0.00000000000E+00 0. -1.
          2   -1    0    0  501    0  0.00000000000E+00 -0.00000000000E+00 -0.37909382492E+04  0.37909382492E+04  0.00000000000E+00 0.  1.
         23    2    1    2    0    0 -0.19544658100E+04  0.44632602508E+03 -0.27676012278E+04  0.34186132977E+04  0.90315006144E+02 0.  0.
         11    1    3    3    0    0 -0.17358866888E+04  0.42527767808E+03 -0.24637452781E+04  0.30437155740E+04  0.00000000000E+00 0.  1.
        -11    1    3    3    0    0 -0.21857912112E+03  0.21048347003E+02 -0.30385594964E+03  0.37489772370E+03  0.00000000000E+00 0. -1.
         22    1    1    2    0    0  0.19544658100E+04 -0.44632602508E+03  0.74203898220E+03  0.21377009553E+04  0.00000000000E+00 0. -1.
<mgrwt>
<rscale>  0 0.51739468E+04</rscale>
<asrwt>0</asrwt>
<pdfrwt beam="1">  1        2 0.58322127E+00 0.51739468E+04</pdfrwt>
<pdfrwt beam="2">  1       -2 0.27159631E+00 0.51739468E+04</pdfrwt>
<totfact> 0.16921421E-02</totfact>
</mgrwt>
</event>
<event>
 6    1  0.5040916E-004  0.2371910E+04  0.7818608E-02  0.8450095E-01
         -1   -1    0    0    0  501 -0.00000000000E+00  0.00000000000E+00  0.61801499558E+03  0.61801499558E+03  0.00000000000E+00 0. -1.
          1   -1    0    0  501    0  0.00000000000E+00 -0.00000000000E+00 -0.22758173802E+04  0.22758173802E+04  0.00000000000E+00 0.  1.
         23    2    1    2    0    0  0.62292049218E+03  0.94881266365E+03 -0.12424392816E+04  0.16851959881E+04  0.89189346729E+02 0.  0.
         11    1    3    3    0    0  0.36942212378E+03  0.63979238842E+03 -0.81297273057E+03  0.10985133893E+04  0.00000000000E+00 0. -1.
        -11    1    3    3    0    0  0.25349836840E+03  0.30902027523E+03 -0.42946655102E+03  0.58668259879E+03  0.00000000000E+00 0.  1.
         22    1    1    2    0    0 -0.62292049218E+03 -0.94881266365E+03 -0.41536310303E+03  0.12086363877E+04  0.00000000000E+00 0. -1.
<mgrwt>
<rscale>  0 0.23719100E+04</rscale>
<asrwt>0</asrwt>
<pdfrwt beam="1">  1        1 0.35012576E+00 0.23719100E+04</pdfrwt>
<pdfrwt beam="2">  1       -1 0.95079229E-01 0.23719100E+04</pdfrwt>
<totfact> 0.18558475E+00</totfact>
</mgrwt>
</event>
<event>
 6    1  0.5040916E-004  0.4774715E+04  0.7818608E-02  0.7864231E-01
          2   -1    0    0  501    0  0.00000000000E+00  0.00000000000E+00  0.36063054332E+04  0.36063054332E+04  0.00000000000E+00 0.  1.
         -2   -1    0    0    0  501 -0.00000000000E+00 -0.00000000000E+00 -0.15804197449E+04  0.15804197449E+04  0.00000000000E+00 0. -1.
         23    2    1    2    0    0 -0.70138734623E+03  0.28104169483E+03 -0.14457907832E+04  0.16337734242E+04  0.89308280842E+02 0.  0.
         13    1    3    3    0    0 -0.43511023203E+03  0.22027388254E+03 -0.93524483069E+03  0.10547627177E+04  0.00000000000E+00 0. -1.
        -13    1    3    3    0    0 -0.26627711420E+03  0.60767812291E+02 -0.51054595250E+03  0.57901070644E+03  0.00000000000E+00 0.  1.
         22    1    1    2    0    0  0.70138734623E+03 -0.28104169483E+03  0.34716764715E+04  0.35529517540E+04  0.00000000000E+00 0.  1.
<mgrwt>
<rscale>  0 0.47747152E+04</rscale>
<asrwt>0</asrwt>
<pdfrwt beam="1">  1        2 0.55481622E+00 0.47747152E+04</pdfrwt>
<pdfrwt beam="2">  1       -2 0.24314150E+00 0.47747152E+04</pdfrwt>
<totfact> 0.35782129E-02</totfact>
</mgrwt>
</event>
<event>
 6    1  0.5849109E-004  0.2762268E+04  0.7818608E-02  0.8315079E-01
          2   -1    0    0  501    0  0.00000000000E+00  0.00000000000E+00  0.84476751449E+03  0.84476751449E+03  0.00000000000E+00 0.  1.
         -2   -1    0    0    0  501 -0.00000000000E+00 -0.00000000000E+00 -0.22580542020E+04  0.22580542020E+04  0.00000000000E+00 0. -1.
         23    2    1    2    0    0 -0.10652071940E+03  0.58328267886E+03  0.69182565408E+03  0.91580015330E+03  0.92205412113E+02 0.  0.
         11    1    3    3    0    0 -0.95790471188E+02  0.34904600643E+03  0.36986178879E+03  0.51750040752E+03  0.00000000000E+00 0.  1.
        -11    1    3    3    0    0 -0.10730248213E+02  0.23423667243E+03  0.32196386529E+03  0.39829974578E+03  0.00000000000E+00 0. -1.
         22    1    1    2    0    0  0.10652071940E+03 -0.58328267886E+03 -0.21051123416E+04  0.21870215632E+04  0.00000000000E+00 0. -1.
<mgrwt>
<rscale>  0 0.27622678E+04</rscale>
<asrwt>0</asrwt>
<pdfrwt beam="1">  1        2 0.12996424E+00 0.27622678E+04</pdfrwt>
<pdfrwt beam="2">  1       -2 0.34739295E+00 0.27622678E+04</pdfrwt>
<totfact> 0.45142075E-01</totfact>
</mgrwt>
</event>
<event>
 6    1  0.5040916E-004  0.3490930E+04  0.7818608E-02  0.8115943E-01
         -2   -1    0    0    0  501 -0.00000000000E+00  0.00000000000E+00  0.15110422242E+04  0.15110422242E+04  0.00000000000E+00 0. -1.
          2   -1    0    0  501    0  0.00000000000E+00 -0.00000000000E+00 -0.20162566035E+04  0.20162566035E+04  0.00000000000E+00 0.  1.
         23    2    1    2    0    0  0.28910325460E+03  0.16983949508E+04  0.22943460502E+02  0.17253341209E+04  0.90140587079E+02 0.  0.
         13    1    3    3    0    0  0.13086978030E+03  0.90635517186E+03 -0.26423410039E+02  0.91613579428E+03  0.00000000000E+00 0.  1.
        -13    1    3    3    0    0  0.15823347431E+03  0.79203977898E+03  0.49366870541E+02  0.80919832661E+03  0.00000000000E+00 0. -1.
         22    1    1    2    0    0 -0.28910325460E+03 -0.16983949508E+04 -0.52815783974E+03  0.18019647068E+04  0.00000000000E+00 0.  1.
<mgrwt>
<rscale>  0 0.34909305E+04</rscale>
<asrwt>0</asrwt>
<pdfrwt beam="1">  1        2 0.31019332E+00 0.34909305E+04</pdfrwt>
<pdfrwt beam="2">  1       -2 0.23246803E+00 0.34909305E+04</pdfrwt>
<totfact> 0.44401471E-01</totfact>
</mgrwt>
</event>
<event>
 6    1  0.5040916E-004  0.1223736E+04  0.7818608E-02  0.9092331E-01
         -2   -1    0    0    0  501 -0.00000000000E+00  0.00000000000E+00  0.23716666073E+03  0.23716666073E+03  0.00000000000E+00 0. -1.
          2   -1    0    0  501    0  0.00000000000E+00 -0.00000000000E+00 -0.15785621391E+04  0.15785621391E+04  0.00000000000E+00 0.  1.
         23    2    1    2    0    0  0.51440239768E+03 -0.30359825791E+02 -0.19422496993E+03  0.55813915246E+03  0.90908903860E+02 0.  0.
         11    1    3    3    0    0  0.16036083039E+03  0.67426519193E+01 -0.19789340370E+02  0.16171789410E+03  0.00000000000E+00 0. -1.
        -11    1    3    3    0    0  0.35404156729E+03 -0.37102477710E+02 -0.17443562956E+03  0.39642125836E+03  0.00000000000E+00 0.  1.
         22    1    1    2    0    0 -0.51440239768E+03  0.30359825791E+02 -0.11471705084E+04  0.12575896473E+04  0.00000000000E+00 0.  1.
<mgrwt>
<rscale>  0 0.12237358E+04</rscale>
<asrwt>0</asrwt>
<pdfrwt beam="1">  1        2 0.24285572E+00 0.12237358E+04</pdfrwt>
<pdfrwt beam="2">  1       -2 0.36487177E-01 0.12237358E+04</pdfrwt>
<totfact> 0.79843623E+01</totfact>
</mgrwt>
</event>
<event>
 6    1  0.5040916E-004  0.1742393E+04  0.7818608E-02  0.8737548E-01
          2   -1    0    0  501    0  0.00000000000E+00  0.00000000000E+00  0.86381971501E+03  0.86381971501E+03  0.00000000000E+00 0.  1.
         -2   -1    0    0    0  501 -0.00000000000E+00 -0.00000000000E+00 -0.87863667416E+03  0.87863667416E+03  0.00000000000E+00 0. -1.
         23    2    1    2    0    0 -0.82177095576E+03 -0.47987531415E-02 -0.28947101799E+03  0.87600249207E+03  0.90991165002E+02 0.  0.
         13    1    3    3    0    0 -0.50196774995E+03 -0.34896465245E+02 -0.20548206933E+03  0.54351841375E+03  0.00000000000E+00 0.  1.
        -13    1    3    3    0    0 -0.31980320581E+03  0.34891666492E+02 -0.83988948661E+02  0.33248407832E+03  0.00000000000E+00 0. -1.
         22    1    1    2    0    0  0.82177095576E+03  0.47987531415E-02  0.27465405884E+03  0.86645389709E+03  0.00000000000E+00 0.  1.
<mgrwt>
<rscale>  0 0.17423934E+04</rscale>
<asrwt>0</asrwt>
<pdfrwt beam="1">  1        2 0.13289534E+00 0.17423934E+04</pdfrwt>
<pdfrwt beam="2">  1       -2 0.13517487E+00 0.17423934E+04</pdfrwt>
<totfact> 0.11574665E+01</totfact>
</mgrwt>
</event>
<event>
 6    1  0.5040916E-004  0.7219848E+03  0.7818608E-02  0.9680357E-01
          2   -1    0    0  501    0  0.00000000000E+00  0.00000000000E+00  0.16464673236E+03  0.16464673236E+03  0.00000000000E+00 0.  1.
         -2   -1    0    0    0  501 -0.00000000000E+00 -0.00000000000E+00 -0.79148552443E+03  0.79148552443E+03  0.00000000000E+00 0. -1.
         23    2    1    2    0    0 -0.11242800090E+03 -0.22443849391E+00 -0.76473004032E+03  0.77821625947E+03  0.90379235286E+02 0.  0.
         11    1    3    3    0    0 -0.95117784146E+02 -0.29855791706E+02 -0.41499504358E+03  0.42680164872E+03  0.00000000000E+00 0. -1.
        -11    1    3    3    0    0 -0.17310216757E+02  0.29631353212E+02 -0.34973499674E+03  0.35141461074E+03  0.00000000000E+00 0.  1.
         22    1    1    2    0    0  0.11242800090E+03  0.22443849391E+00  0.13789124825E+03  0.17791599732E+03  0.00000000000E+00 0.  1.
<mgrwt>
<rscale>  0 0.72198478E+03</rscale>
<asrwt>0</asrwt>
<pdfrwt beam="1">  1        2 0.25330266E-01 0.72198478E+03</pdfrwt>
<pdfrwt beam="2">  1       -2 0.12176701E+00 0.72198478E+03</pdfrwt>
<totfact> 0.11166792E+02</totfact>
</mgrwt>
</event>
<event>
 6    1  0.5040916E-004  0.1443715E+04  0.7818608E-02  0.8922769E-01
         -2   -1    0    0    0  501 -0.00000000000E+00  0.00000000000E+00  0.15511823816E+03  0.15511823816E+03  0.00000000000E+00 0. -1.
          2   -1    0    0  501    0  0.00000000000E+00 -0.00000000000E+00 -0.33592333910E+04  0.33592333910E+04  0.00000000000E+00 0.  1.
         23    2    1    2    0    0 -0.53811460617E+03  0.47760918879E+03 -0.15938449934E+04  0.17506487480E+04  0.82166351443E+02 0.  0.
         13    1    3    3    0    0 -0.31744964385E+03  0.30897457776E+03 -0.10611455293E+04  0.11498997350E+04  0.00000000000E+00 0.  1.
        -13    1    3    3    0    0 -0.22066496232E+03  0.16863461103E+03 -0.53269946411E+03  0.60074901306E+03  0.00000000000E+00 0. -1.
         22    1    1    2    0    0  0.53811460617E+03 -0.47760918879E+03 -0.16102701594E+04  0.17637028811E+04  0.00000000000E+00 0. -1.
<mgrwt>
<rscale>  0 0.14437152E+04</rscale>
<asrwt>0</asrwt>
<pdfrwt beam="1">  1        2 0.51680509E+00 0.14437152E+04</pdfrwt>
<pdfrwt beam="2">  1       -2 0.23864346E-01 0.14437152E+04</pdfrwt>
<totfact> 0.15595275E+01</totfact>
</mgrwt>
</event>
<event>
 6    1  0.5040916E-004  0.2188597E+04  0.7818608E-02  0.8523189E-01
         -2   -1    0    0    0  501 -0.00000000000E+00  0.00000000000E+00  0.14140025077E+04  0.14140025077E+04  0.00000000000E+00 0. -1.
          2   -1    0    0  501    0  0.00000000000E+00 -0.00000000000E+00 -0.84687928998E+03  0.84687928998E+03  0.00000000000E+00 0.  1.
         23    2    1    2    0    0  0.47215666225E+03  0.95006183117E+03  0.15379276868E+02  0.10650679439E+04  0.92648832264E+02 0.  0.
         13    1    3    3    0    0  0.27210964523E+03  0.64034890981E+03 -0.53095824615E+01  0.69578630124E+03  0.00000000000E+00 0.  1.
        -13    1    3    3    0    0  0.20004701702E+03  0.30971292136E+03  0.20688859329E+02  0.36928164262E+03  0.00000000000E+00 0. -1.
         22    1    1    2    0    0 -0.47215666225E+03 -0.95006183117E+03  0.55174394088E+03  0.11958138538E+04  0.00000000000E+00 0. -1.
<mgrwt>
<rscale>  0 0.21885972E+04</rscale>
<asrwt>0</asrwt>
<pdfrwt beam="1">  1        2 0.13028912E+00 0.21885972E+04</pdfrwt>
<pdfrwt beam="2">  1       -2 0.21753885E+00 0.21885972E+04</pdfrwt>
<totfact> 0.29890269E+00</totfact>
</mgrwt>
</event>
<event>
 6    1  0.5040916E-004  0.2012222E+04  0.7818608E-02  0.8600928E-01
          2   -1    0    0  501    0  0.00000000000E+00  0.00000000000E+00  0.33870133207E+04  0.33870133207E+04  0.00000000000E+00 0.  1.
         -2   -1    0    0    0  501 -0.00000000000E+00 -0.00000000000E+00 -0.29886479462E+03  0.29886479462E+03  0.00000000000E+00 0. -1.
         23    2    1    2    0    0 -0.31183301545E+03  0.60873208895E+03  0.20061453660E+03  0.71844705023E+03  0.90140923205E+02 0.  0.
         11    1    3    3    0    0 -0.11511493718E+03  0.30555831478E+03  0.68341621896E+02  0.33359842592E+03  0.00000000000E+00 0. -1.
        -11    1    3    3    0    0 -0.19671807827E+03  0.30317377417E+03  0.13227291471E+03  0.38484862430E+03  0.00000000000E+00 0.  1.
         22    1    1    2    0    0  0.31183301545E+03 -0.60873208895E+03  0.28875339894E+04  0.29674310650E+04  0.00000000000E+00 0.  1.
<mgrwt>
<rscale>  0 0.20122217E+04</rscale>
<asrwt>0</asrwt>
<pdfrwt beam="1">  1        2 0.52107894E+00 0.20122217E+04</pdfrwt>
<pdfrwt beam="2">  1       -2 0.45979202E-01 0.20122217E+04</pdfrwt>
<totfact> 0.40696013E+00</totfact>
</mgrwt>
</event>
<event>
 6    1  0.5040916E-004  0.1263945E+04  0.7818608E-02  0.9058656E-01
          2   -1    0    0  501    0  0.00000000000E+00  0.00000000000E+00  0.30416148955E+04  0.30416148955E+04  0.00000000000E+00 0.  1.
         -2   -1    0    0    0  501 -0.00000000000E+00 -0.00000000000E+00 -0.13130833146E+03  0.13130833146E+03  0.00000000000E+00 0. -1.
         23    2    1    2    0    0  0.77399343717E+02  0.55405933268E+03  0.74283834496E+03  0.93442129861E+03  0.91443720501E+02 0.  0.
         11    1    3    3    0    0  0.31425883797E+02  0.46828594384E+03  0.62461614586E+03  0.78129676886E+03  0.00000000000E+00 0. -1.
        -11    1    3    3    0    0  0.45973459920E+02  0.85773388841E+02  0.11822219910E+03  0.15312452975E+03  0.00000000000E+00 0.  1.
         22    1    1    2    0    0 -0.77399343717E+02 -0.55405933268E+03  0.21674682191E+04  0.22385019284E+04  0.00000000000E+00 0.  1.
<mgrwt>
<rscale>  0 0.12639452E+04</rscale>
<asrwt>0</asrwt>
<pdfrwt beam="1">  1        2 0.46794070E+00 0.12639452E+04</pdfrwt>
<pdfrwt beam="2">  1       -2 0.20201284E-01 0.12639452E+04</pdfrwt>
<totfact> 0.34272137E+01</totfact>
</mgrwt>
</event>
<event>
 6    1  0.5040916E-004  0.3227113E+04  0.7818608E-02  0.8181693E-01
          2   -1    0    0  501    0  0.00000000000E+00  0.00000000000E+00  0.30274904688E+04  0.30274904688E+04  0.00000000000E+00 0.  1.
         -2   -1    0    0    0  501 -0.00000000000E+00 -0.00000000000E+00 -0.85997435126E+03  0.85997435126E+03  0.00000000000E+00 0. -1.
         23    2    1    2    0    0 -0.19630296951E+03  0.14071975183E+04  0.20026058680E+04  0.24571029422E+04  0.90470407463E+02 0.  0.
         11    1    3    3    0    0 -0.19530958309E+02  0.33862835555E+03  0.52536870356E+03  0.62535021883E+03  0.00000000000E+00 0.  1.
        -11    1    3    3    0    0 -0.17677201120E+03  0.10685691627E+04  0.14772371644E+04  0.18317527233E+04  0.00000000000E+00 0. -1.
         22    1    1    2    0    0  0.19630296951E+03 -0.14071975183E+04  0.16491024955E+03  0.14303618779E+04  0.00000000000E+00 0. -1.
<mgrwt>
<rscale>  0 0.32271127E+04</rscale>
<asrwt>0</asrwt>
<pdfrwt beam="1">  1        2 0.46576776E+00 0.32271127E+04</pdfrwt>
<pdfrwt beam="2">  1       -2 0.13230375E+00 0.32271127E+04</pdfrwt>
<totfact> 0.58345329E-01</totfact>
</mgrwt>
</event>
<event>
 6    1  0.5040916E-004  0.1045564E+04  0.7818608E-02  0.9259936E-01
         -2   -1    0    0    0  501 -0.00000000000E+00  0.00000000000E+00  0.32796147359E+03  0.32796147359E+03  0.00000000000E+00 0. -1.
          2   -1    0    0  501    0  0.00000000000E+00 -0.00000000000E+00 -0.83333209301E+03  0.83333209301E+03  0.00000000000E+00 0.  1.
         23    2    1    2    0    0  0.17743598826E+02  0.23060710354E+03  0.26127596118E+03  0.36051803560E+03  0.90629214941E+02 0.  0.
         11    1    3    3    0    0  0.18090461572E+02  0.11313632103E+03  0.19355719388E+03  0.22492549708E+03  0.00000000000E+00 0. -1.
        -11    1    3    3    0    0 -0.34686274578E+00  0.11747078251E+03  0.67718767299E+02  0.13559253851E+03  0.00000000000E+00 0.  1.
         22    1    1    2    0    0 -0.17743598826E+02 -0.23060710354E+03 -0.76664658060E+03  0.80077553100E+03  0.00000000000E+00 0.  1.
<mgrwt>
<rscale>  0 0.10455636E+04</rscale>
<asrwt>0</asrwt>
<pdfrwt beam="1">  1        2 0.12820494E+00 0.10455636E+04</pdfrwt>
<pdfrwt beam="2">  1       -2 0.50455611E-01 0.10455636E+04</pdfrwt>
<totfact> 0.12063066E+02</totfact>
</mgrwt>
</event>
<event>
 6    1  0.5040916E-004  0.1803620E+04  0.7818608E-02  0.8704377E-01
          2   -1    0    0  501    0  0.00000000000E+00  0.00000000000E+00  0.29652469793E+04  0.29652469793E+04  0.00000000000E+00 0.  1.
         -2   -1    0    0    0  501 -0.00000000000E+00 -0.00000000000E+00 -0.27426436769E+03  0.27426436769E+03  0.00000000000E+00 0. -1.
         23    2    1    2    0    0 -0.36025068662E+03 -0.55916230727E+03  0.26087351333E+03  0.72001273167E+03  0.88996071440E+02 0.  0.
         11    1    3    3    0    0 -0.30750493360E+02 -0.58992864609E+02 -0.47384047532E+00  0.66528004941E+02  0.00000000000E+00 0.  1.
        -11    1    3    3    0    0 -0.32950019326E+03 -0.50016944266E+03  0.26134735380E+03  0.65348472673E+03  0.00000000000E+00 0. -1.
         22    1    1    2    0    0  0.36025068662E+03  0.55916230727E+03  0.24301090983E+04  0.25194986153E+04  0.00000000000E+00 0.  1.
<mgrwt>
<rscale>  0 0.18036203E+04</rscale>
<asrwt>0</asrwt>
<pdfrwt beam="1">  1        2 0.45619182E+00 0.18036203E+04</pdfrwt>
<pdfrwt beam="2">  1       -2 0.42194520E-01 0.18036203E+04</pdfrwt>
<totfact> 0.92301994E+00</totfact>
</mgrwt>
</event>
<event>
 6    1  0.5040916E-004  0.2497884E+04  0.7818608E-02  0.8403740E-01
         -2   -1    0    0    0  501 -0.00000000000E+00  0.00000000000E+00  0.68383811927E+03  0.68383811927E+03  0.00000000000E+00 0. -1.
          2   -1    0    0  501    0  0.00000000000E+00 -0.00000000000E+00 -0.22810308326E+04  0.22810308326E+04  0.00000000000E+00 0.  1.
         23    2    1    2    0    0 -0.46562020454E+03  0.68388892157E+03 -0.19075189702E+04  0.20812351943E+04  0.91679225273E+02 0.  0.
         13    1    3    3    0    0 -0.24976533097E+03  0.41313423196E+03 -0.12019270691E+04  0.12952572307E+04  0.00000000000E+00 0. -1.
        -13    1    3    3    0    0 -0.21585487357E+03  0.27075468961E+03 -0.70559190105E+03  0.78597796357E+03  0.00000000000E+00 0.  1.
         22    1    1    2    0    0  0.46562020454E+03 -0.68388892157E+03  0.31032625684E+03  0.88363375762E+03  0.00000000000E+00 0. -1.
<mgrwt>
<rscale>  0 0.24978838E+04</rscale>
<asrwt>0</asrwt>
<pdfrwt beam="1">  1        2 0.35092782E+00 0.24978838E+04</pdfrwt>
<pdfrwt beam="2">  1       -2 0.10520587E+00 0.24978838E+04</pdfrwt>
<totfact> 0.30325818E+00</totfact>
</mgrwt>
</event>
<event>
 6    1  0.5040916E-004  0.1134379E+04  0.7818608E-02  0.9172316E-01
          2   -1    0    0  501    0  0.00000000000E+00  0.00000000000E+00  0.56252817336E+03  0.56252817336E+03  0.00000000000E+00 0.  1.
         -2   -1    0    0    0  501 -0.00000000000E+00 -0.00000000000E+00 -0.57188994555E+03  0.57188994555E+03  0.00000000000E+00 0. -1.
         23    2    1    2    0    0 -0.11817549004E+03  0.49131065435E+03  0.24472656059E+03  0.56881005110E+03  0.91116295151E+02 0.  0.
         13    1    3    3    0    0 -0.32757502412E+02  0.30654092814E+02  0.18257030534E+02  0.48436004526E+02  0.00000000000E+00 0.  1.
        -13    1    3    3    0    0 -0.85417987632E+02  0.46065656154E+03  0.22646953005E+03  0.52037404657E+03  0.00000000000E+00 0. -1.
         22    1    1    2    0    0  0.11817549004E+03 -0.49131065435E+03 -0.25408833278E+03  0.56560806782E+03  0.00000000000E+00 0. -1.
<mgrwt>
<rscale>  0 0.11343795E+04</rscale>
<asrwt>0</asrwt>
<pdfrwt beam="1">  1        2 0.86542796E-01 0.11343795E+04</pdfrwt>
<pdfrwt beam="2">  1       -2 0.87983068E-01 0.11343795E+04</pdfrwt>
<totfact> 0.59157842E+01</totfact>
</mgrwt>
</event>
<event>
 6    1  0.5040916E-004  0.2750999E+04  0.7818608E-02  0.8318645E-01
          2   -1    0    0  501    0  0.00000000000E+00  0.00000000000E+00  0.32991118503E+04  0.32991118503E+04  0.00000000000E+00 0.  1.
         -2   -1    0    0    0  501 -0.00000000000E+00 -0.00000000000E+00 -0.57348741923E+03  0.57348741923E+03  0.00000000000E+00 0. -1.
         23    2    1    2    0    0  0.44307956703E+03 -0.74997076717E+03 -0.13164071285E+03  0.88550373088E+03  0.89509361448E+02 0.  0.
         13    1    3    3    0    0  0.35777231999E+03 -0.63486801264E+03 -0.13970519314E+03  0.74200806425E+03  0.00000000000E+00 0. -1.
        -13    1    3    3    0    0  0.85307247042E+02 -0.11510275453E+03  0.80644802845E+01  0.14349566663E+03  0.00000000000E+00 0.  1.
         22    1    1    2    0    0 -0.44307956703E+03  0.74997076717E+03  0.28572651439E+04  0.29870955387E+04  0.00000000000E+00 0.  1.
<mgrwt>
<rscale>  0 0.27509992E+04</rscale>
<asrwt>0</asrwt>
<pdfrwt beam="1">  1        2 0.50755566E+00 0.27509992E+04</pdfrwt>
<pdfrwt beam="2">  1       -2 0.88228836E-01 0.27509992E+04</pdfrwt>
<totfact> 0.10778436E+00</totfact>
</mgrwt>
</event>
<event>
 6    1  0.5040916E-004  0.2668870E+04  0.7818608E-02  0.8345177E-01
          1   -1    0    0  501    0  0.00000000000E+00  0.00000000000E+00  0.21064320753E+04  0.21064320753E+04  0.00000000000E+00 0.  1.
         -1   -1    0    0    0  501 -0.00000000000E+00 -0.00000000000E+00 -0.84537091381E+03  0.84537091381E+03  0.00000000000E+00 0. -1.
         23    2    1    2    0    0 -0.60902696162E+03  0.11323232694E+04  0.10197617419E+04  0.16436381539E+04  0.92534016702E+02 0.  0.
         13    1    3    3    0    0 -0.15051749718E+03  0.21346684458E+03  0.23253206386E+03  0.34970669341E+03  0.00000000000E+00 0. -1.
        -13    1    3    3    0    0 -0.45850946443E+03  0.91885642478E+03  0.78722967807E+03  0.12939314605E+04  0.00000000000E+00 0.  1.
         22    1    1    2    0    0  0.60902696162E+03 -0.11323232694E+04  0.24129941956E+03  0.13081648352E+04  0.00000000000E+00 0. -1.
<mgrwt>
<rscale>  0 0.26688697E+04</rscale>
<asrwt>0</asrwt>
<pdfrwt beam="1">  1        1 0.32406647E+00 0.26688697E+04</pdfrwt>
<pdfrwt beam="2">  1       -1 0.13005706E+00 0.26688697E+04</pdfrwt>
<totfact> 0.11187010E+00</totfact>
</mgrwt>
</event>
<event>
 6    1  0.5040916E-004  0.4466571E+04  0.7818608E-02  0.7916515E-01
         -2   -1    0    0    0  501 -0.00000000000E+00  0.00000000000E+00  0.12716171748E+04  0.12716171748E+04  0.00000000000E+00 0. -1.
          2   -1    0    0  501    0  0.00000000000E+00 -0.00000000000E+00 -0.39222219410E+04  0.39222219410E+04  0.00000000000E+00 0.  1.
         23    2    1    2    0    0 -0.45773981059E+03 -0.21413403864E+04 -0.82114160889E+03  0.23404551899E+04  0.92696113322E+02 0.  0.
         13    1    3    3    0    0 -0.42572331333E+03 -0.19761047743E+04 -0.73121717480E+03  0.21496299624E+04  0.00000000000E+00 0. -1.
        -13    1    3    3    0    0 -0.32016497264E+02 -0.16523561215E+03 -0.89924434091E+02  0.19082522754E+03  0.00000000000E+00 0.  1.
         22    1    1    2    0    0  0.45773981059E+03  0.21413403864E+04 -0.18294631573E+04  0.28533839259E+04  0.00000000000E+00 0. -1.
<mgrwt>
<rscale>  0 0.44665713E+04</rscale>
<asrwt>0</asrwt>
<pdfrwt beam="1">  1        2 0.60341875E+00 0.44665713E+04</pdfrwt>
<pdfrwt beam="2">  1       -2 0.19563341E+00 0.44665713E+04</pdfrwt>
<totfact> 0.42477588E-02</totfact>
</mgrwt>
</event>
<event>
 6    1  0.5040916E-004  0.3817230E+04  0.7818608E-02  0.8042467E-01
          2   -1    0    0  501    0  0.00000000000E+00  0.00000000000E+00  0.23787902357E+04  0.23787902357E+04  0.00000000000E+00 0.  1.
         -2   -1    0    0    0  501 -0.00000000000E+00 -0.00000000000E+00 -0.15313714824E+04  0.15313714824E+04  0.00000000000E+00 0. -1.
         23    2    1    2    0    0  0.58836716701E+03 -0.17425525334E+04 -0.94292876867E+02  0.18438882490E+04  0.91473893754E+02 0.  0.
         11    1    3    3    0    0  0.24148730181E+03 -0.82766850919E+03 -0.72300568473E+02  0.86520439795E+03  0.00000000000E+00 0. -1.
        -11    1    3    3    0    0  0.34687986520E+03 -0.91488402424E+03 -0.21992308394E+02  0.97868385106E+03  0.00000000000E+00 0.  1.
         22    1    1    2    0    0 -0.58836716701E+03  0.17425525334E+04  0.94171163011E+03  0.20662734691E+04  0.00000000000E+00 0. -1.
<mgrwt>
<rscale>  0 0.38172302E+04</rscale>
<asrwt>0</asrwt>
<pdfrwt beam="1">  1        2 0.36596773E+00 0.38172302E+04</pdfrwt>
<pdfrwt beam="2">  1       -2 0.23559561E+00 0.38172302E+04</pdfrwt>
<totfact> 0.25824886E-01</totfact>
</mgrwt>
</event>
<event>
 6    1  0.5040916E-004  0.1539295E+04  0.7818608E-02  0.8858735E-01
          2   -1    0    0  501    0  0.00000000000E+00  0.00000000000E+00  0.20149800490E+04  0.20149800490E+04  0.00000000000E+00 0.  1.
         -2   -1    0    0    0  501 -0.00000000000E+00 -0.00000000000E+00 -0.29397666685E+03  0.29397666685E+03  0.00000000000E+00 0. -1.
         23    2    1    2    0    0  0.52322878210E+02  0.72145101803E+03  0.48215313473E+03  0.87439086148E+03  0.94119489525E+02 0.  0.
         11    1    3    3    0    0  0.48437346127E+02  0.19641877357E+03  0.16440333464E+03  0.26068173613E+03  0.00000000000E+00 0.  1.
        -11    1    3    3    0    0  0.38855320834E+01  0.52503224446E+03  0.31774980009E+03  0.61370912535E+03  0.00000000000E+00 0. -1.
         22    1    1    2    0    0 -0.52322878210E+02 -0.72145101803E+03  0.12388502474E+04  0.14345658544E+04  0.00000000000E+00 0.  1.
<mgrwt>
<rscale>  0 0.15392948E+04</rscale>
<asrwt>0</asrwt>
<pdfrwt beam="1">  1        2 0.30999692E+00 0.15392948E+04</pdfrwt>
<pdfrwt beam="2">  1       -2 0.45227181E-01 0.15392948E+04</pdfrwt>
<totfact> 0.29282378E+01</totfact>
</mgrwt>
</event>
<event>
 6    1  0.5040916E-004  0.3842448E+04  0.7818608E-02  0.8037107E-01
          2   -1    0    0  501    0  0.00000000000E+00  0.00000000000E+00  0.22268191509E+04  0.22268191509E+04  0.00000000000E+00 0.  1.
         -2   -1    0    0    0  501 -0.00000000000E+00 -0.00000000000E+00 -0.16575664906E+04  0.16575664906E+04  0.00000000000E+00 0. -1.
         23    2    1    2    0    0  0.37130900612E+02 -0.13206923824E+04 -0.11237182836E+04  0.17368853064E+04  0.91764449227E+02 0.  0.
         13    1    3    3    0    0  0.68494717492E+01 -0.11735345748E+04 -0.10124034874E+04  0.15499003629E+04  0.00000000000E+00 0.  1.
        -13    1    3    3    0    0  0.30281428862E+02 -0.14715780757E+03 -0.11131479615E+03  0.18698494353E+03  0.00000000000E+00 0. -1.
         22    1    1    2    0    0 -0.37130900612E+02  0.13206923824E+04  0.16929709438E+04  0.21475003351E+04  0.00000000000E+00 0.  1.
<mgrwt>
<rscale>  0 0.38424476E+04</rscale>
<asrwt>0</asrwt>
<pdfrwt beam="1">  1        2 0.34258756E+00 0.38424476E+04</pdfrwt>
<pdfrwt beam="2">  1       -2 0.25501023E+00 0.38424476E+04</pdfrwt>
<totfact> 0.23856704E-01</totfact>
</mgrwt>
</event>
<event>
 6    1  0.5040916E-004  0.2066921E+04  0.7818608E-02  0.8575956E-01
         -2   -1    0    0    0  501 -0.00000000000E+00  0.00000000000E+00  0.13517398240E+04  0.13517398240E+04  0.00000000000E+00 0. -1.
          2   -1    0    0  501    0  0.00000000000E+00 -0.00000000000E+00 -0.79012300693E+03  0.79012300693E+03  0.00000000000E+00 0.  1.
         23    2    1    2    0    0  0.43974049182E+03  0.52146041460E+03  0.10831023936E+04  0.12832360956E+04  0.91057222474E+02 0.  0.
         11    1    3    3    0    0  0.16350182611E+03  0.15105007861E+03  0.29342247300E+03  0.36830112822E+03  0.00000000000E+00 0.  1.
        -11    1    3    3    0    0  0.27623866572E+03  0.37041033599E+03  0.78967992063E+03  0.91493496736E+03  0.00000000000E+00 0. -1.
         22    1    1    2    0    0 -0.43974049182E+03 -0.52146041460E+03 -0.52148557655E+03  0.85862673537E+03  0.00000000000E+00 0.  1.
<mgrwt>
<rscale>  0 0.20669211E+04</rscale>
<asrwt>0</asrwt>
<pdfrwt beam="1">  1        2 0.12155739E+00 0.20669211E+04</pdfrwt>
<pdfrwt beam="2">  1       -2 0.20795997E+00 0.20669211E+04</pdfrwt>
<totfact> 0.38175444E+00</totfact>
</mgrwt>
</event>
<event>
 6    1  0.5040916E-004  0.5189325E+04  0.7818608E-02  0.7799948E-01
         -2   -1    0    0    0  501 -0.00000000000E+00  0.00000000000E+00  0.30095926072E+04  0.30095926072E+04  0.00000000000E+00 0. -1.
          2   -1    0    0  501    0  0.00000000000E+00 -0.00000000000E+00 -0.22369387819E+04  0.22369387819E+04  0.00000000000E+00 0.  1.
         23    2    1    2    0    0  0.13103527270E+04 -0.56447818215E+03 -0.18036605977E+04  0.23015261439E+04  0.90394424451E+02 0.  0.
         13    1    3    3    0    0  0.87273984574E+03 -0.34148218646E+03 -0.12296066779E+04  0.15460328277E+04  0.00000000000E+00 0.  1.
        -13    1    3    3    0    0  0.43761288129E+03 -0.22299599569E+03 -0.57405391981E+03  0.75549331619E+03  0.00000000000E+00 0. -1.
         22    1    1    2    0    0 -0.13103527270E+04  0.56447818215E+03  0.25763144230E+04  0.29450052451E+04  0.00000000000E+00 0. -1.
<mgrwt>
<rscale>  0 0.51893254E+04</rscale>
<asrwt>0</asrwt>
<pdfrwt beam="1">  1        2 0.34414443E+00 0.51893254E+04</pdfrwt>
<pdfrwt beam="2">  1       -2 0.46301425E+00 0.51893254E+04</pdfrwt>
<totfact> 0.10098787E-02</totfact>
</mgrwt>
</event>
<event>
 6    1  0.5040916E-004  0.2561753E+04  0.7818608E-02  0.8381310E-01
          2   -1    0    0  501    0  0.00000000000E+00  0.00000000000E+00  0.15383680414E+04  0.15383680414E+04  0.00000000000E+00 0.  1.
         -2   -1    0    0    0  501 -0.00000000000E+00 -0.00000000000E+00 -0.10664838811E+04  0.10664838811E+04  0.00000000000E+00 0. -1.
         23    2    1    2    0    0  0.30438633579E+03  0.11587744606E+04 -0.21973935497E+03  0.12214675295E+04  0.91039823386E+02 0.  0.
         11    1    3    3    0    0  0.18934492121E+03  0.87354264516E+03 -0.15493333287E+03  0.90715632045E+03  0.00000000000E+00 0. -1.
        -11    1    3    3    0    0  0.11504141457E+03  0.28523181547E+03 -0.64806022094E+02  0.31431120903E+03  0.00000000000E+00 0.  1.
         22    1    1    2    0    0 -0.30438633579E+03 -0.11587744606E+04  0.69162351520E+03  0.13833843930E+04  0.00000000000E+00 0.  1.
<mgrwt>
<rscale>  0 0.25617531E+04</rscale>
<asrwt>0</asrwt>
<pdfrwt beam="1">  1        2 0.23667201E+00 0.25617531E+04</pdfrwt>
<pdfrwt beam="2">  1       -2 0.16407444E+00 0.25617531E+04</pdfrwt>
<totfact> 0.25201645E+00</totfact>
</mgrwt>
</event>
<event>
 6    1  0.5040916E-004  0.3076125E+04  0.7818608E-02  0.8222321E-01
         -2   -1    0    0    0  501 -0.00000000000E+00  0.00000000000E+00  0.16020995987E+04  0.16020995987E+04  0.00000000000E+00 0. -1.
          2   -1    0    0  501    0  0.00000000000E+00 -0.00000000000E+00 -0.14765854747E+04  0.14765854747E+04  0.00000000000E+00 0.  1.
         23    2    1    2    0    0  0.46650768415E+03 -0.14417874969E+04  0.31806520272E+03  0.15511195188E+04  0.91791517265E+02 0.  0.
         13    1    3    3    0    0  0.36075482331E+03 -0.12091716141E+04  0.24563335130E+03  0.12855254872E+04  0.00000000000E+00 0.  1.
        -13    1    3    3    0    0  0.10575286084E+03 -0.23261588283E+03  0.72431851421E+02  0.26559403160E+03  0.00000000000E+00 0. -1.
         22    1    1    2    0    0 -0.46650768415E+03  0.14417874969E+04 -0.19255107875E+03  0.15275655546E+04  0.00000000000E+00 0.  1.
<mgrwt>
<rscale>  0 0.30761255E+04</rscale>
<asrwt>0</asrwt>
<pdfrwt beam="1">  1        2 0.22716700E+00 0.30761255E+04</pdfrwt>
<pdfrwt beam="2">  1       -2 0.24647686E+00 0.30761255E+04</pdfrwt>
<totfact> 0.75212216E-01</totfact>
</mgrwt>
</event>
<event>
 6    1  0.5040916E-004  0.1306361E+04  0.7818608E-02  0.9024536E-01
          2   -1    0    0  501    0  0.00000000000E+00  0.00000000000E+00  0.53566280285E+03  0.53566280285E+03  0.00000000000E+00 0.  1.
         -2   -1    0    0    0  501 -0.00000000000E+00 -0.00000000000E+00 -0.79647956926E+03  0.79647956926E+03  0.00000000000E+00 0. -1.
         23    2    1    2    0    0  0.13635330824E+03 -0.62608801688E+03 -0.21470508376E+02  0.64813574876E+03  0.95081736170E+02 0.  0.
         13    1    3    3    0    0  0.91742418382E+02 -0.27155769734E+03  0.25352063579E+02  0.28775507196E+03  0.00000000000E+00 0.  1.
        -13    1    3    3    0    0  0.44610889856E+02 -0.35453031954E+03 -0.46822571955E+02  0.36038067680E+03  0.00000000000E+00 0. -1.
         22    1    1    2    0    0 -0.13635330824E+03  0.62608801688E+03 -0.23934625803E+03  0.68400662334E+03  0.00000000000E+00 0. -1.
<mgrwt>
<rscale>  0 0.13063606E+04</rscale>
<asrwt>0</asrwt>
<pdfrwt beam="1">  1        2 0.82409662E-01 0.13063606E+04</pdfrwt>
<pdfrwt beam="2">  1       -2 0.12253532E+00 0.13063606E+04</pdfrwt>
<totfact> 0.28039679E+01</totfact>
</mgrwt>
</event>
<event>
 6    1  0.5040916E-004  0.1630191E+04  0.7818608E-02  0.8802212E-01
          2   -1    0    0  501    0  0.00000000000E+00  0.00000000000E+00  0.65213764290E+03  0.65213764290E+03  0.00000000000E+00 0.  1.
         -2   -1    0    0    0  501 -0.00000000000E+00 -0.00000000000E+00 -0.10187737982E+04  0.10187737982E+04  0.00000000000E+00 0. -1.
         23    2    1    2    0    0  0.26091050203E+03 -0.60238762526E+03  0.30699720916E+03  0.73031213702E+03  0.90351479859E+02 0.  0.
         11    1    3    3    0    0  0.17315343469E+03 -0.48841555904E+03  0.22722558743E+03  0.56582977815E+03  0.00000000000E+00 0. -1.
        -11    1    3    3    0    0  0.87757067343E+02 -0.11397206622E+03  0.79771621729E+02  0.16448235887E+03  0.00000000000E+00 0.  1.
         22    1    1    2    0    0 -0.26091050203E+03  0.60238762526E+03 -0.67363336448E+03  0.94059930410E+03  0.00000000000E+00 0. -1.
<mgrwt>
<rscale>  0 0.16301911E+04</rscale>
<asrwt>0</asrwt>
<pdfrwt beam="1">  1        2 0.10032887E+00 0.16301911E+04</pdfrwt>
<pdfrwt beam="2">  1       -2 0.15673443E+00 0.16301911E+04</pdfrwt>
<totfact> 0.11404906E+01</totfact>
</mgrwt>
</event>
<event>
 6    1  0.5040916E-004  0.1213283E+04  0.7818608E-02  0.9101309E-01
         -2   -1    0    0    0  501 -0.00000000000E+00  0.00000000000E+00  0.20596212595E+03  0.20596212595E+03  0.00000000000E+00 0. -1.
          2   -1    0    0  501    0  0.00000000000E+00 -0.00000000000E+00 -0.17868023368E+04  0.17868023368E+04  0.00000000000E+00 0.  1.
         23    2    1    2    0    0  0.97479659806E+01  0.38866827336E+03 -0.15523229323E+04  0.16029295172E+04  0.92295729268E+02 0.  0.
         11    1    3    3    0    0 -0.21671741656E+02  0.30529494001E+03 -0.12929086251E+04  0.13286411772E+04  0.00000000000E+00 0.  1.
        -11    1    3    3    0    0  0.31419707636E+02  0.83373333349E+02 -0.25941430714E+03  0.27428834006E+03  0.00000000000E+00 0. -1.
         22    1    1    2    0    0 -0.97479659806E+01 -0.38866827336E+03 -0.28517278563E+02  0.38983494550E+03  0.00000000000E+00 0. -1.
<mgrwt>
<rscale>  0 0.12132825E+04</rscale>
<asrwt>0</asrwt>
<pdfrwt beam="1">  1        2 0.27489269E+00 0.12132825E+04</pdfrwt>
<pdfrwt beam="2">  1       -2 0.31686479E-01 0.12132825E+04</pdfrwt>
<totfact> 0.80078686E+01</totfact>
</mgrwt>
</event>
<event>
 6    1  0.5040916E-004  0.3225555E+04  0.7818608E-02  0.8182100E-01
          2   -1    0    0  501    0  0.00000000000E+00  0.00000000000E+00  0.20028225762E+04  0.20028225762E+04  0.00000000000E+00 0.  1.
         -2   -1    0    0    0  501 -0.00000000000E+00 -0.00000000000E+00 -0.12986930910E+04  0.12986930910E+04  0.00000000000E+00 0. -1.
         23    2    1    2    0    0 -0.14660962753E+03 -0.10091526830E+04 -0.92458109037E+03  0.13799065343E+04  0.96996547444E+02 0.  0.
         13    1    3    3    0    0 -0.28709374807E+02 -0.22344676599E+03 -0.26063035115E+03  0.34450089313E+03  0.00000000000E+00 0. -1.
        -13    1    3    3    0    0 -0.11790025272E+03 -0.78570591700E+03 -0.66395073923E+03  0.10354056411E+04  0.00000000000E+00 0.  1.
         22    1    1    2    0    0  0.14660962753E+03  0.10091526830E+04  0.16287105756E+04  0.19216091329E+04  0.00000000000E+00 0.  1.
<mgrwt>
<rscale>  0 0.32255554E+04</rscale>
<asrwt>0</asrwt>
<pdfrwt beam="1">  1        2 0.30812655E+00 0.32255554E+04</pdfrwt>
<pdfrwt beam="2">  1       -2 0.19979894E+00 0.32255554E+04</pdfrwt>
<totfact> 0.74631089E-01</totfact>
</mgrwt>
</event>
<event>
 6    1  0.5040916E-004  0.2151457E+04  0.7818608E-02  0.8538909E-01
          2   -1    0    0  501    0  0.00000000000E+00  0.00000000000E+00  0.70486383896E+03  0.70486383896E+03  0.00000000000E+00 0.  1.
         -2   -1    0    0    0  501 -0.00000000000E+00 -0.00000000000E+00 -0.16417242922E+04  0.16417242922E+04  0.00000000000E+00 0. -1.
         23    2    1    2    0    0  0.10567278457E+03  0.32225766944E+03 -0.15804516329E+04  0.16191086816E+04  0.93106476698E+02 0.  0.
         13    1    3    3    0    0  0.80192788520E+02  0.11766413338E+03 -0.54233016763E+03  0.56071181754E+03  0.00000000000E+00 0. -1.
        -13    1    3    3    0    0  0.25479996052E+02  0.20459353606E+03 -0.10381214653E+04  0.10583968641E+04  0.00000000000E+00 0.  1.
         22    1    1    2    0    0 -0.10567278457E+03 -0.32225766944E+03  0.64359117969E+03  0.72747944953E+03  0.00000000000E+00 0.  1.
<mgrwt>
<rscale>  0 0.21514573E+04</rscale>
<asrwt>0</asrwt>
<pdfrwt beam="1">  1        2 0.10844059E+00 0.21514573E+04</pdfrwt>
<pdfrwt beam="2">  1       -2 0.25257297E+00 0.21514573E+04</pdfrwt>
<totfact> 0.23089987E+00</totfact>
</mgrwt>
</event>
<event>
 6    1  0.5040916E-004  0.3395040E+04  0.7818608E-02  0.8139125E-01
         -2   -1    0    0    0  501 -0.00000000000E+00  0.00000000000E+00  0.14525414519E+04  0.14525414519E+04  0.00000000000E+00 0. -1.
          2   -1    0    0  501    0  0.00000000000E+00 -0.00000000000E+00 -0.19838150896E+04  0.19838150896E+04  0.00000000000E+00 0.  1.
         23    2    1    2    0    0 -0.44628548812E+03  0.15530701735E+04  0.25621070979E+03  0.16387666834E+04  0.93352096295E+02 0.  0.
         13    1    3    3    0    0 -0.12999623422E+03  0.61164358776E+03  0.11059362036E+03  0.63501011663E+03  0.00000000000E+00 0. -1.
        -13    1    3    3    0    0 -0.31628925390E+03  0.94142658576E+03  0.14561708942E+03  0.10037565667E+04  0.00000000000E+00 0.  1.
         22    1    1    2    0    0  0.44628548812E+03 -0.15530701735E+04 -0.78748434751E+03  0.17975898582E+04  0.00000000000E+00 0.  1.
<mgrwt>
<rscale>  0 0.33950397E+04</rscale>
<asrwt>0</asrwt>
<pdfrwt beam="1">  1        2 0.30520232E+00 0.33950397E+04</pdfrwt>
<pdfrwt beam="2">  1       -2 0.22346792E+00 0.33950397E+04</pdfrwt>
<totfact> 0.53126603E-01</totfact>
</mgrwt>
</event>
<event>
 6    1  0.5040916E-004  0.2534746E+04  0.7818608E-02  0.8390711E-01
          2   -1    0    0  501    0  0.00000000000E+00  0.00000000000E+00  0.30115196402E+04  0.30115196402E+04  0.00000000000E+00 0.  1.
         -2   -1    0    0    0  501 -0.00000000000E+00 -0.00000000000E+00 -0.53336345249E+03  0.53336345249E+03  0.00000000000E+00 0. -1.
         23    2    1    2    0    0  0.97218307127E+02  0.87686512113E+03  0.25100121647E+04  0.26620701775E+04  0.90070655573E+02 0.  0.
         11    1    3    3    0    0  0.73553055662E+02  0.30677207986E+03  0.84106355094E+03  0.89828005527E+03  0.00000000000E+00 0.  1.
        -11    1    3    3    0    0  0.23665251465E+02  0.57009304128E+03  0.16689486138E+04  0.17637901222E+04  0.00000000000E+00 0. -1.
         22    1    1    2    0    0 -0.97218307127E+02 -0.87686512113E+03 -0.31855977045E+02  0.88281291516E+03  0.00000000000E+00 0. -1.
<mgrwt>
<rscale>  0 0.25347462E+04</rscale>
<asrwt>0</asrwt>
<pdfrwt beam="1">  1        2 0.46331070E+00 0.25347462E+04</pdfrwt>
<pdfrwt beam="2">  1       -2 0.82055918E-01 0.25347462E+04</pdfrwt>
<totfact> 0.19880636E+00</totfact>
</mgrwt>
</event>
<event>
 6    1  0.5040916E-004  0.2089280E+04  0.7818608E-02  0.8565980E-01
          2   -1    0    0  501    0  0.00000000000E+00  0.00000000000E+00  0.26698874018E+04  0.26698874018E+04  0.00000000000E+00 0.  1.
         -2   -1    0    0    0  501 -0.00000000000E+00 -0.00000000000E+00 -0.40873375642E+03  0.40873375642E+03  0.00000000000E+00 0. -1.
         23    2    1    2    0    0  0.51121137848E+02  0.81542834144E+03  0.17838574321E+03  0.84133286990E+03  0.92101975199E+02 0.  0.
         13    1    3    3    0    0  0.60249801971E+02  0.27175220632E+03  0.66623094765E+02  0.28621309724E+03  0.00000000000E+00 0.  1.
        -13    1    3    3    0    0 -0.91286641229E+01  0.54367613512E+03  0.11176264845E+03  0.55511977266E+03  0.00000000000E+00 0. -1.
         22    1    1    2    0    0 -0.51121137848E+02 -0.81542834144E+03  0.20827679021E+04  0.22372882883E+04  0.00000000000E+00 0.  1.
<mgrwt>
<rscale>  0 0.20892804E+04</rscale>
<asrwt>0</asrwt>
<pdfrwt beam="1">  1        2 0.41075190E+00 0.20892804E+04</pdfrwt>
<pdfrwt beam="2">  1       -2 0.62882118E-01 0.20892804E+04</pdfrwt>
<totfact> 0.59870475E+00</totfact>
</mgrwt>
</event>
<event>
 6    1  0.5040916E-004  0.2132522E+04  0.7818608E-02  0.8547051E-01
          2   -1    0    0  501    0  0.00000000000E+00  0.00000000000E+00  0.19864224240E+04  0.19864224240E+04  0.00000000000E+00 0.  1.
         -2   -1    0    0    0  501 -0.00000000000E+00 -0.00000000000E+00 -0.57234163230E+03  0.57234163230E+03  0.00000000000E+00 0. -1.
         23    2    1    2    0    0 -0.96051966207E+02  0.10396696323E+04  0.45974109347E+03  0.11442312062E+04  0.88115014066E+02 0.  0.
         11    1    3    3    0    0 -0.84509679472E+02  0.44733837417E+03  0.20814303460E+03  0.50057669720E+03  0.00000000000E+00 0.  1.
        -11    1    3    3    0    0 -0.11542286735E+02  0.59233125809E+03  0.25159805887E+03  0.64365450897E+03  0.00000000000E+00 0. -1.
         22    1    1    2    0    0  0.96051966207E+02 -0.10396696323E+04  0.95433969818E+03  0.14145328501E+04  0.00000000000E+00 0. -1.
<mgrwt>
<rscale>  0 0.21325217E+04</rscale>
<asrwt>0</asrwt>
<pdfrwt beam="1">  1        2 0.30560345E+00 0.21325217E+04</pdfrwt>
<pdfrwt beam="2">  1       -2 0.88052560E-01 0.21325217E+04</pdfrwt>
<totfact> 0.69442185E+00</totfact>
</mgrwt>
</event>
<event>
 6    1  0.5040916E-004  0.2167267E+04  0.7818608E-02  0.8532177E-01
         -2   -1    0    0    0  501 -0.00000000000E+00  0.00000000000E+00  0.19545011006E+04  0.19545011006E+04  0.00000000000E+00 0. -1.
          2   -1    0    0  501    0  0.00000000000E+00 -0.00000000000E+00 -0.60079840427E+03  0.60079840427E+03  0.00000000000E+00 0.  1.
         23    2    1    2    0    0 -0.74434072813E+03 -0.53520730029E+03  0.13548922102E+04  0.16385163305E+04  0.92265324819E+02 0.  0.
         13    1    3    3    0    0 -0.18260322861E+03 -0.15670002714E+03  0.41974193093E+03  0.48382034495E+03  0.00000000000E+00 0. -1.
        -13    1    3    3    0    0 -0.56173749952E+03 -0.37850727315E+03  0.93515027928E+03  0.11546959855E+04  0.00000000000E+00 0.  1.
         22    1    1    2    0    0  0.74434072813E+03  0.53520730029E+03 -0.11895139018E+01  0.91678317435E+03  0.00000000000E+00 0.  1.
<mgrwt>
<rscale>  0 0.21672666E+04</rscale>
<asrwt>0</asrwt>
<pdfrwt beam="1">  1        2 0.92430525E-01 0.21672666E+04</pdfrwt>
<pdfrwt beam="2">  1       -2 0.30069247E+00 0.21672666E+04</pdfrwt>
<totfact> 0.14292927E+00</totfact>
</mgrwt>
</event>
<event>
 6    1  0.5040916E-004  0.7067174E+03  0.7818608E-02  0.9705813E-01
          2   -1    0    0  501    0  0.00000000000E+00  0.00000000000E+00  0.11396844193E+04  0.11396844193E+04  0.00000000000E+00 0.  1.
         -2   -1    0    0    0  501 -0.00000000000E+00 -0.00000000000E+00 -0.10955872117E+03  0.10955872117E+03  0.00000000000E+00 0. -1.
         23    2    1    2    0    0  0.15895881892E+03  0.25283441518E+03  0.83752777840E+03  0.89387416840E+03  0.91460930141E+02 0.  0.
         13    1    3    3    0    0  0.91945671141E+02  0.69319086686E+02  0.35849028101E+03  0.37652944613E+03  0.00000000000E+00 0.  1.
        -13    1    3    3    0    0  0.67013147778E+02  0.18351532849E+03  0.47903749739E+03  0.51734472228E+03  0.00000000000E+00 0. -1.
         22    1    1    2    0    0 -0.15895881892E+03 -0.25283441518E+03  0.19259791968E+03  0.35536897203E+03  0.00000000000E+00 0. -1.
<mgrwt>
<rscale>  0 0.70671739E+03</rscale>
<asrwt>0</asrwt>
<pdfrwt beam="1">  1        2 0.17533606E+00 0.70671739E+03</pdfrwt>
<pdfrwt beam="2">  1       -2 0.16855189E-01 0.70671739E+03</pdfrwt>
<totfact> 0.59652287E+02</totfact>
</mgrwt>
</event>
<event>
 6    1  0.5040916E-004  0.2176314E+04  0.7818608E-02  0.8528352E-01
         -2   -1    0    0    0  501 -0.00000000000E+00  0.00000000000E+00  0.94058691936E+03  0.94058691936E+03  0.00000000000E+00 0. -1.
          2   -1    0    0  501    0  0.00000000000E+00 -0.00000000000E+00 -0.12588793865E+04  0.12588793865E+04  0.00000000000E+00 0.  1.
         23    2    1    2    0    0 -0.18735919590E+03 -0.78516805465E+03  0.57582686014E+03  0.99487437754E+03  0.81277991441E+02 0.  0.
         11    1    3    3    0    0 -0.76701072504E+02 -0.23618900957E+03  0.13862179684E+03  0.28440166196E+03  0.00000000000E+00 0.  1.
        -11    1    3    3    0    0 -0.11065812340E+03 -0.54897904508E+03  0.43720506330E+03  0.71047271558E+03  0.00000000000E+00 0. -1.
         22    1    1    2    0    0  0.18735919590E+03  0.78516805465E+03 -0.89411932727E+03  0.12045919283E+04  0.00000000000E+00 0.  1.
<mgrwt>
<rscale>  0 0.21763138E+04</rscale>
<asrwt>0</asrwt>
<pdfrwt beam="1">  1        2 0.19367375E+00 0.21763138E+04</pdfrwt>
<pdfrwt beam="2">  1       -2 0.14470568E+00 0.21763138E+04</pdfrwt>
<totfact> 0.52730501E+00</totfact>
</mgrwt>
</event>
<event>
 6    1  0.5040916E-004  0.5894470E+04  0.7818608E-02  0.7703626E-01
         -2   -1    0    0    0  501 -0.00000000000E+00  0.00000000000E+00  0.18967035324E+04  0.18967035324E+04  0.00000000000E+00 0. -1.
          2   -1    0    0  501    0  0.00000000000E+00 -0.00000000000E+00 -0.45796269093E+04  0.45796269093E+04  0.00000000000E+00 0.  1.
         23    2    1    2    0    0  0.11868423024E+04  0.78630728717E+03  0.14926521424E+04  0.20647202234E+04  0.90473101956E+02 0.  0.
         13    1    3    3    0    0  0.78268312703E+03  0.48748431372E+03  0.10155960847E+04  0.13717394945E+04  0.00000000000E+00 0. -1.
        -13    1    3    3    0    0  0.40415917541E+03  0.29882297345E+03  0.47705605771E+03  0.69298072897E+03  0.00000000000E+00 0.  1.
         22    1    1    2    0    0 -0.11868423024E+04 -0.78630728717E+03 -0.41755755192E+04  0.44116102182E+04  0.00000000000E+00 0.  1.
<mgrwt>
<rscale>  0 0.58944701E+04</rscale>
<asrwt>0</asrwt>
<pdfrwt beam="1">  1        2 0.70455798E+00 0.58944701E+04</pdfrwt>
<pdfrwt beam="2">  1       -2 0.29180055E+00 0.58944701E+04</pdfrwt>
<totfact> 0.24499131E-03</totfact>
</mgrwt>
</event>
<event>
 6    1  0.5040916E-004  0.1096243E+04  0.7818608E-02  0.9208862E-01
          2   -1    0    0  501    0  0.00000000000E+00  0.00000000000E+00  0.93351516239E+03  0.93351516239E+03  0.00000000000E+00 0.  1.
         -2   -1    0    0    0  501 -0.00000000000E+00 -0.00000000000E+00 -0.32183410735E+03  0.32183410735E+03  0.00000000000E+00 0. -1.
         23    2    1    2    0    0  0.21665859109E+03  0.55861210536E+02  0.87604841484E+03  0.90900908890E+03  0.93676457214E+02 0.  0.
         13    1    3    3    0    0  0.89022570944E+02  0.70960436147E+01  0.19623203854E+03  0.21559773867E+03  0.00000000000E+00 0. -1.
        -13    1    3    3    0    0  0.12763602014E+03  0.48765166921E+02  0.67981637630E+03  0.69341135023E+03  0.00000000000E+00 0.  1.
         22    1    1    2    0    0 -0.21665859109E+03 -0.55861210536E+02 -0.26436735980E+03  0.34634018083E+03  0.00000000000E+00 0. -1.
<mgrwt>
<rscale>  0 0.10962427E+04</rscale>
<asrwt>0</asrwt>
<pdfrwt beam="1">  1        2 0.14361772E+00 0.10962427E+04</pdfrwt>
<pdfrwt beam="2">  1       -2 0.49512940E-01 0.10962427E+04</pdfrwt>
<totfact> 0.10672269E+02</totfact>
</mgrwt>
</event>
<event>
 6    1  0.5040916E-004  0.1300071E+04  0.7818608E-02  0.9029509E-01
         -2   -1    0    0    0  501 -0.00000000000E+00  0.00000000000E+00  0.28007341306E+03  0.28007341306E+03  0.00000000000E+00 0. -1.
          2   -1    0    0  501    0  0.00000000000E+00 -0.00000000000E+00 -0.15086972838E+04  0.15086972838E+04  0.00000000000E+00 0.  1.
         23    2    1    2    0    0 -0.61694547567E+03 -0.99202337784E+02 -0.84643019116E+03  0.10562853165E+04  0.93977537138E+02 0.  0.
         13    1    3    3    0    0 -0.48940741871E+03 -0.75337553126E+02 -0.60141714168E+03  0.77903655030E+03  0.00000000000E+00 0. -1.
        -13    1    3    3    0    0 -0.12753805696E+03 -0.23864784658E+02 -0.24501304948E+03  0.27724876615E+03  0.00000000000E+00 0.  1.
         22    1    1    2    0    0  0.61694547567E+03  0.99202337784E+02 -0.38219367953E+03  0.73248538036E+03  0.00000000000E+00 0. -1.
<mgrwt>
<rscale>  0 0.13000708E+04</rscale>
<asrwt>0</asrwt>
<pdfrwt beam="1">  1        2 0.23210727E+00 0.13000708E+04</pdfrwt>
<pdfrwt beam="2">  1       -2 0.43088218E-01 0.13000708E+04</pdfrwt>
<totfact> 0.62801733E+01</totfact>
</mgrwt>
</event>
<event>
 6    1  0.5040916E-004  0.1993936E+04  0.7818608E-02  0.8609461E-01
         -2   -1    0    0    0  501 -0.00000000000E+00  0.00000000000E+00  0.88147008399E+03  0.88147008399E+03  0.00000000000E+00 0. -1.
          2   -1    0    0  501    0  0.00000000000E+00 -0.00000000000E+00 -0.11275999350E+04  0.11275999350E+04  0.00000000000E+00 0.  1.
         23    2    1    2    0    0  0.90601746518E+03 -0.39893426216E+03 -0.22659193613E+03  0.10189195643E+04  0.82686034830E+02 0.  0.
         13    1    3    3    0    0  0.20648030436E+03 -0.11602171102E+03 -0.81806225970E+02  0.25057416492E+03  0.00000000000E+00 0. -1.
        -13    1    3    3    0    0  0.69953716082E+03 -0.28291255115E+03 -0.14478571016E+03  0.76834539943E+03  0.00000000000E+00 0.  1.
         22    1    1    2    0    0 -0.90601746518E+03  0.39893426216E+03 -0.19537914893E+02  0.99015045465E+03  0.00000000000E+00 0. -1.
<mgrwt>
<rscale>  0 0.19939364E+04</rscale>
<asrwt>0</asrwt>
<pdfrwt beam="1">  1        2 0.17347691E+00 0.19939364E+04</pdfrwt>
<pdfrwt beam="2">  1       -2 0.13561078E+00 0.19939364E+04</pdfrwt>
<totfact> 0.75952611E+00</totfact>
</mgrwt>
</event>
<event>
 6    1  0.5040916E-004  0.2283209E+04  0.7818608E-02  0.8484571E-01
          2   -1    0    0  501    0  0.00000000000E+00  0.00000000000E+00  0.18033179182E+04  0.18033179182E+04  0.00000000000E+00 0.  1.
         -2   -1    0    0    0  501 -0.00000000000E+00 -0.00000000000E+00 -0.72270169919E+03  0.72270169919E+03  0.00000000000E+00 0. -1.
         23    2    1    2    0    0  0.10566509482E+04 -0.10261559023E+03  0.10001459647E+04  0.14613522292E+04  0.90648780991E+02 0.  0.
         11    1    3    3    0    0  0.45473222678E+03 -0.27509668723E+01  0.40296630413E+03  0.60759427923E+03  0.00000000000E+00 0. -1.
        -11    1    3    3    0    0  0.60191872139E+03 -0.99864623360E+02  0.59717966057E+03  0.85375794998E+03  0.00000000000E+00 0.  1.
         22    1    1    2    0    0 -0.10566509482E+04  0.10261559023E+03  0.80470254320E+02  0.10646673882E+04  0.00000000000E+00 0. -1.
<mgrwt>
<rscale>  0 0.22832091E+04</rscale>
<asrwt>0</asrwt>
<pdfrwt beam="1">  1        2 0.27743352E+00 0.22832091E+04</pdfrwt>
<pdfrwt beam="2">  1       -2 0.11118488E+00 0.22832091E+04</pdfrwt>
<totfact> 0.49938212E+00</totfact>
</mgrwt>
</event>
<event>
 6    1  0.5040916E-004  0.6425570E+04  0.7818608E-02  0.7639765E-01
         -2   -1    0    0    0  501 -0.00000000000E+00  0.00000000000E+00  0.33392942193E+04  0.33392942193E+04  0.00000000000E+00 0. -1.
          2   -1    0    0  501    0  0.00000000000E+00 -0.00000000000E+00 -0.30910683802E+04  0.30910683802E+04  0.00000000000E+00 0.  1.
         23    2    1    2    0    0 -0.26912824923E+03 -0.29309071758E+04 -0.11631827318E+04  0.31662055810E+04  0.96004303120E+02 0.  0.
         11    1    3    3    0    0 -0.20788315826E+03 -0.23310762129E+04 -0.88339626163E+03  0.25015036823E+04  0.00000000000E+00 0.  1.
        -11    1    3    3    0    0 -0.61245090971E+02 -0.59983096293E+03 -0.27978647017E+03  0.66470189871E+03  0.00000000000E+00 0. -1.
         22    1    1    2    0    0  0.26912824923E+03  0.29309071758E+04  0.14114085708E+04  0.32641570185E+04  0.00000000000E+00 0.  1.
<mgrwt>
<rscale>  0 0.64255698E+04</rscale>
<asrwt>0</asrwt>
<pdfrwt beam="1">  1        2 0.47554898E+00 0.64255698E+04</pdfrwt>
<pdfrwt beam="2">  1       -2 0.51373757E+00 0.64255698E+04</pdfrwt>
<totfact> 0.13714267E-03</totfact>
</mgrwt>
</event>
<event>
 6    1  0.5040916E-004  0.3218785E+04  0.7818608E-02  0.8183874E-01
         -2   -1    0    0    0  501 -0.00000000000E+00  0.00000000000E+00  0.10521147807E+04  0.10521147807E+04  0.00000000000E+00 0. -1.
          2   -1    0    0  501    0  0.00000000000E+00 -0.00000000000E+00 -0.24618451740E+04  0.24618451740E+04  0.00000000000E+00 0.  1.
         23    2    1    2    0    0 -0.30777666733E+03  0.13397352468E+04  0.20567740701E+03  0.13928377589E+04  0.89871121916E+02 0.  0.
         11    1    3    3    0    0 -0.19267688495E+03  0.83035318662E+03  0.83367185407E+02  0.85648168932E+03  0.00000000000E+00 0.  1.
        -11    1    3    3    0    0 -0.11509978237E+03  0.50938206014E+03  0.12231022160E+03  0.53635606961E+03  0.00000000000E+00 0. -1.
         22    1    1    2    0    0  0.30777666733E+03 -0.13397352468E+04 -0.16154078003E+04  0.21211221958E+04  0.00000000000E+00 0.  1.
<mgrwt>
<rscale>  0 0.32187847E+04</rscale>
<asrwt>0</asrwt>
<pdfrwt beam="1">  1        2 0.37874541E+00 0.32187847E+04</pdfrwt>
<pdfrwt beam="2">  1       -2 0.16186381E+00 0.32187847E+04</pdfrwt>
<totfact> 0.75141629E-01</totfact>
</mgrwt>
</event>
<event>
 6    1  0.5040916E-004  0.6911788E+03  0.7818608E-02  0.9732438E-01
          2   -1    0    0  501    0  0.00000000000E+00  0.00000000000E+00  0.71408251661E+02  0.71408251661E+02  0.00000000000E+00 0.  1.
         -2   -1    0    0    0  501 -0.00000000000E+00 -0.00000000000E+00 -0.16725241471E+04  0.16725241471E+04  0.00000000000E+00 0. -1.
         23    2    1    2    0    0  0.32353002381E+03 -0.71496656626E+02 -0.62387552551E+03  0.71204956199E+03  0.89501168627E+02 0.  0.
         13    1    3    3    0    0  0.21874721995E+03 -0.64901048859E+01 -0.37166985216E+03  0.43131304954E+03  0.00000000000E+00 0. -1.
        -13    1    3    3    0    0  0.10478280386E+03 -0.65006551740E+02 -0.25220567335E+03  0.28073651245E+03  0.00000000000E+00 0.  1.
         22    1    1    2    0    0 -0.32353002381E+03  0.71496656626E+02 -0.97724036996E+03  0.10318828368E+04  0.00000000000E+00 0.  1.
<mgrwt>
<rscale>  0 0.69117878E+03</rscale>
<asrwt>0</asrwt>
<pdfrwt beam="1">  1        2 0.10985885E-01 0.69117878E+03</pdfrwt>
<pdfrwt beam="2">  1       -2 0.25731141E+00 0.69117878E+03</pdfrwt>
<totfact> 0.35366865E+01</totfact>
</mgrwt>
</event>
<event>
 6    1  0.5040916E-004  0.1164714E+04  0.7818608E-02  0.9144315E-01
          2   -1    0    0  501    0  0.00000000000E+00  0.00000000000E+00  0.16908080370E+04  0.16908080370E+04  0.00000000000E+00 0.  1.
         -2   -1    0    0    0  501 -0.00000000000E+00 -0.00000000000E+00 -0.20057851496E+03  0.20057851496E+03  0.00000000000E+00 0. -1.
         23    2    1    2    0    0 -0.21412990829E+03  0.50972702081E+03  0.10267740921E+04  0.11699545116E+04  0.94102442008E+02 0.  0.
         11    1    3    3    0    0 -0.15241580641E+03  0.27286685887E+03  0.51016704447E+03  0.59829534010E+03  0.00000000000E+00 0. -1.
        -11    1    3    3    0    0 -0.61714101872E+02  0.23686016194E+03  0.51660704761E+03  0.57165917147E+03  0.00000000000E+00 0.  1.
         22    1    1    2    0    0  0.21412990829E+03 -0.50972702081E+03  0.46345542999E+03  0.72143204042E+03  0.00000000000E+00 0.  1.
<mgrwt>
<rscale>  0 0.11647142E+04</rscale>
<asrwt>0</asrwt>
<pdfrwt beam="1">  1        2 0.26012430E+00 0.11647142E+04</pdfrwt>
<pdfrwt beam="2">  1       -2 0.30858234E-01 0.11647142E+04</pdfrwt>
<totfact> 0.95441530E+01</totfact>
</mgrwt>
</event>
<event>
 6    1  0.5040916E-004  0.4379765E+04  0.7818608E-02  0.7932031E-01
         -2   -1    0    0    0  501 -0.00000000000E+00  0.00000000000E+00  0.22783421184E+04  0.22783421184E+04  0.00000000000E+00 0. -1.
          2   -1    0    0  501    0  0.00000000000E+00 -0.00000000000E+00 -0.21048571600E+04  0.21048571600E+04  0.00000000000E+00 0.  1.
         23    2    1    2    0    0  0.13391022530E+03  0.21066613176E+04 -0.49294762076E+03  0.21695854371E+04  0.90276001870E+02 0.  0.
         11    1    3    3    0    0  0.40415758520E+02  0.21875289449E+03 -0.43602097604E+02  0.22668790285E+03  0.00000000000E+00 0. -1.
        -11    1    3    3    0    0  0.93494466780E+02  0.18879084231E+04 -0.44934552316E+03  0.19428975342E+04  0.00000000000E+00 0.  1.
         22    1    1    2    0    0 -0.13391022530E+03 -0.21066613176E+04  0.66643257916E+03  0.22136138412E+04  0.00000000000E+00 0. -1.
<mgrwt>
<rscale>  0 0.43797647E+04</rscale>
<asrwt>0</asrwt>
<pdfrwt beam="1">  1        2 0.32382418E+00 0.43797647E+04</pdfrwt>
<pdfrwt beam="2">  1       -2 0.35051417E+00 0.43797647E+04</pdfrwt>
<totfact> 0.68984954E-02</totfact>
</mgrwt>
</event>
<event>
 6    1  0.5040916E-004  0.2685338E+04  0.7818608E-02  0.8339778E-01
          2   -1    0    0  501    0  0.00000000000E+00  0.00000000000E+00  0.28416137915E+04  0.28416137915E+04  0.00000000000E+00 0.  1.
         -2   -1    0    0    0  501 -0.00000000000E+00 -0.00000000000E+00 -0.63441398062E+03  0.63441398062E+03  0.00000000000E+00 0. -1.
         23    2    1    2    0    0  0.50569020908E+03  0.57835017105E+03  0.25278430936E+04  0.26435473683E+04  0.90224579609E+02 0.  0.
         13    1    3    3    0    0  0.56874442929E+02  0.87545286303E+02  0.44577036692E+03  0.45783195546E+03  0.00000000000E+00 0.  1.
        -13    1    3    3    0    0  0.44881576616E+03  0.49080488475E+03  0.20820727266E+04  0.21857154128E+04  0.00000000000E+00 0. -1.
         22    1    1    2    0    0 -0.50569020908E+03 -0.57835017105E+03 -0.32064328274E+03  0.83248040379E+03  0.00000000000E+00 0. -1.
<mgrwt>
<rscale>  0 0.26853376E+04</rscale>
<asrwt>0</asrwt>
<pdfrwt beam="1">  1        2 0.43717135E+00 0.26853376E+04</pdfrwt>
<pdfrwt beam="2">  1       -2 0.97602152E-01 0.26853376E+04</pdfrwt>
<totfact> 0.16756827E+00</totfact>
</mgrwt>
</event>
<event>
 6    1  0.5040916E-004  0.3767115E+04  0.7818608E-02  0.8053249E-01
          2   -1    0    0  501    0  0.00000000000E+00  0.00000000000E+00  0.14604597576E+04  0.14604597576E+04  0.00000000000E+00 0.  1.
         -2   -1    0    0    0  501 -0.00000000000E+00 -0.00000000000E+00 -0.24292277874E+04  0.24292277874E+04  0.00000000000E+00 0. -1.
         23    2    1    2    0    0 -0.76408976026E+03  0.16583296039E+04 -0.95787290503E+03  0.20637606733E+04  0.87734701104E+02 0.  0.
         11    1    3    3    0    0 -0.34410223675E+03  0.67308377730E+03 -0.43058198003E+03  0.86997066739E+03  0.00000000000E+00 0.  1.
        -11    1    3    3    0    0 -0.41998752351E+03  0.98524582657E+03 -0.52729092500E+03  0.11937900059E+04  0.00000000000E+00 0. -1.
         22    1    1    2    0    0  0.76408976026E+03 -0.16583296039E+04 -0.10895124764E+02  0.18259268716E+04  0.00000000000E+00 0.  1.
<mgrwt>
<rscale>  0 0.37671153E+04</rscale>
<asrwt>0</asrwt>
<pdfrwt beam="1">  1        2 0.22468612E+00 0.37671153E+04</pdfrwt>
<pdfrwt beam="2">  1       -2 0.37372735E+00 0.37671153E+04</pdfrwt>
<totfact> 0.11801197E-01</totfact>
</mgrwt>
</event>
<event>
 6    1  0.5040916E-004  0.1638840E+04  0.7818608E-02  0.8797036E-01
          2   -1    0    0  501    0  0.00000000000E+00  0.00000000000E+00  0.12569433835E+04  0.12569433835E+04  0.00000000000E+00 0.  1.
         -2   -1    0    0    0  501 -0.00000000000E+00 -0.00000000000E+00 -0.53419228603E+03  0.53419228603E+03  0.00000000000E+00 0. -1.
         23    2    1    2    0    0  0.34067136900E+03 -0.62733764169E+03 -0.71604772154E+02  0.72314187462E+03  0.90539654815E+02 0.  0.
         11    1    3    3    0    0 -0.45941793427E+01 -0.81155537361E+01 -0.61099341392E+01  0.11148990603E+02  0.00000000000E+00 0. -1.
        -11    1    3    3    0    0  0.34526554835E+03 -0.61922208795E+03 -0.65494838015E+02  0.71199288401E+03  0.00000000000E+00 0.  1.
         22    1    1    2    0    0 -0.34067136900E+03  0.62733764169E+03  0.79435586960E+03  0.10679937949E+04  0.00000000000E+00 0.  1.
<mgrwt>
<rscale>  0 0.16388404E+04</rscale>
<asrwt>0</asrwt>
<pdfrwt beam="1">  1        2 0.19337590E+00 0.16388404E+04</pdfrwt>
<pdfrwt beam="2">  1       -2 0.82183429E-01 0.16388404E+04</pdfrwt>
<totfact> 0.21792775E+01</totfact>
</mgrwt>
</event>
<event>
 6    1  0.5040916E-004  0.4453409E+04  0.7818608E-02  0.7918845E-01
          1   -1    0    0  501    0  0.00000000000E+00  0.00000000000E+00  0.28576157010E+04  0.28576157010E+04  0.00000000000E+00 0. -1.
         -1   -1    0    0    0  501 -0.00000000000E+00 -0.00000000000E+00 -0.17350877608E+04  0.17350877608E+04  0.00000000000E+00 0.  1.
         23    2    1    2    0    0 -0.77700891906E+03 -0.16077447953E+04  0.19316459432E+04  0.26322805151E+04  0.95176012113E+02 0.  0.
         11    1    3    3    0    0 -0.25398505469E+03 -0.61547269138E+03  0.68408806581E+03  0.95461590371E+03  0.00000000000E+00 0.  1.
        -11    1    3    3    0    0 -0.52302386438E+03 -0.99227210389E+03  0.12475578774E+04  0.16776646114E+04  0.00000000000E+00 0. -1.
         22    1    1    2    0    0  0.77700891906E+03  0.16077447953E+04 -0.80911800298E+03  0.19604229467E+04  0.00000000000E+00 0. -1.
<mgrwt>
<rscale>  0 0.44534095E+04</rscale>
<asrwt>0</asrwt>
<pdfrwt beam="1">  1        1 0.43963318E+00 0.44534095E+04</pdfrwt>
<pdfrwt beam="2">  1       -1 0.26693658E+00 0.44534095E+04</pdfrwt>
<totfact> 0.30917590E-02</totfact>
</mgrwt>
</event>
<event>
 6    1  0.8071731E-004  0.3857630E+04  0.7818608E-02  0.8033899E-01
          2   -1    0    0  501    0  0.00000000000E+00  0.00000000000E+00  0.20796735219E+04  0.20796735219E+04  0.00000000000E+00 0.  1.
         -2   -1    0    0    0  501 -0.00000000000E+00 -0.00000000000E+00 -0.17888999877E+04  0.17888999877E+04  0.00000000000E+00 0. -1.
         23    2    1    2    0    0 -0.11714706178E+03  0.33089501958E+03  0.20462841703E+04  0.20783130420E+04  0.94293408685E+02 0.  0.
         11    1    3    3    0    0  0.77924273902E+00  0.52582470970E+02  0.50035683625E+03  0.50311279755E+03  0.00000000000E+00 0.  1.
        -11    1    3    3    0    0 -0.11792630451E+03  0.27831254861E+03  0.15459273340E+04  0.15752002445E+04  0.00000000000E+00 0. -1.
         22    1    1    2    0    0  0.11714706178E+03 -0.33089501958E+03 -0.17555106362E+04  0.17902604676E+04  0.00000000000E+00 0. -1.
<mgrwt>
<rscale>  0 0.38576303E+04</rscale>
<asrwt>0</asrwt>
<pdfrwt beam="1">  1        2 0.31994977E+00 0.38576303E+04</pdfrwt>
<pdfrwt beam="2">  1       -2 0.27521538E+00 0.38576303E+04</pdfrwt>
<totfact> 0.21681467E-01</totfact>
</mgrwt>
</event>
<event>
 6    1  0.5040916E-004  0.2713325E+04  0.7818608E-02  0.8330694E-01
         -2   -1    0    0    0  501 -0.00000000000E+00  0.00000000000E+00  0.17159978233E+04  0.17159978233E+04  0.00000000000E+00 0. -1.
          2   -1    0    0  501    0  0.00000000000E+00 -0.00000000000E+00 -0.10725734184E+04  0.10725734184E+04  0.00000000000E+00 0.  1.
         23    2    1    2    0    0  0.56572707717E+03 -0.11055877593E+04 -0.23684111894E+03  0.12663232949E+04  0.71481132562E+02 0.  0.
         13    1    3    3    0    0  0.37752893822E+03 -0.66956506560E+03 -0.16214388931E+03  0.78558011501E+03  0.00000000000E+00 0.  1.
        -13    1    3    3    0    0  0.18819813895E+03 -0.43602269365E+03 -0.74697229627E+02  0.48074317988E+03  0.00000000000E+00 0. -1.
         22    1    1    2    0    0 -0.56572707717E+03  0.11055877593E+04  0.88026552380E+03  0.15222479468E+04  0.00000000000E+00 0. -1.
<mgrwt>
<rscale>  0 0.27133254E+04</rscale>
<asrwt>0</asrwt>
<pdfrwt beam="1">  1        2 0.16501130E+00 0.27133254E+04</pdfrwt>
<pdfrwt beam="2">  1       -2 0.26399966E+00 0.27133254E+04</pdfrwt>
<totfact> 0.10470994E+00</totfact>
</mgrwt>
</event>
<event>
 6    1  0.5040916E-004  0.3469518E+04  0.7818608E-02  0.8121052E-01
         -2   -1    0    0    0  501 -0.00000000000E+00  0.00000000000E+00  0.12292156996E+04  0.12292156996E+04  0.00000000000E+00 0. -1.
          2   -1    0    0  501    0  0.00000000000E+00 -0.00000000000E+00 -0.24482184875E+04  0.24482184875E+04  0.00000000000E+00 0.  1.
         23    2    1    2    0    0  0.62658267493E+03 -0.11980280377E+03  0.10983622930E+04  0.12738661148E+04  0.96832802124E+02 0.  0.
         13    1    3    3    0    0  0.19202627194E+03 -0.80756425959E+02  0.32926733664E+03  0.38963145205E+03  0.00000000000E+00 0.  1.
        -13    1    3    3    0    0  0.43455640299E+03 -0.39046377807E+02  0.76909495632E+03  0.88423466276E+03  0.00000000000E+00 0. -1.
         22    1    1    2    0    0 -0.62658267493E+03  0.11980280377E+03 -0.23173650808E+04  0.24035680723E+04  0.00000000000E+00 0.  1.
<mgrwt>
<rscale>  0 0.34695179E+04</rscale>
<asrwt>0</asrwt>
<pdfrwt beam="1">  1        2 0.37664899E+00 0.34695179E+04</pdfrwt>
<pdfrwt beam="2">  1       -2 0.18911011E+00 0.34695179E+04</pdfrwt>
<totfact> 0.48277426E-01</totfact>
</mgrwt>
</event>
<event>
 6    1  0.5040916E-004  0.1733710E+04  0.7818608E-02  0.8742369E-01
         -2   -1    0    0    0  501 -0.00000000000E+00  0.00000000000E+00  0.33368407705E+03  0.33368407705E+03  0.00000000000E+00 0. -1.
          2   -1    0    0  501    0  0.00000000000E+00 -0.00000000000E+00 -0.22519430138E+04  0.22519430138E+04  0.00000000000E+00 0.  1.
         23    2    1    2    0    0  0.59365079023E+03  0.40713320779E+03 -0.24781102007E+03  0.76667823176E+03  0.90589733163E+02 0.  0.
         11    1    3    3    0    0  0.24919887331E+03  0.21406990058E+03 -0.14187433393E+03  0.35784679323E+03  0.00000000000E+00 0.  1.
        -11    1    3    3    0    0  0.34445191692E+03  0.19306330721E+03 -0.10593668614E+03  0.40883143853E+03  0.00000000000E+00 0. -1.
         22    1    1    2    0    0 -0.59365079023E+03 -0.40713320779E+03 -0.16704479167E+04  0.18189488591E+04  0.00000000000E+00 0.  1.
<mgrwt>
<rscale>  0 0.17337099E+04</rscale>
<asrwt>0</asrwt>
<pdfrwt beam="1">  1        2 0.34645276E+00 0.17337099E+04</pdfrwt>
<pdfrwt beam="2">  1       -2 0.51336014E-01 0.17337099E+04</pdfrwt>
<totfact> 0.16433265E+01</totfact>
</mgrwt>
</event>
<event>
 6    1  0.5040916E-004  0.5719362E+04  0.7818608E-02  0.7726206E-01
         -2   -1    0    0    0  501 -0.00000000000E+00  0.00000000000E+00  0.43558501000E+04  0.43558501000E+04  0.00000000000E+00 0. -1.
          2   -1    0    0  501    0  0.00000000000E+00 -0.00000000000E+00 -0.18774233510E+04  0.18774233510E+04  0.00000000000E+00 0.  1.
         23    2    1    2    0    0 -0.20566205628E+03 -0.33203280018E+03  0.43261811904E+04  0.43446922010E+04  0.89241063131E+02 0.  0.
         13    1    3    3    0    0 -0.18631041714E+03 -0.31063938458E+03  0.41817148775E+04  0.41973739071E+04  0.00000000000E+00 0.  1.
        -13    1    3    3    0    0 -0.19351639138E+02 -0.21393415604E+02  0.14446631289E+03  0.14731829394E+03  0.00000000000E+00 0. -1.
         22    1    1    2    0    0  0.20566205628E+03  0.33203280018E+03 -0.18477544415E+04  0.18885812500E+04  0.00000000000E+00 0.  1.
<mgrwt>
<rscale>  0 0.57193617E+04</rscale>
<asrwt>0</asrwt>
<pdfrwt beam="1">  1        2 0.28883436E+00 0.57193617E+04</pdfrwt>
<pdfrwt beam="2">  1       -2 0.67013078E+00 0.57193617E+04</pdfrwt>
<totfact> 0.15751364E-03</totfact>
</mgrwt>
</event>
<event>
 6    1  0.5040916E-004  0.6377867E+03  0.7818608E-02  0.9829970E-01
          2   -1    0    0  501    0  0.00000000000E+00  0.00000000000E+00  0.26839947892E+04  0.26839947892E+04  0.00000000000E+00 0.  1.
         -2   -1    0    0    0  501 -0.00000000000E+00 -0.00000000000E+00 -0.37888663884E+02  0.37888663884E+02  0.00000000000E+00 0. -1.
         23    2    1    2    0    0  0.13024564424E+03  0.13501342693E+03  0.24158507108E+04  0.24248815858E+04  0.92322773955E+02 0.  0.
         13    1    3    3    0    0  0.10490428618E+03  0.14034062435E+03  0.18055507600E+04  0.18140325099E+04  0.00000000000E+00 0.  1.
        -13    1    3    3    0    0  0.25341358062E+02 -0.53271974180E+01  0.61029995086E+03  0.61084907586E+03  0.00000000000E+00 0. -1.
         22    1    1    2    0    0 -0.13024564424E+03 -0.13501342693E+03  0.23025541444E+03  0.29700186729E+03  0.00000000000E+00 0. -1.
<mgrwt>
<rscale>  0 0.63778672E+03</rscale>
<asrwt>0</asrwt>
<pdfrwt beam="1">  1        2 0.41292213E+00 0.63778672E+03</pdfrwt>
<pdfrwt beam="2">  1       -2 0.58290273E-02 0.63778672E+03</pdfrwt>
<totfact> 0.46534976E+02</totfact>
</mgrwt>
</event>
<event>
 6    1  0.5040916E-004  0.2995704E+04  0.7818608E-02  0.8244959E-01
          2   -1    0    0  501    0  0.00000000000E+00  0.00000000000E+00  0.10839537044E+04  0.10839537044E+04  0.00000000000E+00 0.  1.
         -2   -1    0    0    0  501 -0.00000000000E+00 -0.00000000000E+00 -0.20697944020E+04  0.20697944020E+04  0.00000000000E+00 0. -1.
         23    2    1    2    0    0  0.97150046382E+03 -0.85255215218E+03  0.30032080223E+03  0.13303255753E+04  0.94420487898E+02 0.  0.
         13    1    3    3    0    0  0.66647578608E+03 -0.64078906480E+03  0.20669185146E+03  0.94737644073E+03  0.00000000000E+00 0.  1.
        -13    1    3    3    0    0  0.30502467775E+03 -0.21176308738E+03  0.93628950767E+02  0.38294913452E+03  0.00000000000E+00 0. -1.
         22    1    1    2    0    0 -0.97150046382E+03  0.85255215218E+03 -0.12861614998E+04  0.18234225311E+04  0.00000000000E+00 0. -1.
<mgrwt>
<rscale>  0 0.29957045E+04</rscale>
<asrwt>0</asrwt>
<pdfrwt beam="1">  1        2 0.16676211E+00 0.29957045E+04</pdfrwt>
<pdfrwt beam="2">  1       -2 0.31842991E+00 0.29957045E+04</pdfrwt>
<totfact> 0.46731229E-01</totfact>
</mgrwt>
</event>
<event>
 6    1  0.5040916E-004  0.1317965E+04  0.7818608E-02  0.9015439E-01
         -2   -1    0    0    0  501 -0.00000000000E+00  0.00000000000E+00  0.60037072768E+03  0.60037072768E+03  0.00000000000E+00 0. -1.
          2   -1    0    0  501    0  0.00000000000E+00 -0.00000000000E+00 -0.72331609851E+03  0.72331609851E+03  0.00000000000E+00 0.  1.
         23    2    1    2    0    0  0.12434352702E+02  0.17104097054E+03  0.57423186156E+03  0.60572741223E+03  0.88055893385E+02 0.  0.
         11    1    3    3    0    0  0.37898174125E+02  0.14787667383E+03  0.51573471107E+03  0.53785320903E+03  0.00000000000E+00 0.  1.
        -11    1    3    3    0    0 -0.25463821424E+02  0.23164296705E+02  0.58497150496E+02  0.67874203196E+02  0.00000000000E+00 0. -1.
         22    1    1    2    0    0 -0.12434352702E+02 -0.17104097054E+03 -0.69717723239E+03  0.71795941396E+03  0.00000000000E+00 0.  1.
<mgrwt>
<rscale>  0 0.13179648E+04</rscale>
<asrwt>0</asrwt>
<pdfrwt beam="1">  1        2 0.11127940E+00 0.13179648E+04</pdfrwt>
<pdfrwt beam="2">  1       -2 0.92364727E-01 0.13179648E+04</pdfrwt>
<totfact> 0.38297106E+01</totfact>
</mgrwt>
</event>
<event>
 6    1  0.5040916E-004  0.4620890E+04  0.7818608E-02  0.7889808E-01
          3   -1    0    0  501    0  0.00000000000E+00  0.00000000000E+00  0.21299669951E+04  0.21299669951E+04  0.00000000000E+00 0. -1.
         -3   -1    0    0    0  501 -0.00000000000E+00 -0.00000000000E+00 -0.25062151920E+04  0.25062151920E+04  0.00000000000E+00 0.  1.
         23    2    1    2    0    0  0.81843542514E+03 -0.18194796977E+04 -0.13555550862E+04  0.24137094879E+04  0.90116506666E+02 0.  0.
         13    1    3    3    0    0  0.32105774756E+03 -0.68472532435E+03 -0.56495463005E+03  0.94398123979E+03  0.00000000000E+00 0.  1.
        -13    1    3    3    0    0  0.49737767758E+03 -0.11347543734E+04 -0.79060045611E+03  0.14697282481E+04  0.00000000000E+00 0. -1.
         22    1    1    2    0    0 -0.81843542514E+03  0.18194796977E+04  0.97930688919E+03  0.22224726992E+04  0.00000000000E+00 0. -1.
<mgrwt>
<rscale>  0 0.46208898E+04</rscale>
<asrwt>0</asrwt>
<pdfrwt beam="1">  1        3 0.32768723E+00 0.46208898E+04</pdfrwt>
<pdfrwt beam="2">  1       -3 0.38557157E+00 0.46208898E+04</pdfrwt>
<totfact> 0.66657871E-04</totfact>
</mgrwt>
</event>
<event>
 6    1  0.5040916E-004  0.1831052E+04  0.7818608E-02  0.8689958E-01
         -1   -1    0    0    0  501 -0.00000000000E+00  0.00000000000E+00  0.30994582188E+03  0.30994582188E+03  0.00000000000E+00 0.  1.
          1   -1    0    0  501    0  0.00000000000E+00 -0.00000000000E+00 -0.27043050732E+04  0.27043050732E+04  0.00000000000E+00 0. -1.
         23    2    1    2    0    0  0.30777746494E+03  0.79938606871E+03 -0.67864827857E+03  0.10965936794E+04  0.90604398013E+02 0.  0.
         13    1    3    3    0    0  0.12537879191E+03  0.23129577090E+03 -0.23917211991E+03  0.35555713751E+03  0.00000000000E+00 0. -1.
        -13    1    3    3    0    0  0.18239867303E+03  0.56809029780E+03 -0.43947615867E+03  0.74103654189E+03  0.00000000000E+00 0.  1.
         22    1    1    2    0    0 -0.30777746494E+03 -0.79938606871E+03 -0.17157109727E+04  0.19176572156E+04  0.00000000000E+00 0. -1.
<mgrwt>
<rscale>  0 0.18310522E+04</rscale>
<asrwt>0</asrwt>
<pdfrwt beam="1">  1        1 0.41604690E+00 0.18310522E+04</pdfrwt>
<pdfrwt beam="2">  1       -1 0.47683977E-01 0.18310522E+04</pdfrwt>
<totfact> 0.40346750E+00</totfact>
</mgrwt>
</event>
<event>
 6    1  0.5040916E-004  0.2324782E+04  0.7818608E-02  0.8468214E-01
         -2   -1    0    0    0  501 -0.00000000000E+00  0.00000000000E+00  0.69687806664E+03  0.69687806664E+03  0.00000000000E+00 0. -1.
          2   -1    0    0  501    0  0.00000000000E+00 -0.00000000000E+00 -0.19388653577E+04  0.19388653577E+04  0.00000000000E+00 0.  1.
         23    2    1    2    0    0  0.23161893087E+03 -0.11363169564E+04 -0.67411151401E+03  0.13444857225E+04  0.91389113639E+02 0.  0.
         13    1    3    3    0    0  0.13629522591E+03 -0.55536803072E+03 -0.28630299166E+03  0.63951500466E+03  0.00000000000E+00 0.  1.
        -13    1    3    3    0    0  0.95323704958E+02 -0.58094892566E+03 -0.38780852235E+03  0.70497071780E+03  0.00000000000E+00 0. -1.
         22    1    1    2    0    0 -0.23161893087E+03  0.11363169564E+04 -0.56787577703E+03  0.12912577019E+04  0.00000000000E+00 0.  1.
<mgrwt>
<rscale>  0 0.23247819E+04</rscale>
<asrwt>0</asrwt>
<pdfrwt beam="1">  1        2 0.29828697E+00 0.23247819E+04</pdfrwt>
<pdfrwt beam="2">  1       -2 0.10721201E+00 0.23247819E+04</pdfrwt>
<totfact> 0.45700900E+00</totfact>
</mgrwt>
</event>
<event>
 6    1  0.5040916E-004  0.1649604E+04  0.7818608E-02  0.8790641E-01
         -2   -1    0    0    0  501 -0.00000000000E+00  0.00000000000E+00  0.45623260444E+03  0.45623260444E+03  0.00000000000E+00 0. -1.
          2   -1    0    0  501    0  0.00000000000E+00 -0.00000000000E+00 -0.14911224424E+04  0.14911224424E+04  0.00000000000E+00 0.  1.
         23    2    1    2    0    0  0.16797032098E+02 -0.12989932524E+03 -0.14773418057E+04  0.14859227997E+04  0.90949330788E+02 0.  0.
         11    1    3    3    0    0  0.46995682145E+02 -0.47714411320E+02 -0.46445967112E+03  0.46926330060E+03  0.00000000000E+00 0.  1.
        -11    1    3    3    0    0 -0.30198650047E+02 -0.82184913924E+02 -0.10128821346E+04  0.10166594991E+04  0.00000000000E+00 0. -1.
         22    1    1    2    0    0 -0.16797032098E+02  0.12989932524E+03  0.44245196773E+03  0.46143224717E+03  0.00000000000E+00 0. -1.
<mgrwt>
<rscale>  0 0.16496044E+04</rscale>
<asrwt>0</asrwt>
<pdfrwt beam="1">  1        2 0.22940345E+00 0.16496044E+04</pdfrwt>
<pdfrwt beam="2">  1       -2 0.70189632E-01 0.16496044E+04</pdfrwt>
<totfact> 0.22667810E+01</totfact>
</mgrwt>
</event>
<event>
 6    1  0.5040916E-004  0.3569126E+04  0.7818608E-02  0.8097601E-01
         -2   -1    0    0    0  501 -0.00000000000E+00  0.00000000000E+00  0.11861115408E+04  0.11861115408E+04  0.00000000000E+00 0. -1.
          2   -1    0    0  501    0  0.00000000000E+00 -0.00000000000E+00 -0.26849625213E+04  0.26849625213E+04  0.00000000000E+00 0.  1.
         23    2    1    2    0    0  0.14858225267E+04  0.45509988816E+03  0.19934745152E+03  0.15691917011E+04  0.88536429523E+02 0.  0.
         11    1    3    3    0    0  0.57498974440E+03  0.19707773849E+03  0.39413640568E+02  0.60910284537E+03  0.00000000000E+00 0. -1.
        -11    1    3    3    0    0  0.91083278233E+03  0.25802214967E+03  0.15993381095E+03  0.96008885577E+03  0.00000000000E+00 0.  1.
         22    1    1    2    0    0 -0.14858225267E+04 -0.45509988816E+03 -0.16981984320E+04  0.23018823610E+04  0.00000000000E+00 0.  1.
<mgrwt>
<rscale>  0 0.35691260E+04</rscale>
<asrwt>0</asrwt>
<pdfrwt beam="1">  1        2 0.41307115E+00 0.35691260E+04</pdfrwt>
<pdfrwt beam="2">  1       -2 0.18247870E+00 0.35691260E+04</pdfrwt>
<totfact> 0.38605100E-01</totfact>
</mgrwt>
</event>
<event>
 6    1  0.5040916E-004  0.2664744E+04  0.7818608E-02  0.8346536E-01
          2   -1    0    0  501    0  0.00000000000E+00  0.00000000000E+00  0.21024754949E+04  0.21024754949E+04  0.00000000000E+00 0. -1.
         -2   -1    0    0    0  501 -0.00000000000E+00 -0.00000000000E+00 -0.84434548699E+03  0.84434548699E+03  0.00000000000E+00 0.  1.
         23    2    1    2    0    0  0.72302979835E+03  0.43686058856E+03  0.17669644823E+04  0.19606507200E+04  0.91479511227E+02 0.  0.
         13    1    3    3    0    0  0.42088364228E+03  0.30633110255E+03  0.10854165137E+04  0.12037901781E+04  0.00000000000E+00 0.  1.
        -13    1    3    3    0    0  0.30214615606E+03  0.13052948601E+03  0.68154796857E+03  0.75686054185E+03  0.00000000000E+00 0. -1.
         22    1    1    2    0    0 -0.72302979835E+03 -0.43686058856E+03 -0.50883447438E+03  0.98617026190E+03  0.00000000000E+00 0.  1.
<mgrwt>
<rscale>  0 0.26647444E+04</rscale>
<asrwt>0</asrwt>
<pdfrwt beam="1">  1        2 0.32345777E+00 0.26647444E+04</pdfrwt>
<pdfrwt beam="2">  1       -2 0.12989931E+00 0.26647444E+04</pdfrwt>
<totfact> 0.22424778E+00</totfact>
</mgrwt>
</event>
<event>
 6    1  0.6713313E-004  0.3575488E+04  0.7818608E-02  0.8096130E-01
          2   -1    0    0  501    0  0.00000000000E+00  0.00000000000E+00  0.15183457876E+04  0.15183457876E+04  0.00000000000E+00 0.  1.
         -2   -1    0    0    0  501 -0.00000000000E+00 -0.00000000000E+00 -0.21049409098E+04  0.21049409098E+04  0.00000000000E+00 0. -1.
         23    2    1    2    0    0 -0.90926465070E+03  0.56279086428E+03  0.11568925482E+04  0.15779884260E+04  0.90284787278E+02 0.  0.
         11    1    3    3    0    0 -0.60926939427E+03  0.41783110220E+03  0.76245849823E+03  0.10616661369E+04  0.00000000000E+00 0. -1.
        -11    1    3    3    0    0 -0.29999525643E+03  0.14495976208E+03  0.39443404993E+03  0.51632228913E+03  0.00000000000E+00 0.  1.
         22    1    1    2    0    0  0.90926465070E+03 -0.56279086428E+03 -0.17434876704E+04  0.20452982713E+04  0.00000000000E+00 0. -1.
<mgrwt>
<rscale>  0 0.35754878E+04</rscale>
<asrwt>0</asrwt>
<pdfrwt beam="1">  1        2 0.23359166E+00 0.35754878E+04</pdfrwt>
<pdfrwt beam="2">  1       -2 0.32383706E+00 0.35754878E+04</pdfrwt>
<totfact> 0.22942155E-01</totfact>
</mgrwt>
</event>
<event>
 6    1  0.5040916E-004  0.3014086E+04  0.7818608E-02  0.8239720E-01
         -2   -1    0    0    0  501 -0.00000000000E+00  0.00000000000E+00  0.10555048407E+04  0.10555048407E+04  0.00000000000E+00 0. -1.
          2   -1    0    0  501    0  0.00000000000E+00 -0.00000000000E+00 -0.21517468508E+04  0.21517468508E+04  0.00000000000E+00 0.  1.
         23    2    1    2    0    0 -0.74865711583E+03 -0.10435538470E+04  0.28718224013E+03  0.13195666636E+04  0.96386886562E+02 0.  0.
         11    1    3    3    0    0 -0.35223499574E+03 -0.55911209323E+03  0.17541178356E+03  0.68369958230E+03  0.00000000000E+00 0. -1.
        -11    1    3    3    0    0 -0.39642212009E+03 -0.48444175374E+03  0.11177045657E+03  0.63586708126E+03  0.00000000000E+00 0.  1.
         22    1    1    2    0    0  0.74865711583E+03  0.10435538470E+04 -0.13834242502E+04  0.18876850279E+04  0.00000000000E+00 0.  1.
<mgrwt>
<rscale>  0 0.30140864E+04</rscale>
<asrwt>0</asrwt>
<pdfrwt beam="1">  1        2 0.33103798E+00 0.30140864E+04</pdfrwt>
<pdfrwt beam="2">  1       -2 0.16238536E+00 0.30140864E+04</pdfrwt>
<totfact> 0.11369023E+00</totfact>
</mgrwt>
</event>
<event>
 6    1  0.5040916E-004  0.1465378E+04  0.7818608E-02  0.8907808E-01
         -2   -1    0    0    0  501 -0.00000000000E+00  0.00000000000E+00  0.26544129926E+04  0.26544129926E+04  0.00000000000E+00 0. -1.
          2   -1    0    0  501    0  0.00000000000E+00 -0.00000000000E+00 -0.20224166675E+03  0.20224166675E+03  0.00000000000E+00 0.  1.
         23    2    1    2    0    0  0.63100522796E+03  0.33647851181E+03  0.15152103163E+04  0.16779768747E+04  0.91425941352E+02 0.  0.
         11    1    3    3    0    0  0.58701673214E+03  0.32687199047E+03  0.13689881735E+04  0.15249795281E+04  0.00000000000E+00 0.  1.
        -11    1    3    3    0    0  0.43988495817E+02  0.96065213379E+01  0.14622214276E+03  0.15299734654E+03  0.00000000000E+00 0. -1.
         22    1    1    2    0    0 -0.63100522796E+03 -0.33647851181E+03  0.93696100957E+03  0.11786777847E+04  0.00000000000E+00 0.  1.
<mgrwt>
<rscale>  0 0.14653776E+04</rscale>
<asrwt>0</asrwt>
<pdfrwt beam="1">  1        2 0.31114105E-01 0.14653776E+04</pdfrwt>
<pdfrwt beam="2">  1       -2 0.40837120E+00 0.14653776E+04</pdfrwt>
<totfact> 0.10940701E+00</totfact>
</mgrwt>
</event>
<event>
 6    1  0.5040916E-004  0.2133833E+04  0.7818608E-02  0.8546485E-01
         -2   -1    0    0    0  501 -0.00000000000E+00  0.00000000000E+00  0.55335974932E+03  0.55335974932E+03  0.00000000000E+00 0. -1.
          2   -1    0    0  501    0  0.00000000000E+00 -0.00000000000E+00 -0.20570892137E+04  0.20570892137E+04  0.00000000000E+00 0.  1.
         23    2    1    2    0    0 -0.16292037425E+03  0.72492761278E+03 -0.16865330829E+04  0.18452821478E+04  0.92786168694E+02 0.  0.
         13    1    3    3    0    0 -0.11891887934E+03  0.40848868639E+03 -0.86947842659E+03  0.96798628145E+03  0.00000000000E+00 0.  1.
        -13    1    3    3    0    0 -0.44001494913E+02  0.31643892640E+03 -0.81705465632E+03  0.87729586635E+03  0.00000000000E+00 0. -1.
         22    1    1    2    0    0  0.16292037425E+03 -0.72492761278E+03  0.18280361855E+03  0.76516681519E+03  0.00000000000E+00 0. -1.
<mgrwt>
<rscale>  0 0.21338326E+04</rscale>
<asrwt>0</asrwt>
<pdfrwt beam="1">  1        2 0.31647526E+00 0.21338326E+04</pdfrwt>
<pdfrwt beam="2">  1       -2 0.85132271E-01 0.21338326E+04</pdfrwt>
<totfact> 0.68506549E+00</totfact>
</mgrwt>
</event>
<event>
 6    1  0.5040916E-004  0.1148172E+04  0.7818608E-02  0.9159472E-01
         -2   -1    0    0    0  501 -0.00000000000E+00  0.00000000000E+00  0.11573451594E+03  0.11573451594E+03  0.00000000000E+00 0. -1.
          2   -1    0    0  501    0  0.00000000000E+00 -0.00000000000E+00 -0.28476776461E+04  0.28476776461E+04  0.00000000000E+00 0.  1.
         23    2    1    2    0    0 -0.98148681123E+02 -0.51875818299E+03 -0.19314362392E+04  0.20044781192E+04  0.93505979863E+02 0.  0.
         11    1    3    3    0    0 -0.45194671891E+01 -0.56119936732E+01 -0.52552620758E+01  0.89183987434E+01  0.00000000000E+00 0. -1.
        -11    1    3    3    0    0 -0.93629213934E+02 -0.51314618932E+03 -0.19261809771E+04  0.19955597205E+04  0.00000000000E+00 0.  1.
         22    1    1    2    0    0  0.98148681123E+02  0.51875818299E+03 -0.80050689093E+03  0.95893404281E+03  0.00000000000E+00 0.  1.
<mgrwt>
<rscale>  0 0.11481718E+04</rscale>
<asrwt>0</asrwt>
<pdfrwt beam="1">  1        2 0.43810426E+00 0.11481718E+04</pdfrwt>
<pdfrwt beam="2">  1       -2 0.17805310E-01 0.11481718E+04</pdfrwt>
<totfact> 0.56827670E+01</totfact>
</mgrwt>
</event>
<event>
 6    1  0.5040916E-004  0.4139739E+04  0.7818608E-02  0.7976935E-01
          2   -1    0    0  501    0  0.00000000000E+00  0.00000000000E+00  0.24726530160E+04  0.24726530160E+04  0.00000000000E+00 0.  1.
         -2   -1    0    0    0  501 -0.00000000000E+00 -0.00000000000E+00 -0.17326971531E+04  0.17326971531E+04  0.00000000000E+00 0. -1.
         23    2    1    2    0    0  0.10954716369E+04 -0.46043667044E+03 -0.13502491490E+04  0.18009756088E+04  0.90996398136E+02 0.  0.
         13    1    3    3    0    0  0.75112825820E+03 -0.29332211262E+03 -0.97074676968E+03  0.12619749652E+04  0.00000000000E+00 0.  1.
        -13    1    3    3    0    0  0.34434337866E+03 -0.16711455782E+03 -0.37950237930E+03  0.53900064356E+03  0.00000000000E+00 0. -1.
         22    1    1    2    0    0 -0.10954716369E+04  0.46043667044E+03  0.20902050118E+04  0.24043745603E+04  0.00000000000E+00 0.  1.
<mgrwt>
<rscale>  0 0.41397386E+04</rscale>
<asrwt>0</asrwt>
<pdfrwt beam="1">  1        2 0.38040815E+00 0.41397386E+04</pdfrwt>
<pdfrwt beam="2">  1       -2 0.26656879E+00 0.41397386E+04</pdfrwt>
<totfact> 0.14325225E-01</totfact>
</mgrwt>
</event>
<event>
 6    1  0.5040916E-004  0.3733192E+04  0.7818608E-02  0.8060646E-01
          1   -1    0    0  501    0  0.00000000000E+00  0.00000000000E+00  0.13754414518E+04  0.13754414518E+04  0.00000000000E+00 0.  1.
         -1   -1    0    0    0  501 -0.00000000000E+00 -0.00000000000E+00 -0.25331368032E+04  0.25331368032E+04  0.00000000000E+00 0. -1.
         23    2    1    2    0    0  0.18070644559E+04 -0.45325307893E+03 -0.47912070567E+03  0.19258064952E+04  0.90849904089E+02 0.  0.
         11    1    3    3    0    0  0.15406037189E+04 -0.38037002770E+03 -0.37487851113E+03  0.16305444106E+04  0.00000000000E+00 0.  1.
        -11    1    3    3    0    0  0.26646073697E+03 -0.72883051226E+02 -0.10424219454E+03  0.29526208464E+03  0.00000000000E+00 0. -1.
         22    1    1    2    0    0 -0.18070644559E+04  0.45325307893E+03 -0.67857464578E+03  0.19827717598E+04  0.00000000000E+00 0.  1.
<mgrwt>
<rscale>  0 0.37331924E+04</rscale>
<asrwt>0</asrwt>
<pdfrwt beam="1">  1        1 0.21160638E+00 0.37331924E+04</pdfrwt>
<pdfrwt beam="2">  1       -1 0.38971335E+00 0.37331924E+04</pdfrwt>
<totfact> 0.53742475E-02</totfact>
</mgrwt>
</event>
<event>
 6    1  0.5040916E-004  0.7476013E+03  0.7818608E-02  0.9639121E-01
          2   -1    0    0  501    0  0.00000000000E+00  0.00000000000E+00  0.74758922558E+03  0.74758922558E+03  0.00000000000E+00 0.  1.
         -2   -1    0    0    0  501 -0.00000000000E+00 -0.00000000000E+00 -0.18690333642E+03  0.18690333642E+03  0.00000000000E+00 0. -1.
         23    2    1    2    0    0  0.18868354936E+03 -0.17789069846E+03  0.61134789194E+03  0.67027064595E+03  0.90939053461E+02 0.  0.
         13    1    3    3    0    0  0.27945684238E+02 -0.83368895394E+02  0.21319601704E+03  0.23061629532E+03  0.00000000000E+00 0.  1.
        -13    1    3    3    0    0  0.16073786512E+03 -0.94521803070E+02  0.39815187490E+03  0.43965435063E+03  0.00000000000E+00 0. -1.
         22    1    1    2    0    0 -0.18868354936E+03  0.17789069846E+03 -0.50662002783E+02  0.26422191606E+03  0.00000000000E+00 0. -1.
<mgrwt>
<rscale>  0 0.74760129E+03</rscale>
<asrwt>0</asrwt>
<pdfrwt beam="1">  1        2 0.11501373E+00 0.74760129E+03</pdfrwt>
<pdfrwt beam="2">  1       -2 0.28754360E-01 0.74760129E+03</pdfrwt>
<totfact> 0.42004741E+02</totfact>
</mgrwt>
</event>
<event>
 6    1  0.5040916E-004  0.1595664E+04  0.7818608E-02  0.8823216E-01
         -2   -1    0    0    0  501 -0.00000000000E+00  0.00000000000E+00  0.33416315773E+03  0.33416315773E+03  0.00000000000E+00 0. -1.
          2   -1    0    0  501    0  0.00000000000E+00 -0.00000000000E+00 -0.19048648723E+04  0.19048648723E+04  0.00000000000E+00 0.  1.
         23    2    1    2    0    0  0.69358232351E+03 -0.37371552358E+03 -0.93928420477E+03  0.12293707596E+04  0.91530952166E+02 0.  0.
         11    1    3    3    0    0  0.21029989551E+03 -0.76123742321E+02 -0.30527278562E+03  0.37843406802E+03  0.00000000000E+00 0. -1.
        -11    1    3    3    0    0  0.48328242799E+03 -0.29759178126E+03 -0.63401141916E+03  0.85093669159E+03  0.00000000000E+00 0.  1.
         22    1    1    2    0    0 -0.69358232351E+03  0.37371552358E+03 -0.63141750983E+03  0.10096572704E+04  0.00000000000E+00 0.  1.
<mgrwt>
<rscale>  0 0.15956637E+04</rscale>
<asrwt>0</asrwt>
<pdfrwt beam="1">  1        2 0.29305613E+00 0.15956637E+04</pdfrwt>
<pdfrwt beam="2">  1       -2 0.51409718E-01 0.15956637E+04</pdfrwt>
<totfact> 0.25878466E+01</totfact>
</mgrwt>
</event>
<event>
 6    1  0.5040916E-004  0.2505936E+04  0.7818608E-02  0.8400874E-01
          2   -1    0    0  501    0  0.00000000000E+00  0.00000000000E+00  0.18406261348E+04  0.18406261348E+04  0.00000000000E+00 0.  1.
         -2   -1    0    0    0  501 -0.00000000000E+00 -0.00000000000E+00 -0.85293169251E+03  0.85293169251E+03  0.00000000000E+00 0. -1.
         23    2    1    2    0    0  0.11037798187E+04 -0.40095175527E+03  0.95892364101E+03  0.15188578839E+04  0.91118186929E+02 0.  0.
         13    1    3    3    0    0  0.56308099162E+03 -0.24816483654E+03  0.47574542277E+03  0.77780440761E+03  0.00000000000E+00 0. -1.
        -13    1    3    3    0    0  0.54069882703E+03 -0.15278691873E+03  0.48317821824E+03  0.74105347626E+03  0.00000000000E+00 0.  1.
         22    1    1    2    0    0 -0.11037798187E+04  0.40095175527E+03  0.28770801279E+02  0.11746999434E+04  0.00000000000E+00 0.  1.
<mgrwt>
<rscale>  0 0.25059356E+04</rscale>
<asrwt>0</asrwt>
<pdfrwt beam="1">  1        2 0.28317325E+00 0.25059356E+04</pdfrwt>
<pdfrwt beam="2">  1       -2 0.13122026E+00 0.25059356E+04</pdfrwt>
<totfact> 0.30976248E+00</totfact>
</mgrwt>
</event>
<event>
 6    1  0.5040916E-004  0.3965073E+04  0.7818608E-02  0.8011630E-01
          2   -1    0    0  501    0  0.00000000000E+00  0.00000000000E+00  0.24230316894E+04  0.24230316894E+04  0.00000000000E+00 0.  1.
         -2   -1    0    0    0  501 -0.00000000000E+00 -0.00000000000E+00 -0.16221211292E+04  0.16221211292E+04  0.00000000000E+00 0. -1.
         23    2    1    2    0    0 -0.66056661512E+03 -0.40010619813E+03 -0.14613632711E+04  0.16546892420E+04  0.77334691510E+02 0.  0.
         13    1    3    3    0    0 -0.32874909354E+03 -0.23178040760E+03 -0.70210393653E+03  0.80916503975E+03  0.00000000000E+00 0.  1.
        -13    1    3    3    0    0 -0.33181752158E+03 -0.16832579052E+03 -0.75925933460E+03  0.84552420223E+03  0.00000000000E+00 0. -1.
         22    1    1    2    0    0  0.66056661512E+03  0.40010619813E+03  0.22622738314E+04  0.23904635766E+04  0.00000000000E+00 0.  1.
<mgrwt>
<rscale>  0 0.39650730E+04</rscale>
<asrwt>0</asrwt>
<pdfrwt beam="1">  1        2 0.37277411E+00 0.39650730E+04</pdfrwt>
<pdfrwt beam="2">  1       -2 0.24955710E+00 0.39650730E+04</pdfrwt>
<totfact> 0.19728574E-01</totfact>
</mgrwt>
</event>
<event>
 6    1  0.5040916E-004  0.5322091E+03  0.7818608E-02  0.1005698E+00
         -2   -1    0    0    0  501 -0.00000000000E+00  0.00000000000E+00  0.11322830071E+03  0.11322830071E+03  0.00000000000E+00 0. -1.
          2   -1    0    0  501    0  0.00000000000E+00 -0.00000000000E+00 -0.62538804143E+03  0.62538804143E+03  0.00000000000E+00 0.  1.
         23    2    1    2    0    0  0.11126211474E+03  0.13581833124E+03 -0.52706307483E+03  0.56241195331E+03  0.87668940297E+02 0.  0.
         11    1    3    3    0    0  0.32107545915E+02  0.26654463162E+02 -0.43002678521E+02  0.59921492565E+02  0.00000000000E+00 0. -1.
        -11    1    3    3    0    0  0.79154568822E+02  0.10916386808E+03 -0.48406039631E+03  0.50249046074E+03  0.00000000000E+00 0.  1.
         22    1    1    2    0    0 -0.11126211474E+03 -0.13581833124E+03  0.14903334112E+02  0.17620438884E+03  0.00000000000E+00 0. -1.
<mgrwt>
<rscale>  0 0.53220908E+03</rscale>
<asrwt>0</asrwt>
<pdfrwt beam="1">  1        2 0.96213547E-01 0.53220908E+03</pdfrwt>
<pdfrwt beam="2">  1       -2 0.17419738E-01 0.53220908E+03</pdfrwt>
<totfact> 0.12819774E+03</totfact>
</mgrwt>
</event>
<event>
 6    1  0.5040916E-004  0.9991546E+03  0.7818608E-02  0.9309472E-01
          2   -1    0    0  501    0  0.00000000000E+00  0.00000000000E+00  0.10418289583E+04  0.10418289583E+04  0.00000000000E+00 0.  1.
         -2   -1    0    0    0  501 -0.00000000000E+00 -0.00000000000E+00 -0.23955707709E+03  0.23955707709E+03  0.00000000000E+00 0. -1.
         23    2    1    2    0    0 -0.17445857812E+03 -0.13374736942E+03 -0.16485712995E+03  0.28958833499E+03  0.91429624111E+02 0.  0.
         13    1    3    3    0    0 -0.81715193421E+01 -0.51167385351E+02 -0.27681465499E+02  0.58746392095E+02  0.00000000000E+00 0. -1.
        -13    1    3    3    0    0 -0.16628705877E+03 -0.82579984068E+02 -0.13717566445E+03  0.23084194290E+03  0.00000000000E+00 0.  1.
         22    1    1    2    0    0  0.17445857812E+03  0.13374736942E+03  0.96712901120E+03  0.99179770045E+03  0.00000000000E+00 0.  1.
<mgrwt>
<rscale>  0 0.99915464E+03</rscale>
<asrwt>0</asrwt>
<pdfrwt beam="1">  1        2 0.16028138E+00 0.99915464E+03</pdfrwt>
<pdfrwt beam="2">  1       -2 0.36854935E-01 0.99915464E+03</pdfrwt>
<totfact> 0.16385929E+02</totfact>
</mgrwt>
</event>
<event>
 6    1  0.5040916E-004  0.1349344E+04  0.7818608E-02  0.8991325E-01
          2   -1    0    0  501    0  0.00000000000E+00  0.00000000000E+00  0.12480169202E+04  0.12480169202E+04  0.00000000000E+00 0.  1.
         -2   -1    0    0    0  501 -0.00000000000E+00 -0.00000000000E+00 -0.36472452204E+03  0.36472452204E+03  0.00000000000E+00 0. -1.
         23    2    1    2    0    0 -0.40926090343E+03 -0.43610822842E+03  0.78183793683E+02  0.60980338882E+03  0.89791945378E+02 0.  0.
         11    1    3    3    0    0 -0.20048866599E+03 -0.22174979382E+03  0.83996541013E+02  0.31052229413E+03  0.00000000000E+00 0. -1.
        -11    1    3    3    0    0 -0.20877223744E+03 -0.21435843459E+03 -0.58127473294E+01  0.29928109469E+03  0.00000000000E+00 0.  1.
         22    1    1    2    0    0  0.40926090343E+03  0.43610822842E+03  0.80510860444E+03  0.10029380534E+04  0.00000000000E+00 0.  1.
<mgrwt>
<rscale>  0 0.13493441E+04</rscale>
<asrwt>0</asrwt>
<pdfrwt beam="1">  1        2 0.19200260E+00 0.13493441E+04</pdfrwt>
<pdfrwt beam="2">  1       -2 0.56111465E-01 0.13493441E+04</pdfrwt>
<totfact> 0.51654240E+01</totfact>
</mgrwt>
</event>
<event>
 6    1  0.5040916E-004  0.2295680E+04  0.7818608E-02  0.8479626E-01
         -2   -1    0    0    0  501 -0.00000000000E+00  0.00000000000E+00  0.94216586690E+03  0.94216586690E+03  0.00000000000E+00 0. -1.
          2   -1    0    0  501    0  0.00000000000E+00 -0.00000000000E+00 -0.13984124138E+04  0.13984124138E+04  0.00000000000E+00 0.  1.
         23    2    1    2    0    0  0.42336400499E+03 -0.83506117434E+03  0.44470753433E+03  0.10412390247E+04  0.99245503282E+02 0.  0.
         11    1    3    3    0    0  0.18067548603E+03 -0.45958291288E+03  0.21494253233E+03  0.53857253668E+03  0.00000000000E+00 0.  1.
        -11    1    3    3    0    0  0.24268851897E+03 -0.37547826147E+03  0.22976500199E+03  0.50266648805E+03  0.00000000000E+00 0. -1.
         22    1    1    2    0    0 -0.42336400499E+03  0.83506117434E+03 -0.90095408123E+03  0.12993392560E+04  0.00000000000E+00 0.  1.
<mgrwt>
<rscale>  0 0.22956798E+04</rscale>
<asrwt>0</asrwt>
<pdfrwt beam="1">  1        2 0.21514037E+00 0.22956798E+04</pdfrwt>
<pdfrwt beam="2">  1       -2 0.14494859E+00 0.22956798E+04</pdfrwt>
<totfact> 0.43141576E+00</totfact>
</mgrwt>
</event>
<event>
 6    1  0.5040916E-004  0.2819967E+04  0.7818608E-02  0.8297096E-01
         -2   -1    0    0    0  501 -0.00000000000E+00  0.00000000000E+00  0.17786985818E+04  0.17786985818E+04  0.00000000000E+00 0. -1.
          2   -1    0    0  501    0  0.00000000000E+00 -0.00000000000E+00 -0.11177014979E+04  0.11177014979E+04  0.00000000000E+00 0.  1.
         23    2    1    2    0    0 -0.82049765593E+03  0.80312535217E+03 -0.50708447048E+03  0.12585230232E+04  0.92297373371E+02 0.  0.
         11    1    3    3    0    0 -0.34042270536E+03  0.29037165592E+03 -0.23354775368E+03  0.50472553941E+03  0.00000000000E+00 0. -1.
        -11    1    3    3    0    0 -0.48007495057E+03  0.51275369625E+03 -0.27353671680E+03  0.75379748382E+03  0.00000000000E+00 0.  1.
         22    1    1    2    0    0  0.82049765593E+03 -0.80312535217E+03  0.11680815543E+04  0.16378770565E+04  0.00000000000E+00 0. -1.
<mgrwt>
<rscale>  0 0.28199674E+04</rscale>
<asrwt>0</asrwt>
<pdfrwt beam="1">  1        2 0.17195408E+00 0.28199674E+04</pdfrwt>
<pdfrwt beam="2">  1       -2 0.27364593E+00 0.28199674E+04</pdfrwt>
<totfact> 0.84983170E-01</totfact>
</mgrwt>
</event>
<event>
 6    1  0.5040916E-004  0.2535537E+04  0.7818608E-02  0.8390434E-01
          1   -1    0    0  501    0  0.00000000000E+00  0.00000000000E+00  0.22184866309E+04  0.22184866309E+04  0.00000000000E+00 0.  1.
         -1   -1    0    0    0  501 -0.00000000000E+00 -0.00000000000E+00 -0.72447454776E+03  0.72447454776E+03  0.00000000000E+00 0. -1.
         23    2    1    2    0    0 -0.49513517428E+03  0.97984649602E+03  0.15795522337E+02  0.11016621271E+04  0.90288134346E+02 0.  0.
         13    1    3    3    0    0 -0.26890495617E+03  0.57166069593E+03 -0.31848451080E+02  0.63255051226E+03  0.00000000000E+00 0.  1.
        -13    1    3    3    0    0 -0.22623021811E+03  0.40818580009E+03  0.47643973418E+02  0.46911161484E+03  0.00000000000E+00 0. -1.
         22    1    1    2    0    0  0.49513517428E+03 -0.97984649602E+03  0.14782165608E+04  0.18412990515E+04  0.00000000000E+00 0.  1.
<mgrwt>
<rscale>  0 0.25355371E+04</rscale>
<asrwt>0</asrwt>
<pdfrwt beam="1">  1        1 0.34130563E+00 0.25355371E+04</pdfrwt>
<pdfrwt beam="2">  1       -1 0.11145762E+00 0.25355371E+04</pdfrwt>
<totfact> 0.13859837E+00</totfact>
</mgrwt>
</event>
<event>
 6    1  0.5040916E-004  0.1005689E+04  0.7818608E-02  0.9302327E-01
         -2   -1    0    0    0  501 -0.00000000000E+00  0.00000000000E+00  0.18708003110E+03  0.18708003110E+03  0.00000000000E+00 0. -1.
          2   -1    0    0  501    0  0.00000000000E+00 -0.00000000000E+00 -0.13515741354E+04  0.13515741354E+04  0.00000000000E+00 0.  1.
         23    2    1    2    0    0  0.38076297246E+03 -0.23575356562E+03 -0.25239835186E+03  0.52254450386E+03  0.93742442872E+02 0.  0.
         13    1    3    3    0    0  0.17837381198E+03 -0.59734828430E+02 -0.12286765040E+03  0.22468183292E+03  0.00000000000E+00 0. -1.
        -13    1    3    3    0    0  0.20238916047E+03 -0.17601873719E+03 -0.12953070145E+03  0.29786267094E+03  0.00000000000E+00 0.  1.
         22    1    1    2    0    0 -0.38076297246E+03  0.23575356562E+03 -0.91209575245E+03  0.10161096627E+04  0.00000000000E+00 0.  1.
<mgrwt>
<rscale>  0 0.10056889E+04</rscale>
<asrwt>0</asrwt>
<pdfrwt beam="1">  1        2 0.20793448E+00 0.10056889E+04</pdfrwt>
<pdfrwt beam="2">  1       -2 0.28781543E-01 0.10056889E+04</pdfrwt>
<totfact> 0.17037377E+02</totfact>
</mgrwt>
</event>
<event>
 6    1  0.5040916E-004  0.6861710E+03  0.7818608E-02  0.9741178E-01
         -2   -1    0    0    0  501 -0.00000000000E+00  0.00000000000E+00  0.22310369314E+03  0.22310369314E+03  0.00000000000E+00 0. -1.
          2   -1    0    0  501    0  0.00000000000E+00 -0.00000000000E+00 -0.52759176417E+03  0.52759176417E+03  0.00000000000E+00 0.  1.
         23    2    1    2    0    0 -0.17979409633E+03 -0.26231814708E+03 -0.31943460378E+02  0.33186698149E+03  0.89322905111E+02 0.  0.
         13    1    3    3    0    0 -0.16222133819E+03 -0.18555869117E+03 -0.49003459135E+02  0.25129490532E+03  0.00000000000E+00 0. -1.
        -13    1    3    3    0    0 -0.17572758141E+02 -0.76759455910E+02  0.17059998757E+02  0.80572076167E+02  0.00000000000E+00 0.  1.
         22    1    1    2    0    0  0.17979409633E+03  0.26231814708E+03 -0.27254461065E+03  0.41882847582E+03  0.00000000000E+00 0.  1.
<mgrwt>
<rscale>  0 0.68617103E+03</rscale>
<asrwt>0</asrwt>
<pdfrwt beam="1">  1        2 0.81167964E-01 0.68617103E+03</pdfrwt>
<pdfrwt beam="2">  1       -2 0.34323645E-01 0.68617103E+03</pdfrwt>
<totfact> 0.46305729E+02</totfact>
</mgrwt>
</event>
<event>
 6    1  0.5040916E-004  0.2479115E+04  0.7818608E-02  0.8410464E-01
          2   -1    0    0  501    0  0.00000000000E+00  0.00000000000E+00  0.16770319089E+04  0.16770319089E+04  0.00000000000E+00 0.  1.
         -2   -1    0    0    0  501 -0.00000000000E+00 -0.00000000000E+00 -0.91620378972E+03  0.91620378972E+03  0.00000000000E+00 0. -1.
         23    2    1    2    0    0  0.78877471885E+03 -0.27075099887E+03 -0.57599830179E+03  0.10176162838E+04  0.91088950624E+02 0.  0.
         11    1    3    3    0    0  0.50439754674E+03 -0.12789234412E+03 -0.34400405302E+03  0.62378852613E+03  0.00000000000E+00 0.  1.
        -11    1    3    3    0    0  0.28437717212E+03 -0.14285865475E+03 -0.23199424877E+03  0.39382775768E+03  0.00000000000E+00 0. -1.
         22    1    1    2    0    0 -0.78877471885E+03  0.27075099887E+03  0.13368264210E+04  0.15756194148E+04  0.00000000000E+00 0.  1.
<mgrwt>
<rscale>  0 0.24791152E+04</rscale>
<asrwt>0</asrwt>
<pdfrwt beam="1">  1        2 0.25800491E+00 0.24791152E+04</pdfrwt>
<pdfrwt beam="2">  1       -2 0.14095443E+00 0.24791152E+04</pdfrwt>
<totfact> 0.31845715E+00</totfact>
</mgrwt>
</event>
<event>
 6    1  0.5040916E-004  0.2846545E+04  0.7818608E-02  0.8288962E-01
          2   -1    0    0  501    0  0.00000000000E+00  0.00000000000E+00  0.29323423688E+04  0.29323423688E+04  0.00000000000E+00 0.  1.
         -2   -1    0    0    0  501 -0.00000000000E+00 -0.00000000000E+00 -0.69081446384E+03  0.69081446384E+03  0.00000000000E+00 0. -1.
         23    2    1    2    0    0 -0.85001708000E+02 -0.14148893167E+04  0.12671914363E+04  0.19031368842E+04  0.83778248305E+02 0.  0.
         11    1    3    3    0    0  0.55385184556E+01 -0.59466629985E+03  0.53532092604E+03  0.80014197316E+03  0.00000000000E+00 0. -1.
        -11    1    3    3    0    0 -0.90540226455E+02 -0.82022301685E+03  0.73187051025E+03  0.11029949110E+04  0.00000000000E+00 0.  1.
         22    1    1    2    0    0  0.85001708000E+02  0.14148893167E+04  0.97433646866E+03  0.17200199484E+04  0.00000000000E+00 0. -1.
<mgrwt>
<rscale>  0 0.28465449E+04</rscale>
<asrwt>0</asrwt>
<pdfrwt beam="1">  1        2 0.45112959E+00 0.28465449E+04</pdfrwt>
<pdfrwt beam="2">  1       -2 0.10627915E+00 0.28465449E+04</pdfrwt>
<totfact> 0.11869911E+00</totfact>
</mgrwt>
</event>
<event>
 6    1  0.5040916E-004  0.7292461E+04  0.7818608E-02  0.7548003E-01
         -2   -1    0    0    0  501 -0.00000000000E+00  0.00000000000E+00  0.45217030023E+04  0.45217030023E+04  0.00000000000E+00 0. -1.
          2   -1    0    0  501    0  0.00000000000E+00 -0.00000000000E+00 -0.29402633364E+04  0.29402633364E+04  0.00000000000E+00 0.  1.
         23    2    1    2    0    0 -0.12255833710E+04  0.31850062840E+04 -0.52139729504E+03  0.34534450512E+04  0.90044178654E+02 0.  0.
         11    1    3    3    0    0 -0.24783165457E+03  0.74428830841E+03 -0.13175080370E+03  0.79545200315E+03  0.00000000000E+00 0. -1.
        -11    1    3    3    0    0 -0.97775171643E+03  0.24407179756E+04 -0.38964649134E+03  0.26579930480E+04  0.00000000000E+00 0.  1.
         22    1    1    2    0    0  0.12255833710E+04 -0.31850062840E+04  0.21028369609E+04  0.40085212875E+04  0.00000000000E+00 0.  1.
<mgrwt>
<rscale>  0 0.72924612E+04</rscale>
<asrwt>0</asrwt>
<pdfrwt beam="1">  1        2 0.45234820E+00 0.72924612E+04</pdfrwt>
<pdfrwt beam="2">  1       -2 0.69564662E+00 0.72924612E+04</pdfrwt>
<totfact> 0.28055655E-04</totfact>
</mgrwt>
</event>
<event>
 6    1  0.5040916E-004  0.1455305E+04  0.7818608E-02  0.8914731E-01
         -2   -1    0    0    0  501 -0.00000000000E+00  0.00000000000E+00  0.69554649752E+03  0.69554649752E+03  0.00000000000E+00 0. -1.
          2   -1    0    0  501    0  0.00000000000E+00 -0.00000000000E+00 -0.76124052531E+03  0.76124052531E+03  0.00000000000E+00 0.  1.
         23    2    1    2    0    0 -0.32940501713E+03 -0.33057914106E+03 -0.58802251928E+03  0.75634624244E+03  0.92189595120E+02 0.  0.
         13    1    3    3    0    0 -0.14582770825E+03 -0.14574809633E+03 -0.33387495563E+03  0.39240376409E+03  0.00000000000E+00 0.  1.
        -13    1    3    3    0    0 -0.18357730888E+03 -0.18483104474E+03 -0.25414756366E+03  0.36394247835E+03  0.00000000000E+00 0. -1.
         22    1    1    2    0    0  0.32940501713E+03  0.33057914106E+03  0.52232849150E+03  0.70044078040E+03  0.00000000000E+00 0. -1.
<mgrwt>
<rscale>  0 0.14553050E+04</rscale>
<asrwt>0</asrwt>
<pdfrwt beam="1">  1        2 0.11711393E+00 0.14553050E+04</pdfrwt>
<pdfrwt beam="2">  1       -2 0.10700715E+00 0.14553050E+04</pdfrwt>
<totfact> 0.25044407E+01</totfact>
</mgrwt>
</event>
<event>
 6    1  0.5040916E-004  0.2593177E+04  0.7818608E-02  0.8370522E-01
         -2   -1    0    0    0  501 -0.00000000000E+00  0.00000000000E+00  0.12034376256E+04  0.12034376256E+04  0.00000000000E+00 0. -1.
          2   -1    0    0  501    0  0.00000000000E+00 -0.00000000000E+00 -0.13969499754E+04  0.13969499754E+04  0.00000000000E+00 0.  1.
         23    2    1    2    0    0  0.33053061797E+03 -0.11121794819E+04  0.48092162508E+03  0.12583537430E+04  0.77297113294E+02 0.  0.
         11    1    3    3    0    0  0.13093714813E+03 -0.57036835924E+03  0.25424991038E+03  0.63804985613E+03  0.00000000000E+00 0.  1.
        -11    1    3    3    0    0  0.19959346984E+03 -0.54181112267E+03  0.22667171470E+03  0.62030388690E+03  0.00000000000E+00 0. -1.
         22    1    1    2    0    0 -0.33053061797E+03  0.11121794819E+04 -0.67443397492E+03  0.13420338580E+04  0.00000000000E+00 0.  1.
<mgrwt>
<rscale>  0 0.25931773E+04</rscale>
<asrwt>0</asrwt>
<pdfrwt beam="1">  1        2 0.21491538E+00 0.25931773E+04</pdfrwt>
<pdfrwt beam="2">  1       -2 0.18514425E+00 0.25931773E+04</pdfrwt>
<totfact> 0.21499109E+00</totfact>
</mgrwt>
</event>
<event>
 6    1  0.5040916E-004  0.2431188E+04  0.7818608E-02  0.8427919E-01
         -2   -1    0    0    0  501 -0.00000000000E+00  0.00000000000E+00  0.82987018127E+03  0.82987018127E+03  0.00000000000E+00 0. -1.
          2   -1    0    0  501    0  0.00000000000E+00 -0.00000000000E+00 -0.17806021155E+04  0.17806021155E+04  0.00000000000E+00 0.  1.
         23    2    1    2    0    0  0.49019029340E+02  0.36909040799E+03 -0.17165904216E+04  0.17589032643E+04  0.91800997827E+02 0.  0.
         13    1    3    3    0    0  0.92624612939E+01  0.28959787520E+03 -0.11833368605E+04  0.12182934162E+04  0.00000000000E+00 0. -1.
        -13    1    3    3    0    0  0.39756568046E+02  0.79492532789E+02 -0.53325356108E+03  0.54060984812E+03  0.00000000000E+00 0.  1.
         22    1    1    2    0    0 -0.49019029340E+02 -0.36909040799E+03  0.76585848732E+03  0.85156903250E+03  0.00000000000E+00 0. -1.
<mgrwt>
<rscale>  0 0.24311879E+04</rscale>
<asrwt>0</asrwt>
<pdfrwt beam="1">  1        2 0.27393879E+00 0.24311879E+04</pdfrwt>
<pdfrwt beam="2">  1       -2 0.12767234E+00 0.24311879E+04</pdfrwt>
<totfact> 0.36071724E+00</totfact>
</mgrwt>
</event>
<event>
 6    1  0.5040916E-004  0.1882514E+04  0.7818608E-02  0.8663609E-01
         -2   -1    0    0    0  501 -0.00000000000E+00  0.00000000000E+00  0.83732094475E+03  0.83732094475E+03  0.00000000000E+00 0. -1.
          2   -1    0    0  501    0  0.00000000000E+00 -0.00000000000E+00 -0.10580950317E+04  0.10580950317E+04  0.00000000000E+00 0.  1.
         23    2    1    2    0    0 -0.73327083243E+03 -0.58252412310E+03 -0.18105134200E+03  0.95808019663E+03  0.90097763903E+02 0.  0.
         11    1    3    3    0    0 -0.49261568203E+03 -0.43785887108E+03 -0.14654002917E+03  0.67517744431E+03  0.00000000000E+00 0. -1.
        -11    1    3    3    0    0 -0.24065515040E+03 -0.14466525201E+03 -0.34511312832E+02  0.28290275232E+03  0.00000000000E+00 0.  1.
         22    1    1    2    0    0  0.73327083243E+03  0.58252412310E+03 -0.39722744961E+02  0.93733577983E+03  0.00000000000E+00 0. -1.
<mgrwt>
<rscale>  0 0.18825144E+04</rscale>
<asrwt>0</asrwt>
<pdfrwt beam="1">  1        2 0.16278385E+00 0.18825144E+04</pdfrwt>
<pdfrwt beam="2">  1       -2 0.12881861E+00 0.18825144E+04</pdfrwt>
<totfact> 0.96445186E+00</totfact>
</mgrwt>
</event>
<event>
 6    1  0.5040916E-004  0.2578169E+04  0.7818608E-02  0.8375655E-01
         -2   -1    0    0    0  501 -0.00000000000E+00  0.00000000000E+00  0.65966862577E+03  0.65966862577E+03  0.00000000000E+00 0. -1.
          2   -1    0    0  501    0  0.00000000000E+00 -0.00000000000E+00 -0.25190503699E+04  0.25190503699E+04  0.00000000000E+00 0.  1.
         23    2    1    2    0    0  0.42217315360E+02 -0.74942618782E+03  0.35879592647E+03  0.83698158701E+03  0.91551883884E+02 0.  0.
         11    1    3    3    0    0 -0.42470327372E+01 -0.49678143978E+03  0.26834503070E+03  0.56464049775E+03  0.00000000000E+00 0.  1.
        -11    1    3    3    0    0  0.46464348097E+02 -0.25264474804E+03  0.90450895770E+02  0.27234108927E+03  0.00000000000E+00 0. -1.
         22    1    1    2    0    0 -0.42217315360E+02  0.74942618782E+03 -0.22181776706E+04  0.23417374086E+04  0.00000000000E+00 0.  1.
<mgrwt>
<rscale>  0 0.25781687E+04</rscale>
<asrwt>0</asrwt>
<pdfrwt beam="1">  1        2 0.38754620E+00 0.25781687E+04</pdfrwt>
<pdfrwt beam="2">  1       -2 0.10148748E+00 0.25781687E+04</pdfrwt>
<totfact> 0.23976737E+00</totfact>
</mgrwt>
</event>
<event>
 6    1  0.5040916E-004  0.2445021E+04  0.7818608E-02  0.8422838E-01
         -2   -1    0    0    0  501 -0.00000000000E+00  0.00000000000E+00  0.81405780254E+03  0.81405780254E+03  0.00000000000E+00 0. -1.
          2   -1    0    0  501    0  0.00000000000E+00 -0.00000000000E+00 -0.18359033544E+04  0.18359033544E+04  0.00000000000E+00 0.  1.
         23    2    1    2    0    0 -0.68838100071E+03 -0.87252760911E+03 -0.10590846730E+04  0.15379541502E+04  0.92031476870E+02 0.  0.
         11    1    3    3    0    0 -0.36705328725E+03 -0.47179380113E+03 -0.50631380147E+03  0.78337166915E+03  0.00000000000E+00 0.  1.
        -11    1    3    3    0    0 -0.32132771346E+03 -0.40073380798E+03 -0.55277087155E+03  0.75458248106E+03  0.00000000000E+00 0. -1.
         22    1    1    2    0    0  0.68838100071E+03  0.87252760911E+03  0.37239121180E+02  0.11120070067E+04  0.00000000000E+00 0. -1.
<mgrwt>
<rscale>  0 0.24450206E+04</rscale>
<asrwt>0</asrwt>
<pdfrwt beam="1">  1        2 0.28244667E+00 0.24450206E+04</pdfrwt>
<pdfrwt beam="2">  1       -2 0.12523966E+00 0.24450206E+04</pdfrwt>
<totfact> 0.35237392E+00</totfact>
</mgrwt>
</event>
<event>
 6    1  0.5040916E-004  0.1678149E+04  0.7818608E-02  0.8773926E-01
          2   -1    0    0  501    0  0.00000000000E+00  0.00000000000E+00  0.29110122245E+04  0.29110122245E+04  0.00000000000E+00 0.  1.
         -2   -1    0    0    0  501 -0.00000000000E+00 -0.00000000000E+00 -0.24185611191E+03  0.24185611191E+03  0.00000000000E+00 0. -1.
         23    2    1    2    0    0 -0.61617721707E+02  0.14904575362E+03  0.28808244167E+04  0.28867577366E+04  0.90606453890E+02 0.  0.
         11    1    3    3    0    0 -0.23738146939E+02  0.12498302210E+02  0.10919883485E+04  0.10923178386E+04  0.00000000000E+00 0. -1.
        -11    1    3    3    0    0 -0.37879574769E+02  0.13654745141E+03  0.17888360682E+04  0.17944398980E+04  0.00000000000E+00 0.  1.
         22    1    1    2    0    0  0.61617721707E+02 -0.14904575362E+03 -0.21166830420E+03  0.26611059976E+03  0.00000000000E+00 0. -1.
<mgrwt>
<rscale>  0 0.16781491E+04</rscale>
<asrwt>0</asrwt>
<pdfrwt beam="1">  1        2 0.44784801E+00 0.16781491E+04</pdfrwt>
<pdfrwt beam="2">  1       -2 0.37208635E-01 0.16781491E+04</pdfrwt>
<totfact> 0.12893323E+01</totfact>
</mgrwt>
</event>
<event>
 6    1  0.5040916E-004  0.2487249E+04  0.7818608E-02  0.8407542E-01
         -1   -1    0    0    0  501 -0.00000000000E+00  0.00000000000E+00  0.13126943967E+04  0.13126943967E+04  0.00000000000E+00 0. -1.
          1   -1    0    0  501    0  0.00000000000E+00 -0.00000000000E+00 -0.11781884401E+04  0.11781884401E+04  0.00000000000E+00 0.  1.
         23    2    1    2    0    0 -0.24677457864E+03  0.10637416700E+04  0.65976655701E+03  0.12791309102E+04  0.91869160432E+02 0.  0.
         11    1    3    3    0    0 -0.16210435400E+03  0.63920437975E+03  0.44791078794E+03  0.79717258773E+03  0.00000000000E+00 0. -1.
        -11    1    3    3    0    0 -0.84670224642E+02  0.42453729024E+03  0.21185576908E+03  0.48195832251E+03  0.00000000000E+00 0.  1.
         22    1    1    2    0    0  0.24677457864E+03 -0.10637416700E+04 -0.52526060044E+03  0.12117519265E+04  0.00000000000E+00 0.  1.
<mgrwt>
<rscale>  0 0.24872486E+04</rscale>
<asrwt>0</asrwt>
<pdfrwt beam="1">  1        1 0.18125976E+00 0.24872486E+04</pdfrwt>
<pdfrwt beam="2">  1       -1 0.20195298E+00 0.24872486E+04</pdfrwt>
<totfact> 0.14388165E+00</totfact>
</mgrwt>
</event>
<event>
 6    1  0.5040916E-004  0.3320967E+04  0.7818608E-02  0.8157581E-01
          2   -1    0    0  501    0  0.00000000000E+00  0.00000000000E+00  0.15202583940E+04  0.15202583940E+04  0.00000000000E+00 0.  1.
         -2   -1    0    0    0  501 -0.00000000000E+00 -0.00000000000E+00 -0.18136421331E+04  0.18136421331E+04  0.00000000000E+00 0. -1.
         23    2    1    2    0    0  0.86665350612E+03  0.11688256572E+04 -0.94727010186E+03  0.17386547491E+04  0.91421956062E+02 0.  0.
         11    1    3    3    0    0  0.33210446302E+03  0.52120586089E+03 -0.41545007685E+03  0.74467958891E+03  0.00000000000E+00 0.  1.
        -11    1    3    3    0    0  0.53454904310E+03  0.64761979633E+03 -0.53182002501E+03  0.99397516020E+03  0.00000000000E+00 0. -1.
         22    1    1    2    0    0 -0.86665350612E+03 -0.11688256572E+04  0.65388636278E+03  0.15952457780E+04  0.00000000000E+00 0.  1.
<mgrwt>
<rscale>  0 0.33209665E+04</rscale>
<asrwt>0</asrwt>
<pdfrwt beam="1">  1        2 0.23388591E+00 0.33209665E+04</pdfrwt>
<pdfrwt beam="2">  1       -2 0.27902187E+00 0.33209665E+04</pdfrwt>
<totfact> 0.44011897E-01</totfact>
</mgrwt>
</event>
<event>
 6    1  0.5040916E-004  0.2214693E+04  0.7818608E-02  0.8512337E-01
          1   -1    0    0  501    0  0.00000000000E+00  0.00000000000E+00  0.91480093546E+03  0.91480093546E+03  0.00000000000E+00 0. -1.
         -1   -1    0    0    0  501 -0.00000000000E+00 -0.00000000000E+00 -0.13404188922E+04  0.13404188922E+04  0.00000000000E+00 0.  1.
         23    2    1    2    0    0 -0.28739745464E+03  0.88279763806E+03  0.39798395347E+03  0.10141521127E+04  0.90467196718E+02 0.  0.
         11    1    3    3    0    0 -0.13961813723E+03  0.56771954449E+03  0.24065847483E+03  0.63223034327E+03  0.00000000000E+00 0.  1.
        -11    1    3    3    0    0 -0.14777931741E+03  0.31507809357E+03  0.15732547864E+03  0.38192176939E+03  0.00000000000E+00 0. -1.
         22    1    1    2    0    0  0.28739745464E+03 -0.88279763806E+03 -0.82360191021E+03  0.12410677150E+04  0.00000000000E+00 0. -1.
<mgrwt>
<rscale>  0 0.22146932E+04</rscale>
<asrwt>0</asrwt>
<pdfrwt beam="1">  1        1 0.14073861E+00 0.22146932E+04</pdfrwt>
<pdfrwt beam="2">  1       -1 0.20621829E+00 0.22146932E+04</pdfrwt>
<totfact> 0.21979196E+00</totfact>
</mgrwt>
</event>
<event>
 6    1  0.5040916E-004  0.2521422E+04  0.7818608E-02  0.8395393E-01
         -2   -1    0    0    0  501 -0.00000000000E+00  0.00000000000E+00  0.50665491637E+03  0.50665491637E+03  0.00000000000E+00 0. -1.
          2   -1    0    0  501    0  0.00000000000E+00 -0.00000000000E+00 -0.31370314425E+04  0.31370314425E+04  0.00000000000E+00 0.  1.
         23    2    1    2    0    0 -0.74569598023E+03 -0.10143886809E+04 -0.13167226667E+04  0.18241442864E+04  0.93257202635E+02 0.  0.
         13    1    3    3    0    0 -0.24762012318E+03 -0.29435701406E+03 -0.45313472105E+03  0.59438443161E+03  0.00000000000E+00 0. -1.
        -13    1    3    3    0    0 -0.49807585706E+03 -0.72003166687E+03 -0.86358794563E+03  0.12297598548E+04  0.00000000000E+00 0.  1.
         22    1    1    2    0    0  0.74569598023E+03  0.10143886809E+04 -0.13136538594E+04  0.18195420724E+04  0.00000000000E+00 0. -1.
<mgrwt>
<rscale>  0 0.25214221E+04</rscale>
<asrwt>0</asrwt>
<pdfrwt beam="1">  1        2 0.48262022E+00 0.25214221E+04</pdfrwt>
<pdfrwt beam="2">  1       -2 0.77946911E-01 0.25214221E+04</pdfrwt>
<totfact> 0.18592559E+00</totfact>
</mgrwt>
</event>
<event>
 6    1  0.5040916E-004  0.2539276E+04  0.7818608E-02  0.8389125E-01
          2   -1    0    0  501    0  0.00000000000E+00  0.00000000000E+00  0.12195622793E+04  0.12195622793E+04  0.00000000000E+00 0.  1.
         -2   -1    0    0    0  501 -0.00000000000E+00 -0.00000000000E+00 -0.13217703016E+04  0.13217703016E+04  0.00000000000E+00 0. -1.
         23    2    1    2    0    0 -0.28340977736E+03  0.87479463057E+03 -0.92491689288E+03  0.13074619907E+04  0.91645244880E+02 0.  0.
         13    1    3    3    0    0 -0.97217791575E+02  0.28489710438E+03 -0.36483782900E+03  0.47299503227E+03  0.00000000000E+00 0. -1.
        -13    1    3    3    0    0 -0.18619198578E+03  0.58989752619E+03 -0.56007906388E+03  0.83446695846E+03  0.00000000000E+00 0.  1.
         22    1    1    2    0    0  0.28340977736E+03 -0.87479463057E+03  0.82270887063E+03  0.12338705902E+04  0.00000000000E+00 0.  1.
<mgrwt>
<rscale>  0 0.25392764E+04</rscale>
<asrwt>0</asrwt>
<pdfrwt beam="1">  1        2 0.18762497E+00 0.25392764E+04</pdfrwt>
<pdfrwt beam="2">  1       -2 0.20334928E+00 0.25392764E+04</pdfrwt>
<totfact> 0.20727101E+00</totfact>
</mgrwt>
</event>
<event>
 6    1  0.5040916E-004  0.9074828E+03  0.7818608E-02  0.9416276E-01
          2   -1    0    0  501    0  0.00000000000E+00  0.00000000000E+00  0.81347379830E+03  0.81347379830E+03  0.00000000000E+00 0.  1.
         -2   -1    0    0    0  501 -0.00000000000E+00 -0.00000000000E+00 -0.25308896176E+03  0.25308896176E+03  0.00000000000E+00 0. -1.
         23    2    1    2    0    0 -0.37861931537E+03 -0.88810656500E+02  0.54690689639E+03  0.67743350963E+03  0.92569368448E+02 0.  0.
         11    1    3    3    0    0 -0.25849329528E+03 -0.95490371242E+02  0.33522723596E+03  0.43395217990E+03  0.00000000000E+00 0.  1.
        -11    1    3    3    0    0 -0.12012602008E+03  0.66797147421E+01  0.21167966042E+03  0.24348132973E+03  0.00000000000E+00 0. -1.
         22    1    1    2    0    0  0.37861931537E+03  0.88810656500E+02  0.13477940150E+02  0.38912925044E+03  0.00000000000E+00 0. -1.
<mgrwt>
<rscale>  0 0.90748276E+03</rscale>
<asrwt>0</asrwt>
<pdfrwt beam="1">  1        2 0.12514981E+00 0.90748276E+03</pdfrwt>
<pdfrwt beam="2">  1       -2 0.38936764E-01 0.90748276E+03</pdfrwt>
<totfact> 0.21038173E+02</totfact>
</mgrwt>
</event>
<event>
 6    1  0.5040916E-004  0.2447132E+04  0.7818608E-02  0.8422066E-01
          4   -1    0    0  501    0  0.00000000000E+00  0.00000000000E+00  0.10873897643E+04  0.10873897643E+04  0.00000000000E+00 0.  1.
         -4   -1    0    0    0  501 -0.00000000000E+00 -0.00000000000E+00 -0.13767957964E+04  0.13767957964E+04  0.00000000000E+00 0. -1.
         23    2    1    2    0    0 -0.62776611930E+03  0.75433170240E+03  0.58810573359E+03  0.11477002715E+04  0.90779631566E+02 0.  0.
         13    1    3    3    0    0 -0.15766650671E+03  0.25091144158E+03  0.19287886758E+03  0.35357818995E+03  0.00000000000E+00 0. -1.
        -13    1    3    3    0    0 -0.47009961259E+03  0.50342026082E+03  0.39522686600E+03  0.79412208153E+03  0.00000000000E+00 0.  1.
         22    1    1    2    0    0  0.62776611930E+03 -0.75433170240E+03 -0.87751176574E+03  0.13164852892E+04  0.00000000000E+00 0. -1.
<mgrwt>
<rscale>  0 0.24471319E+04</rscale>
<asrwt>0</asrwt>
<pdfrwt beam="1">  1        4 0.16729073E+00 0.24471319E+04</pdfrwt>
<pdfrwt beam="2">  1       -4 0.21181474E+00 0.24471319E+04</pdfrwt>
<totfact> 0.43544071E-02</totfact>
</mgrwt>
</event>
<event>
 6    1  0.5040916E-004  0.3252626E+04  0.7818608E-02  0.8175055E-01
         -2   -1    0    0    0  501 -0.00000000000E+00  0.00000000000E+00  0.13214097972E+04  0.13214097972E+04  0.00000000000E+00 0. -1.
          2   -1    0    0  501    0  0.00000000000E+00 -0.00000000000E+00 -0.20015695942E+04  0.20015695942E+04  0.00000000000E+00 0.  1.
         23    2    1    2    0    0  0.12791944722E+04  0.18871562125E+03 -0.13458358191E+04  0.18686490817E+04  0.92861483814E+02 0.  0.
         11    1    3    3    0    0  0.76382571424E+03  0.91396921175E+02 -0.74143934864E+03  0.10684172531E+04  0.00000000000E+00 0. -1.
        -11    1    3    3    0    0  0.51536875795E+03  0.97318700076E+02 -0.60439647046E+03  0.80023182863E+03  0.00000000000E+00 0.  1.
         22    1    1    2    0    0 -0.12791944722E+04 -0.18871562125E+03  0.66567602213E+03  0.14543303097E+04  0.00000000000E+00 0. -1.
<mgrwt>
<rscale>  0 0.32526258E+04</rscale>
<asrwt>0</asrwt>
<pdfrwt beam="1">  1        2 0.30793378E+00 0.32526258E+04</pdfrwt>
<pdfrwt beam="2">  1       -2 0.20329382E+00 0.32526258E+04</pdfrwt>
<totfact> 0.70756528E-01</totfact>
</mgrwt>
</event>
<event>
 6    1  0.5040916E-004  0.6073573E+04  0.7818608E-02  0.7681346E-01
         -2   -1    0    0    0  501 -0.00000000000E+00  0.00000000000E+00  0.57464022155E+04  0.57464022155E+04  0.00000000000E+00 0. -1.
          2   -1    0    0  501    0  0.00000000000E+00 -0.00000000000E+00 -0.16048426289E+04  0.16048426289E+04  0.00000000000E+00 0.  1.
         23    2    1    2    0    0  0.26471846195E+03  0.29395286628E+04  0.12091223335E+04  0.31907048713E+04  0.87841535828E+02 0.  0.
         11    1    3    3    0    0  0.40288300735E+02  0.89085660587E+03  0.37236291935E+03  0.96638645639E+03  0.00000000000E+00 0.  1.
        -11    1    3    3    0    0  0.22443016121E+03  0.20486720569E+04  0.83675941411E+03  0.22243184149E+04  0.00000000000E+00 0. -1.
         22    1    1    2    0    0 -0.26471846195E+03 -0.29395286628E+04  0.29324372532E+04  0.41605399730E+04  0.00000000000E+00 0. -1.
<mgrwt>
<rscale>  0 0.60735727E+04</rscale>
<asrwt>0</asrwt>
<pdfrwt beam="1">  1        2 0.24689887E+00 0.60735727E+04</pdfrwt>
<pdfrwt beam="2">  1       -2 0.88406187E+00 0.60735727E+04</pdfrwt>
<totfact> 0.10468109E-04</totfact>
</mgrwt>
</event>
<event>
 6    1  0.5040916E-004  0.1580225E+04  0.7818608E-02  0.8832790E-01
         -2   -1    0    0    0  501 -0.00000000000E+00  0.00000000000E+00  0.15492102926E+03  0.15492102926E+03  0.00000000000E+00 0. -1.
          2   -1    0    0  501    0  0.00000000000E+00 -0.00000000000E+00 -0.40296501665E+04  0.40296501665E+04  0.00000000000E+00 0.  1.
         23    2    1    2    0    0 -0.41493588602E+03  0.66866344841E+03 -0.18673029879E+04  0.20284073936E+04  0.91288054897E+02 0.  0.
         11    1    3    3    0    0 -0.98942067089E+02  0.13154518293E+03 -0.30876004977E+03  0.34989489297E+03  0.00000000000E+00 0. -1.
        -11    1    3    3    0    0 -0.31599381894E+03  0.53711826548E+03 -0.15585429382E+04  0.16785125006E+04  0.00000000000E+00 0.  1.
         22    1    1    2    0    0  0.41493588602E+03 -0.66866344841E+03 -0.20074261493E+04  0.21561638022E+04  0.00000000000E+00 0. -1.
<mgrwt>
<rscale>  0 0.15802247E+04</rscale>
<asrwt>0</asrwt>
<pdfrwt beam="1">  1        2 0.61994604E+00 0.15802247E+04</pdfrwt>
<pdfrwt beam="2">  1       -2 0.23834010E-01 0.15802247E+04</pdfrwt>
<totfact> 0.49666149E+00</totfact>
</mgrwt>
</event>
<event>
 6    1  0.5040916E-004  0.4948956E+04  0.7818608E-02  0.7836430E-01
          2   -1    0    0  501    0  0.00000000000E+00  0.00000000000E+00  0.30621538892E+04  0.30621538892E+04  0.00000000000E+00 0.  1.
         -2   -1    0    0    0  501 -0.00000000000E+00 -0.00000000000E+00 -0.19995868021E+04  0.19995868021E+04  0.00000000000E+00 0. -1.
         23    2    1    2    0    0 -0.19350645106E+04  0.76854804145E+03  0.18974727401E+04  0.28184823019E+04  0.91098490103E+02 0.  0.
         11    1    3    3    0    0 -0.64076376355E+03  0.24311598958E+03  0.68121348710E+03  0.96629984998E+03  0.00000000000E+00 0.  1.
        -11    1    3    3    0    0 -0.12943007470E+04  0.52543205187E+03  0.12162592530E+04  0.18521824519E+04  0.00000000000E+00 0. -1.
         22    1    1    2    0    0  0.19350645106E+04 -0.76854804145E+03 -0.83490565300E+03  0.22432583894E+04  0.00000000000E+00 0. -1.
<mgrwt>
<rscale>  0 0.49489565E+04</rscale>
<asrwt>0</asrwt>
<pdfrwt beam="1">  1        2 0.47110060E+00 0.49489565E+04</pdfrwt>
<pdfrwt beam="2">  1       -2 0.30762874E+00 0.49489565E+04</pdfrwt>
<totfact> 0.33163009E-02</totfact>
</mgrwt>
</event>
<event>
 6    1  0.5040916E-004  0.4314291E+04  0.7818608E-02  0.7943981E-01
          2   -1    0    0  501    0  0.00000000000E+00  0.00000000000E+00  0.40616550995E+04  0.40616550995E+04  0.00000000000E+00 0.  1.
         -2   -1    0    0    0  501 -0.00000000000E+00 -0.00000000000E+00 -0.11456601621E+04  0.11456601621E+04  0.00000000000E+00 0. -1.
         23    2    1    2    0    0 -0.82491441070E+03 -0.41611604991E+03  0.38101386813E+04  0.39215744685E+04  0.89180654381E+02 0.  0.
         13    1    3    3    0    0 -0.52308482018E+03 -0.28718096641E+03  0.22968275330E+04  0.23730797190E+04  0.00000000000E+00 0. -1.
        -13    1    3    3    0    0 -0.30182959051E+03 -0.12893508350E+03  0.15133111484E+04  0.15484947495E+04  0.00000000000E+00 0.  1.
         22    1    1    2    0    0  0.82491441070E+03  0.41611604991E+03 -0.89414374393E+03  0.12857407930E+04  0.00000000000E+00 0. -1.
<mgrwt>
<rscale>  0 0.43142909E+04</rscale>
<asrwt>0</asrwt>
<pdfrwt beam="1">  1        2 0.62487001E+00 0.43142909E+04</pdfrwt>
<pdfrwt beam="2">  1       -2 0.17625541E+00 0.43142909E+04</pdfrwt>
<totfact> 0.44907172E-02</totfact>
</mgrwt>
</event>
<event>
 6    1  0.5040916E-004  0.2006978E+04  0.7818608E-02  0.8603365E-01
          2   -1    0    0  501    0  0.00000000000E+00  0.00000000000E+00  0.68256231301E+03  0.68256231301E+03  0.00000000000E+00 0.  1.
         -2   -1    0    0    0  501 -0.00000000000E+00 -0.00000000000E+00 -0.14753084210E+04  0.14753084210E+04  0.00000000000E+00 0. -1.
         23    2    1    2    0    0  0.31399263568E+02  0.99541034335E+03 -0.28306705102E+03  0.10391212506E+04  0.88421449792E+02 0.  0.
         11    1    3    3    0    0  0.14100297399E+02  0.32515611300E+03 -0.49942696736E+02  0.32927130024E+03  0.00000000000E+00 0. -1.
        -11    1    3    3    0    0  0.17298966170E+02  0.67025423035E+03 -0.23312435428E+03  0.70984995040E+03  0.00000000000E+00 0.  1.
         22    1    1    2    0    0 -0.31399263568E+02 -0.99541034335E+03 -0.50967905695E+03  0.11187494833E+04  0.00000000000E+00 0.  1.
<mgrwt>
<rscale>  0 0.20069778E+04</rscale>
<asrwt>0</asrwt>
<pdfrwt beam="1">  1        2 0.10500959E+00 0.20069778E+04</pdfrwt>
<pdfrwt beam="2">  1       -2 0.22697052E+00 0.20069778E+04</pdfrwt>
<totfact> 0.35065502E+00</totfact>
</mgrwt>
</event>
<event>
 6    1  0.5040916E-004  0.4412809E+04  0.7818608E-02  0.7926082E-01
         -2   -1    0    0    0  501 -0.00000000000E+00  0.00000000000E+00  0.16760707545E+04  0.16760707545E+04  0.00000000000E+00 0. -1.
          2   -1    0    0  501    0  0.00000000000E+00 -0.00000000000E+00 -0.29045435556E+04  0.29045435556E+04  0.00000000000E+00 0.  1.
         23    2    1    2    0    0 -0.10818392127E+04 -0.19116214031E+04 -0.82208634324E+03  0.23468232671E+04  0.84148799833E+02 0.  0.
         11    1    3    3    0    0 -0.10110118202E+04 -0.18239400847E+04 -0.78136050502E+03  0.22269770030E+04  0.00000000000E+00 0. -1.
        -11    1    3    3    0    0 -0.70827392486E+02 -0.87681318360E+02 -0.40725838214E+02  0.11984626408E+03  0.00000000000E+00 0.  1.
         22    1    1    2    0    0  0.10818392127E+04  0.19116214031E+04 -0.40638645785E+03  0.22337910430E+04  0.00000000000E+00 0. -1.
<mgrwt>
<rscale>  0 0.44128089E+04</rscale>
<asrwt>0</asrwt>
<pdfrwt beam="1">  1        2 0.44685285E+00 0.44128089E+04</pdfrwt>
<pdfrwt beam="2">  1       -2 0.25785704E+00 0.44128089E+04</pdfrwt>
<totfact> 0.87556713E-02</totfact>
</mgrwt>
</event>
<event>
 6    1  0.5040916E-004  0.2694629E+04  0.7818608E-02  0.8336750E-01
          2   -1    0    0  501    0  0.00000000000E+00  0.00000000000E+00  0.13051458662E+04  0.13051458662E+04  0.00000000000E+00 0. -1.
         -2   -1    0    0    0  501 -0.00000000000E+00 -0.00000000000E+00 -0.13908452328E+04  0.13908452328E+04  0.00000000000E+00 0.  1.
         23    2    1    2    0    0 -0.19145766164E+03 -0.94844617812E+03  0.89307924816E+03  0.13196867120E+04  0.88183248245E+02 0.  0.
         13    1    3    3    0    0 -0.13245848664E+03 -0.47576391503E+03  0.41944191536E+03  0.64794141239E+03  0.00000000000E+00 0. -1.
        -13    1    3    3    0    0 -0.58999175003E+02 -0.47268226308E+03  0.47363733280E+03  0.67174529958E+03  0.00000000000E+00 0.  1.
         22    1    1    2    0    0  0.19145766164E+03  0.94844617812E+03 -0.97877861473E+03  0.13763043870E+04  0.00000000000E+00 0.  1.
<mgrwt>
<rscale>  0 0.26946287E+04</rscale>
<asrwt>0</asrwt>
<pdfrwt beam="1">  1        2 0.20079167E+00 0.26946287E+04</pdfrwt>
<pdfrwt beam="2">  1       -2 0.21397619E+00 0.26946287E+04</pdfrwt>
<totfact> 0.15557834E+00</totfact>
</mgrwt>
</event>
<event>
 6    1  0.5040916E-004  0.6844051E+04  0.7818608E-02  0.7593736E-01
         -2   -1    0    0    0  501 -0.00000000000E+00  0.00000000000E+00  0.36088295772E+04  0.36088295772E+04  0.00000000000E+00 0. -1.
          2   -1    0    0  501    0  0.00000000000E+00 -0.00000000000E+00 -0.32448912942E+04  0.32448912942E+04  0.00000000000E+00 0.  1.
         23    2    1    2    0    0 -0.32172829764E+03  0.12629759854E+04 -0.29860855954E+04  0.32591030304E+04  0.80174448410E+02 0.  0.
         13    1    3    3    0    0 -0.10577723764E+03  0.42397644511E+03 -0.10973504178E+04  0.11811531609E+04  0.00000000000E+00 0. -1.
        -13    1    3    3    0    0 -0.21595106000E+03  0.83899954032E+03 -0.18887351776E+04  0.20779498695E+04  0.00000000000E+00 0.  1.
         22    1    1    2    0    0  0.32172829764E+03 -0.12629759854E+04  0.33500238784E+04  0.35946178410E+04  0.00000000000E+00 0. -1.
<mgrwt>
<rscale>  0 0.68440513E+04</rscale>
<asrwt>0</asrwt>
<pdfrwt beam="1">  1        2 0.49921405E+00 0.68440513E+04</pdfrwt>
<pdfrwt beam="2">  1       -2 0.55520455E+00 0.68440513E+04</pdfrwt>
<totfact> 0.62850157E-04</totfact>
</mgrwt>
</event>
<event>
 6    1  0.5040916E-004  0.1976973E+04  0.7818608E-02  0.8617463E-01
          2   -1    0    0  501    0  0.00000000000E+00  0.00000000000E+00  0.18860197418E+04  0.18860197418E+04  0.00000000000E+00 0.  1.
         -2   -1    0    0    0  501 -0.00000000000E+00 -0.00000000000E+00 -0.51807833333E+03  0.51807833333E+03  0.00000000000E+00 0. -1.
         23    2    1    2    0    0 -0.14935212071E+03 -0.77038786379E+03  0.14121051194E+04  0.16181248249E+04  0.92106266589E+02 0.  0.
         11    1    3    3    0    0 -0.27948691221E+02 -0.38411423354E+03  0.67644401090E+03  0.77839666856E+03  0.00000000000E+00 0. -1.
        -11    1    3    3    0    0 -0.12140342949E+03 -0.38627363025E+03  0.73566110846E+03  0.83972815638E+03  0.00000000000E+00 0.  1.
         22    1    1    2    0    0  0.14935212071E+03  0.77038786379E+03 -0.44163710894E+02  0.78597325018E+03  0.00000000000E+00 0. -1.
<mgrwt>
<rscale>  0 0.19769734E+04</rscale>
<asrwt>0</asrwt>
<pdfrwt beam="1">  1        2 0.29015688E+00 0.19769734E+04</pdfrwt>
<pdfrwt beam="2">  1       -2 0.79704360E-01 0.19769734E+04</pdfrwt>
<totfact> 0.10028485E+01</totfact>
</mgrwt>
</event>
<event>
 6    1  0.5040916E-004  0.1982891E+04  0.7818608E-02  0.8614662E-01
          2   -1    0    0  501    0  0.00000000000E+00  0.00000000000E+00  0.10445199429E+04  0.10445199429E+04  0.00000000000E+00 0.  1.
         -2   -1    0    0    0  501 -0.00000000000E+00 -0.00000000000E+00 -0.94106818563E+03  0.94106818563E+03  0.00000000000E+00 0. -1.
         23    2    1    2    0    0  0.65722485180E+03  0.55637199970E+03  0.53971606873E+03  0.10202794435E+04  0.90456620193E+02 0.  0.
         11    1    3    3    0    0  0.38068044597E+03  0.32552093510E+03  0.36596061672E+03  0.62032947223E+03  0.00000000000E+00 0.  1.
        -11    1    3    3    0    0  0.27654440584E+03  0.23085106460E+03  0.17375545201E+03  0.39994997129E+03  0.00000000000E+00 0. -1.
         22    1    1    2    0    0 -0.65722485180E+03 -0.55637199970E+03 -0.43626431148E+03  0.96530868500E+03  0.00000000000E+00 0. -1.
<mgrwt>
<rscale>  0 0.19828913E+04</rscale>
<asrwt>0</asrwt>
<pdfrwt beam="1">  1        2 0.16069538E+00 0.19828913E+04</pdfrwt>
<pdfrwt beam="2">  1       -2 0.14477972E+00 0.19828913E+04</pdfrwt>
<totfact> 0.72216754E+00</totfact>
</mgrwt>
</event>
<event>
 6    1  0.5040916E-004  0.3008374E+04  0.7818608E-02  0.8241344E-01
          2   -1    0    0  501    0  0.00000000000E+00  0.00000000000E+00  0.13093792311E+04  0.13093792311E+04  0.00000000000E+00 0.  1.
         -2   -1    0    0    0  501 -0.00000000000E+00 -0.00000000000E+00 -0.17279775880E+04  0.17279775880E+04  0.00000000000E+00 0. -1.
         23    2    1    2    0    0  0.88807482994E+03  0.84291077313E+03 -0.10888404457E+04  0.16415058484E+04  0.98956854998E+02 0.  0.
         13    1    3    3    0    0  0.27569283718E+03  0.30864377252E+03 -0.32507279048E+03  0.52625073672E+03  0.00000000000E+00 0.  1.
        -13    1    3    3    0    0  0.61238199276E+03  0.53426700060E+03 -0.76376765520E+03  0.11152551117E+04  0.00000000000E+00 0. -1.
         22    1    1    2    0    0 -0.88807482994E+03 -0.84291077313E+03  0.67024208874E+03  0.13958509707E+04  0.00000000000E+00 0.  1.
<mgrwt>
<rscale>  0 0.30083736E+04</rscale>
<asrwt>0</asrwt>
<pdfrwt beam="1">  1        2 0.20144296E+00 0.30083736E+04</pdfrwt>
<pdfrwt beam="2">  1       -2 0.26584270E+00 0.30083736E+04</pdfrwt>
<totfact> 0.71758072E-01</totfact>
</mgrwt>
</event>
<event>
 6    1  0.5040916E-004  0.2441524E+04  0.7818608E-02  0.8424119E-01
          2   -1    0    0  501    0  0.00000000000E+00  0.00000000000E+00  0.71030639591E+03  0.71030639591E+03  0.00000000000E+00 0.  1.
         -2   -1    0    0    0  501 -0.00000000000E+00 -0.00000000000E+00 -0.20980530074E+04  0.20980530074E+04  0.00000000000E+00 0. -1.
         23    2    1    2    0    0  0.46147269980E+03  0.11280290182E+04 -0.66745404672E+03  0.13926518426E+04  0.92616044930E+02 0.  0.
         13    1    3    3    0    0  0.31068404813E+03  0.80337621047E+03 -0.42665709807E+03  0.96123576330E+03  0.00000000000E+00 0. -1.
        -13    1    3    3    0    0  0.15078865167E+03  0.32465280772E+03 -0.24079694865E+03  0.43141607933E+03  0.00000000000E+00 0.  1.
         22    1    1    2    0    0 -0.46147269980E+03 -0.11280290182E+04 -0.72029256482E+03  0.14157075607E+04  0.00000000000E+00 0. -1.
<mgrwt>
<rscale>  0 0.24415245E+04</rscale>
<asrwt>0</asrwt>
<pdfrwt beam="1">  1        2 0.10927791E+00 0.24415245E+04</pdfrwt>
<pdfrwt beam="2">  1       -2 0.32277738E+00 0.24415245E+04</pdfrwt>
<totfact> 0.82990676E-01</totfact>
</mgrwt>
</event>
<event>
 6    1  0.5040916E-004  0.2282600E+04  0.7818608E-02  0.8484813E-01
         -2   -1    0    0    0  501 -0.00000000000E+00  0.00000000000E+00  0.12738464780E+04  0.12738464780E+04  0.00000000000E+00 0. -1.
          2   -1    0    0  501    0  0.00000000000E+00 -0.00000000000E+00 -0.10225453349E+04  0.10225453349E+04  0.00000000000E+00 0.  1.
         23    2    1    2    0    0  0.33434940070E+03  0.92902544246E+03  0.69771253229E+03  0.12128047501E+04  0.95993695387E+02 0.  0.
         13    1    3    3    0    0  0.26478674144E+03  0.64731741021E+03  0.53132324512E+03  0.87831443049E+03  0.00000000000E+00 0. -1.
        -13    1    3    3    0    0  0.69562659261E+02  0.28170803224E+03  0.16638928717E+03  0.33449031956E+03  0.00000000000E+00 0.  1.
         22    1    1    2    0    0 -0.33434940070E+03 -0.92902544246E+03 -0.44641138921E+03  0.10835870629E+04  0.00000000000E+00 0.  1.
<mgrwt>
<rscale>  0 0.22826001E+04</rscale>
<asrwt>0</asrwt>
<pdfrwt beam="1">  1        2 0.15731467E+00 0.22826001E+04</pdfrwt>
<pdfrwt beam="2">  1       -2 0.19597638E+00 0.22826001E+04</pdfrwt>
<totfact> 0.31270604E+00</totfact>
</mgrwt>
</event>
<event>
 6    1  0.5040916E-004  0.2257095E+04  0.7818608E-02  0.8495033E-01
         -2   -1    0    0    0  501 -0.00000000000E+00  0.00000000000E+00  0.46215411222E+03  0.46215411222E+03  0.00000000000E+00 0. -1.
          2   -1    0    0  501    0  0.00000000000E+00 -0.00000000000E+00 -0.27558326223E+04  0.27558326223E+04  0.00000000000E+00 0.  1.
         23    2    1    2    0    0 -0.32913216743E+03 -0.96227251471E+03 -0.45710956448E+03  0.11186340085E+04  0.89980636164E+02 0.  0.
         13    1    3    3    0    0 -0.18348803325E+03 -0.54113409768E+03 -0.20771335593E+03  0.60797928275E+03  0.00000000000E+00 0. -1.
        -13    1    3    3    0    0 -0.14564413418E+03 -0.42113841703E+03 -0.24939620855E+03  0.51065472577E+03  0.00000000000E+00 0.  1.
         22    1    1    2    0    0  0.32913216743E+03  0.96227251471E+03 -0.18365689456E+04  0.20993527260E+04  0.00000000000E+00 0.  1.
<mgrwt>
<rscale>  0 0.22570949E+04</rscale>
<asrwt>0</asrwt>
<pdfrwt beam="1">  1        2 0.42397425E+00 0.22570949E+04</pdfrwt>
<pdfrwt beam="2">  1       -2 0.71100632E-01 0.22570949E+04</pdfrwt>
<totfact> 0.40202072E+00</totfact>
</mgrwt>
</event>
<event>
 6    1  0.5040916E-004  0.2941497E+04  0.7818608E-02  0.8260637E-01
         -2   -1    0    0    0  501 -0.00000000000E+00  0.00000000000E+00  0.13502119684E+04  0.13502119684E+04  0.00000000000E+00 0. -1.
          2   -1    0    0  501    0  0.00000000000E+00 -0.00000000000E+00 -0.16020457798E+04  0.16020457798E+04  0.00000000000E+00 0.  1.
         23    2    1    2    0    0 -0.97941924697E+03  0.10458904127E+04  0.19999593129E+03  0.14498267405E+04  0.94076501752E+02 0.  0.
         11    1    3    3    0    0 -0.32000432804E+03  0.38292262103E+03  0.34477035095E+02  0.50022112072E+03  0.00000000000E+00 0. -1.
        -11    1    3    3    0    0 -0.65941491893E+03  0.66296779163E+03  0.16551889620E+03  0.94960561974E+03  0.00000000000E+00 0.  1.
         22    1    1    2    0    0  0.97941924697E+03 -0.10458904127E+04 -0.45182974271E+03  0.15024310077E+04  0.00000000000E+00 0.  1.
<mgrwt>
<rscale>  0 0.29414972E+04</rscale>
<asrwt>0</asrwt>
<pdfrwt beam="1">  1        2 0.24646858E+00 0.29414972E+04</pdfrwt>
<pdfrwt beam="2">  1       -2 0.20772492E+00 0.29414972E+04</pdfrwt>
<totfact> 0.11332530E+00</totfact>
</mgrwt>
</event>
<event>
 6    1  0.7278106E-004  0.4599978E+04  0.7818608E-02  0.7893364E-01
          2   -1    0    0  501    0  0.00000000000E+00  0.00000000000E+00  0.25862614663E+04  0.25862614663E+04  0.00000000000E+00 0. -1.
         -2   -1    0    0    0  501 -0.00000000000E+00 -0.00000000000E+00 -0.20454040324E+04  0.20454040324E+04  0.00000000000E+00 0.  1.
         23    2    1    2    0    0  0.10200206362E+04  0.81564850786E+03  0.21756917020E+04  0.25392010018E+04  0.90458602283E+02 0.  0.
         11    1    3    3    0    0  0.54217928180E+03  0.37657104029E+03  0.10814594701E+04  0.12670117234E+04  0.00000000000E+00 0. -1.
        -11    1    3    3    0    0  0.47784135438E+03  0.43907746757E+03  0.10942322319E+04  0.12721892783E+04  0.00000000000E+00 0.  1.
         22    1    1    2    0    0 -0.10200206362E+04 -0.81564850786E+03 -0.16348342681E+04  0.20924644969E+04  0.00000000000E+00 0.  1.
<mgrwt>
<rscale>  0 0.45999781E+04</rscale>
<asrwt>0</asrwt>
<pdfrwt beam="1">  1        2 0.39788638E+00 0.45999781E+04</pdfrwt>
<pdfrwt beam="2">  1       -2 0.31467754E+00 0.45999781E+04</pdfrwt>
<totfact> 0.60176414E-02</totfact>
</mgrwt>
</event>
<event>
 6    1  0.5040916E-004  0.2516659E+04  0.7818608E-02  0.8397074E-01
          2   -1    0    0  501    0  0.00000000000E+00  0.00000000000E+00  0.22990475390E+04  0.22990475390E+04  0.00000000000E+00 0.  1.
         -2   -1    0    0    0  501 -0.00000000000E+00 -0.00000000000E+00 -0.68871720274E+03  0.68871720274E+03  0.00000000000E+00 0. -1.
         23    2    1    2    0    0  0.57467726929E+03  0.39963885646E+03  0.20452643269E+04  0.21636696286E+04  0.91623770560E+02 0.  0.
         13    1    3    3    0    0  0.69238920836E+02  0.43680102252E+02  0.16157870941E+03  0.18113436677E+03  0.00000000000E+00 0. -1.
        -13    1    3    3    0    0  0.50543834845E+03  0.35595875421E+03  0.18836856175E+04  0.19825352618E+04  0.00000000000E+00 0.  1.
         22    1    1    2    0    0 -0.57467726929E+03 -0.39963885646E+03 -0.43493399059E+03  0.82409511320E+03  0.00000000000E+00 0. -1.
<mgrwt>
<rscale>  0 0.25166594E+04</rscale>
<asrwt>0</asrwt>
<pdfrwt beam="1">  1        2 0.35369962E+00 0.25166594E+04</pdfrwt>
<pdfrwt beam="2">  1       -2 0.10595649E+00 0.25166594E+04</pdfrwt>
<totfact> 0.29073191E+00</totfact>
</mgrwt>
</event>
<event>
 6    1  0.5040916E-004  0.6828060E+03  0.7818608E-02  0.9747097E-01
         -2   -1    0    0    0  501 -0.00000000000E+00  0.00000000000E+00  0.16500621350E+03  0.16500621350E+03  0.00000000000E+00 0. -1.
          2   -1    0    0  501    0  0.00000000000E+00 -0.00000000000E+00 -0.70637334957E+03  0.70637334957E+03  0.00000000000E+00 0.  1.
         23    2    1    2    0    0  0.96908044859E+02 -0.18140453874E+03 -0.61333528836E+03  0.65348465542E+03  0.92537792752E+02 0.  0.
         13    1    3    3    0    0  0.39069520324E+02 -0.50646240145E+02 -0.86431169132E+02  0.10752588552E+03  0.00000000000E+00 0. -1.
        -13    1    3    3    0    0  0.57838524535E+02 -0.13075829860E+03 -0.52690411922E+03  0.54595876990E+03  0.00000000000E+00 0.  1.
         22    1    1    2    0    0 -0.96908044859E+02  0.18140453874E+03  0.71968152290E+02  0.21789490765E+03  0.00000000000E+00 0. -1.
<mgrwt>
<rscale>  0 0.68280595E+03</rscale>
<asrwt>0</asrwt>
<pdfrwt beam="1">  1        2 0.10867282E+00 0.68280595E+03</pdfrwt>
<pdfrwt beam="2">  1       -2 0.25385571E-01 0.68280595E+03</pdfrwt>
<totfact> 0.56799756E+02</totfact>
</mgrwt>
</event>
<event>
 6    1  0.5040916E-004  0.3630217E+04  0.7818608E-02  0.8083605E-01
         -2   -1    0    0    0  501 -0.00000000000E+00  0.00000000000E+00  0.16339897461E+04  0.16339897461E+04  0.00000000000E+00 0. -1.
          2   -1    0    0  501    0  0.00000000000E+00 -0.00000000000E+00 -0.20163037561E+04  0.20163037561E+04  0.00000000000E+00 0.  1.
         23    2    1    2    0    0 -0.95693038314E+03  0.15407391503E+04 -0.16422861141E+03  0.18235055757E+04  0.92782866663E+02 0.  0.
         11    1    3    3    0    0 -0.40070422646E+03  0.57772916572E+03 -0.91615151755E+02  0.70903328699E+03  0.00000000000E+00 0. -1.
        -11    1    3    3    0    0 -0.55622615668E+03  0.96300998456E+03 -0.72613459656E+02  0.11144722887E+04  0.00000000000E+00 0.  1.
         22    1    1    2    0    0  0.95693038314E+03 -0.15407391503E+04 -0.21808539852E+03  0.18267879265E+04  0.00000000000E+00 0.  1.
<mgrwt>
<rscale>  0 0.36302174E+04</rscale>
<asrwt>0</asrwt>
<pdfrwt beam="1">  1        2 0.31020058E+00 0.36302174E+04</pdfrwt>
<pdfrwt beam="2">  1       -2 0.25138304E+00 0.36302174E+04</pdfrwt>
<totfact> 0.33523734E-01</totfact>
</mgrwt>
</event>
<event>
 6    1  0.5040916E-004  0.3959127E+04  0.7818608E-02  0.8012843E-01
         -2   -1    0    0    0  501 -0.00000000000E+00  0.00000000000E+00  0.11875241878E+04  0.11875241878E+04  0.00000000000E+00 0. -1.
          2   -1    0    0  501    0  0.00000000000E+00 -0.00000000000E+00 -0.32998666380E+04  0.32998666380E+04  0.00000000000E+00 0.  1.
         23    2    1    2    0    0 -0.17411733013E+04 -0.19133917679E+03 -0.20994742012E+04  0.27356885857E+04  0.88909904147E+02 0.  0.
         13    1    3    3    0    0 -0.77677834098E+03 -0.48301347735E+02 -0.89405070646E+03  0.11853456361E+04  0.00000000000E+00 0. -1.
        -13    1    3    3    0    0 -0.96439496033E+03 -0.14303782905E+03 -0.12054234947E+04  0.15503429497E+04  0.00000000000E+00 0.  1.
         22    1    1    2    0    0  0.17411733013E+04  0.19133917679E+03 -0.12868249033E+02  0.17517022400E+04  0.00000000000E+00 0. -1.
<mgrwt>
<rscale>  0 0.39591269E+04</rscale>
<asrwt>0</asrwt>
<pdfrwt beam="1">  1        2 0.50767178E+00 0.39591269E+04</pdfrwt>
<pdfrwt beam="2">  1       -2 0.18269603E+00 0.39591269E+04</pdfrwt>
<totfact> 0.15300602E-01</totfact>
</mgrwt>
</event>
<event>
 6    1  0.5040916E-004  0.2018373E+04  0.7818608E-02  0.8598078E-01
         -2   -1    0    0    0  501 -0.00000000000E+00  0.00000000000E+00  0.47919216320E+03  0.47919216320E+03  0.00000000000E+00 0. -1.
          2   -1    0    0  501    0  0.00000000000E+00 -0.00000000000E+00 -0.21253638213E+04  0.21253638213E+04  0.00000000000E+00 0.  1.
         23    2    1    2    0    0 -0.79348207468E+03  0.60668710710E+03 -0.65724324381E+03  0.11989733803E+04  0.88799979314E+02 0.  0.
         13    1    3    3    0    0 -0.29099653812E+03  0.25536611525E+03 -0.21352751748E+03  0.44213667427E+03  0.00000000000E+00 0. -1.
        -13    1    3    3    0    0 -0.50248553656E+03  0.35132099185E+03 -0.44371572633E+03  0.75683670601E+03  0.00000000000E+00 0.  1.
         22    1    1    2    0    0  0.79348207468E+03 -0.60668710710E+03 -0.98892841433E+03  0.14055826043E+04  0.00000000000E+00 0.  1.
<mgrwt>
<rscale>  0 0.20183733E+04</rscale>
<asrwt>0</asrwt>
<pdfrwt beam="1">  1        2 0.32697905E+00 0.20183733E+04</pdfrwt>
<pdfrwt beam="2">  1       -2 0.73721871E-01 0.20183733E+04</pdfrwt>
<totfact> 0.87507752E+00</totfact>
</mgrwt>
</event>
<event>
 6    1  0.5040916E-004  0.1569120E+04  0.7818608E-02  0.8839747E-01
         -2   -1    0    0    0  501 -0.00000000000E+00  0.00000000000E+00  0.33279906907E+03  0.33279906907E+03  0.00000000000E+00 0. -1.
          2   -1    0    0  501    0  0.00000000000E+00 -0.00000000000E+00 -0.18495667389E+04  0.18495667389E+04  0.00000000000E+00 0.  1.
         23    2    1    2    0    0  0.16308314830E+03 -0.56639751311E+03 -0.14755031523E+04  0.15915147129E+04  0.91691181277E+02 0.  0.
         11    1    3    3    0    0  0.10330747523E+03 -0.47108748622E+03 -0.11465107193E+04  0.12438177856E+04  0.00000000000E+00 0. -1.
        -11    1    3    3    0    0  0.59775673072E+02 -0.95310026881E+02 -0.32899243300E+03  0.34769692734E+03  0.00000000000E+00 0.  1.
         22    1    1    2    0    0 -0.16308314830E+03  0.56639751311E+03 -0.41264517470E+02  0.59085109504E+03  0.00000000000E+00 0. -1.
<mgrwt>
<rscale>  0 0.15691196E+04</rscale>
<asrwt>0</asrwt>
<pdfrwt beam="1">  1        2 0.28454873E+00 0.15691196E+04</pdfrwt>
<pdfrwt beam="2">  1       -2 0.51199856E-01 0.15691196E+04</pdfrwt>
<totfact> 0.28062944E+01</totfact>
</mgrwt>
</event>
<event>
 6    1  0.5040916E-004  0.2894633E+04  0.7818608E-02  0.8274476E-01
          2   -1    0    0  501    0  0.00000000000E+00  0.00000000000E+00  0.26887428356E+04  0.26887428356E+04  0.00000000000E+00 0.  1.
         -2   -1    0    0    0  501 -0.00000000000E+00 -0.00000000000E+00 -0.77907237293E+03  0.77907237293E+03  0.00000000000E+00 0. -1.
         23    2    1    2    0    0 -0.39870296291E+03 -0.68458072792E+03  0.24047866575E+04  0.25336017040E+04  0.92324972618E+02 0.  0.
         11    1    3    3    0    0 -0.20548803764E+03 -0.36779975195E+03  0.11332810598E+04  0.12090607725E+04  0.00000000000E+00 0. -1.
        -11    1    3    3    0    0 -0.19321492526E+03 -0.31678097597E+03  0.12715055978E+04  0.13245409315E+04  0.00000000000E+00 0.  1.
         22    1    1    2    0    0  0.39870296291E+03  0.68458072792E+03 -0.49511619486E+03  0.93421350455E+03  0.00000000000E+00 0. -1.
<mgrwt>
<rscale>  0 0.28946331E+04</rscale>
<asrwt>0</asrwt>
<pdfrwt beam="1">  1        2 0.41365274E+00 0.28946331E+04</pdfrwt>
<pdfrwt beam="2">  1       -2 0.11985729E+00 0.28946331E+04</pdfrwt>
<totfact> 0.12397090E+00</totfact>
</mgrwt>
</event>
<event>
 6    1  0.5040916E-004  0.2837960E+04  0.7818608E-02  0.8291579E-01
         -2   -1    0    0    0  501 -0.00000000000E+00  0.00000000000E+00  0.20169949832E+04  0.20169949832E+04  0.00000000000E+00 0. -1.
          2   -1    0    0  501    0  0.00000000000E+00 -0.00000000000E+00 -0.99826930959E+03  0.99826930959E+03  0.00000000000E+00 0.  1.
         23    2    1    2    0    0  0.10068101604E+04  0.41171045156E+03 -0.45590910113E+03  0.11828560648E+04  0.90128611643E+02 0.  0.
         13    1    3    3    0    0  0.93149235527E+03  0.35625343158E+03 -0.40525017321E+03  0.10764860512E+04  0.00000000000E+00 0.  1.
        -13    1    3    3    0    0  0.75317805122E+02  0.55457019979E+02 -0.50658927916E+02  0.10637001368E+03  0.00000000000E+00 0. -1.
         22    1    1    2    0    0 -0.10068101604E+04 -0.41171045156E+03  0.14746347747E+04  0.18324082279E+04  0.00000000000E+00 0. -1.
<mgrwt>
<rscale>  0 0.28379600E+04</rscale>
<asrwt>0</asrwt>
<pdfrwt beam="1">  1        2 0.15357989E+00 0.28379600E+04</pdfrwt>
<pdfrwt beam="2">  1       -2 0.31030692E+00 0.28379600E+04</pdfrwt>
<totfact> 0.60186429E-01</totfact>
</mgrwt>
</event>
<event>
 6    1  0.5040916E-004  0.2361629E+04  0.7818608E-02  0.8454010E-01
         -2   -1    0    0    0  501 -0.00000000000E+00  0.00000000000E+00  0.17589153827E+04  0.17589153827E+04  0.00000000000E+00 0. -1.
          2   -1    0    0  501    0  0.00000000000E+00 -0.00000000000E+00 -0.79271761829E+03  0.79271761829E+03  0.00000000000E+00 0.  1.
         23    2    1    2    0    0  0.77626237477E+03  0.80356024192E+03  0.89069419194E+03  0.14318146558E+04  0.92003956453E+02 0.  0.
         13    1    3    3    0    0  0.29334748761E+03  0.33104253040E+03  0.40499324169E+03  0.59971779299E+03  0.00000000000E+00 0. -1.
        -13    1    3    3    0    0  0.48291488716E+03  0.47251771152E+03  0.48570095025E+03  0.83209686276E+03  0.00000000000E+00 0.  1.
         22    1    1    2    0    0 -0.77626237477E+03 -0.80356024192E+03  0.75503572465E+02  0.11198183452E+04  0.00000000000E+00 0. -1.
<mgrwt>
<rscale>  0 0.23616293E+04</rscale>
<asrwt>0</asrwt>
<pdfrwt beam="1">  1        2 0.12195656E+00 0.23616293E+04</pdfrwt>
<pdfrwt beam="2">  1       -2 0.27060236E+00 0.23616293E+04</pdfrwt>
<totfact> 0.15115560E+00</totfact>
</mgrwt>
</event>
<event>
 6    1  0.5040916E-004  0.1257790E+04  0.7818608E-02  0.9063725E-01
          2   -1    0    0  501    0  0.00000000000E+00  0.00000000000E+00  0.78332234038E+03  0.78332234038E+03  0.00000000000E+00 0.  1.
         -2   -1    0    0    0  501 -0.00000000000E+00 -0.00000000000E+00 -0.50491184023E+03  0.50491184023E+03  0.00000000000E+00 0. -1.
         23    2    1    2    0    0 -0.52867473795E+03 -0.94586172019E+02 -0.18928492718E+03  0.57606668961E+03  0.87066208885E+02 0.  0.
         13    1    3    3    0    0 -0.35948711209E+03 -0.27775829871E+02 -0.10464119149E+03  0.37543609235E+03  0.00000000000E+00 0.  1.
        -13    1    3    3    0    0 -0.16918762587E+03 -0.66810342148E+02 -0.84643735695E+02  0.20063059726E+03  0.00000000000E+00 0. -1.
         22    1    1    2    0    0  0.52867473795E+03  0.94586172019E+02  0.46769542733E+03  0.71216749100E+03  0.00000000000E+00 0.  1.
<mgrwt>
<rscale>  0 0.12577897E+04</rscale>
<asrwt>0</asrwt>
<pdfrwt beam="1">  1        2 0.12051113E+00 0.12577897E+04</pdfrwt>
<pdfrwt beam="2">  1       -2 0.77678745E-01 0.12577897E+04</pdfrwt>
<totfact> 0.51442956E+01</totfact>
</mgrwt>
</event>
<event>
 6    1  0.5040916E-004  0.2383560E+04  0.7818608E-02  0.8445684E-01
         -2   -1    0    0    0  501 -0.00000000000E+00  0.00000000000E+00  0.70011045662E+03  0.70011045662E+03  0.00000000000E+00 0. -1.
          2   -1    0    0  501    0  0.00000000000E+00 -0.00000000000E+00 -0.20287372364E+04  0.20287372364E+04  0.00000000000E+00 0.  1.
         23    2    1    2    0    0  0.11393701123E+04  0.30374050695E+03 -0.84941452126E+03  0.14560291918E+04  0.89963492323E+02 0.  0.
         13    1    3    3    0    0  0.85421040620E+03  0.26290016852E+03 -0.61956066326E+03  0.10874958998E+04  0.00000000000E+00 0. -1.
        -13    1    3    3    0    0  0.28515970611E+03  0.40840338428E+02 -0.22985385800E+03  0.36853329194E+03  0.00000000000E+00 0.  1.
         22    1    1    2    0    0 -0.11393701123E+04 -0.30374050695E+03 -0.47921225848E+03  0.12728185012E+04  0.00000000000E+00 0. -1.
<mgrwt>
<rscale>  0 0.23835605E+04</rscale>
<asrwt>0</asrwt>
<pdfrwt beam="1">  1        2 0.31211342E+00 0.23835605E+04</pdfrwt>
<pdfrwt beam="2">  1       -2 0.10770930E+00 0.23835605E+04</pdfrwt>
<totfact> 0.40084013E+00</totfact>
</mgrwt>
</event>
<event>
 6    1  0.5040916E-004  0.3305176E+04  0.7818608E-02  0.8161579E-01
         -2   -1    0    0    0  501 -0.00000000000E+00  0.00000000000E+00  0.11361736156E+04  0.11361736156E+04  0.00000000000E+00 0. -1.
          2   -1    0    0  501    0  0.00000000000E+00 -0.00000000000E+00 -0.24037240118E+04  0.24037240118E+04  0.00000000000E+00 0.  1.
         23    2    1    2    0    0 -0.91751752714E+03 -0.94758518183E+03  0.42994285275E+03  0.13901908056E+04  0.89574159215E+02 0.  0.
         13    1    3    3    0    0 -0.57238717159E+03 -0.60130558566E+03  0.22545269058E+03  0.86024670719E+03  0.00000000000E+00 0. -1.
        -13    1    3    3    0    0 -0.34513035555E+03 -0.34627959618E+03  0.20449016217E+03  0.52994409845E+03  0.00000000000E+00 0.  1.
         22    1    1    2    0    0  0.91751752714E+03  0.94758518183E+03 -0.16974932489E+04  0.21497068218E+04  0.00000000000E+00 0.  1.
<mgrwt>
<rscale>  0 0.33051764E+04</rscale>
<asrwt>0</asrwt>
<pdfrwt beam="1">  1        2 0.36980369E+00 0.33051764E+04</pdfrwt>
<pdfrwt beam="2">  1       -2 0.17479594E+00 0.33051764E+04</pdfrwt>
<totfact> 0.65099170E-01</totfact>
</mgrwt>
</event>
<event>
 6    1  0.5040916E-004  0.3193962E+04  0.7818608E-02  0.8190414E-01
          2   -1    0    0  501    0  0.00000000000E+00  0.00000000000E+00  0.31861311004E+04  0.31861311004E+04  0.00000000000E+00 0.  1.
         -2   -1    0    0    0  501 -0.00000000000E+00 -0.00000000000E+00 -0.80045311070E+03  0.80045311070E+03  0.00000000000E+00 0. -1.
         23    2    1    2    0    0 -0.12552841347E+04  0.84566281409E+03  0.56369891630E+03  0.16179365805E+04  0.95280933018E+02 0.  0.
         11    1    3    3    0    0 -0.32630312499E+03  0.25993115072E+03  0.12706182166E+03  0.43609934536E+03  0.00000000000E+00 0.  1.
        -11    1    3    3    0    0 -0.92898100975E+03  0.58573166337E+03  0.43663709464E+03  0.11818372351E+04  0.00000000000E+00 0. -1.
         22    1    1    2    0    0  0.12552841347E+04 -0.84566281409E+03  0.18219790734E+04  0.23686476306E+04  0.00000000000E+00 0.  1.
<mgrwt>
<rscale>  0 0.31939621E+04</rscale>
<asrwt>0</asrwt>
<pdfrwt beam="1">  1        2 0.49017401E+00 0.31939621E+04</pdfrwt>
<pdfrwt beam="2">  1       -2 0.12314663E+00 0.31939621E+04</pdfrwt>
<totfact> 0.55476009E-01</totfact>
</mgrwt>
</event>
<event>
 6    1  0.5040916E-004  0.6872064E+03  0.7818608E-02  0.9739365E-01
         -2   -1    0    0    0  501 -0.00000000000E+00  0.00000000000E+00  0.49039800143E+02  0.49039800143E+02  0.00000000000E+00 0. -1.
          2   -1    0    0  501    0  0.00000000000E+00 -0.00000000000E+00 -0.24074969046E+04  0.24074969046E+04  0.00000000000E+00 0.  1.
         23    2    1    2    0    0 -0.32173061221E+03 -0.66789655157E+02 -0.14844989726E+04  0.15228481800E+04  0.85778406548E+02 0.  0.
         13    1    3    3    0    0 -0.26212223072E+03 -0.74668292831E+02 -0.13164245630E+04  0.13443426080E+04  0.00000000000E+00 0.  1.
        -13    1    3    3    0    0 -0.59608381482E+02  0.78786376741E+01 -0.16807440961E+03  0.17850557201E+03  0.00000000000E+00 0. -1.
         22    1    1    2    0    0  0.32173061221E+03  0.66789655157E+02 -0.87395813189E+03  0.93368852470E+03  0.00000000000E+00 0. -1.
<mgrwt>
<rscale>  0 0.68720642E+03</rscale>
<asrwt>0</asrwt>
<pdfrwt beam="1">  1        2 0.37038420E+00 0.68720642E+03</pdfrwt>
<pdfrwt beam="2">  1       -2 0.75445834E-02 0.68720642E+03</pdfrwt>
<totfact> 0.44260728E+02</totfact>
</mgrwt>
</event>
<event>
 6    1  0.5040916E-004  0.2863621E+04  0.7818608E-02  0.8283784E-01
         -1   -1    0    0    0  501 -0.00000000000E+00  0.00000000000E+00  0.22760905865E+04  0.22760905865E+04  0.00000000000E+00 0. -1.
          1   -1    0    0  501    0  0.00000000000E+00 -0.00000000000E+00 -0.90070270800E+03  0.90070270800E+03  0.00000000000E+00 0.  1.
         23    2    1    2    0    0  0.11104914491E+04  0.70234059644E+03  0.13153043096E+04  0.18614668684E+04  0.92519745309E+02 0.  0.
         11    1    3    3    0    0  0.45402368587E+03  0.33121586525E+03  0.52422742843E+03  0.76854138043E+03  0.00000000000E+00 0. -1.
        -11    1    3    3    0    0  0.65646776325E+03  0.37112473118E+03  0.79107688121E+03  0.10929254880E+04  0.00000000000E+00 0.  1.
         22    1    1    2    0    0 -0.11104914491E+04 -0.70234059644E+03  0.60083568875E+02  0.13153264261E+04  0.00000000000E+00 0.  1.
<mgrwt>
<rscale>  0 0.28636208E+04</rscale>
<asrwt>0</asrwt>
<pdfrwt beam="1">  1        1 0.13856965E+00 0.28636208E+04</pdfrwt>
<pdfrwt beam="2">  1       -1 0.35016778E+00 0.28636208E+04</pdfrwt>
<totfact> 0.24245307E-01</totfact>
</mgrwt>
</event>
<event>
 6    1  0.5040916E-004  0.1001749E+04  0.7818608E-02  0.9306628E-01
         -2   -1    0    0    0  501 -0.00000000000E+00  0.00000000000E+00  0.11933590554E+03  0.11933590554E+03  0.00000000000E+00 0. -1.
          2   -1    0    0  501    0  0.00000000000E+00 -0.00000000000E+00 -0.21022624170E+04  0.21022624170E+04  0.00000000000E+00 0.  1.
         23    2    1    2    0    0  0.38138811207E+03 -0.14495612027E+03 -0.37170921400E+03  0.55952421214E+03  0.91817402304E+02 0.  0.
         13    1    3    3    0    0  0.13461569089E+03 -0.47742001556E+02 -0.74204659149E+02  0.16095656055E+03  0.00000000000E+00 0. -1.
        -13    1    3    3    0    0  0.24677242118E+03 -0.97214118718E+02 -0.29750455485E+03  0.39856765158E+03  0.00000000000E+00 0.  1.
         22    1    1    2    0    0 -0.38138811207E+03  0.14495612027E+03 -0.16112172974E+04  0.16620741104E+04  0.00000000000E+00 0.  1.
<mgrwt>
<rscale>  0 0.10017492E+04</rscale>
<asrwt>0</asrwt>
<pdfrwt beam="1">  1        2 0.32342498E+00 0.10017492E+04</pdfrwt>
<pdfrwt beam="2">  1       -2 0.18359370E-01 0.10017492E+04</pdfrwt>
<totfact> 0.14594648E+02</totfact>
</mgrwt>
</event>
<event>
 6    1  0.6519128E-004  0.3108854E+04  0.7818608E-02  0.8213312E-01
         -2   -1    0    0    0  501 -0.00000000000E+00  0.00000000000E+00  0.12574620165E+04  0.12574620165E+04  0.00000000000E+00 0. -1.
          2   -1    0    0  501    0  0.00000000000E+00 -0.00000000000E+00 -0.19215244811E+04  0.19215244811E+04  0.00000000000E+00 0.  1.
         23    2    1    2    0    0  0.92814746303E+03 -0.12173720071E+04 -0.60803911371E+02  0.15335767617E+04  0.68616701420E+02 0.  0.
         11    1    3    3    0    0  0.46211937269E+03 -0.55286666697E+03 -0.40019550355E+02  0.72167681858E+03  0.00000000000E+00 0.  1.
        -11    1    3    3    0    0  0.46602809034E+03 -0.66450534009E+03 -0.20784361016E+02  0.81189994313E+03  0.00000000000E+00 0. -1.
         22    1    1    2    0    0 -0.92814746303E+03  0.12173720071E+04 -0.60325855325E+03  0.16454097358E+04  0.00000000000E+00 0.  1.
<mgrwt>
<rscale>  0 0.31088545E+04</rscale>
<asrwt>0</asrwt>
<pdfrwt beam="1">  1        2 0.29561915E+00 0.31088545E+04</pdfrwt>
<pdfrwt beam="2">  1       -2 0.19345570E+00 0.31088545E+04</pdfrwt>
<totfact> 0.92114010E-01</totfact>
</mgrwt>
</event>
<event>
 6    1  0.5040916E-004  0.1468596E+04  0.7818608E-02  0.8905609E-01
          2   -1    0    0  501    0  0.00000000000E+00  0.00000000000E+00  0.11168420260E+04  0.11168420260E+04  0.00000000000E+00 0.  1.
         -2   -1    0    0    0  501 -0.00000000000E+00 -0.00000000000E+00 -0.48278391563E+03  0.48278391563E+03  0.00000000000E+00 0. -1.
         23    2    1    2    0    0 -0.24599114892E+03  0.49990412853E+03 -0.19798571971E+03  0.59827050112E+03  0.91178200384E+02 0.  0.
         11    1    3    3    0    0 -0.10893946966E+03  0.13811073057E+03 -0.84098333892E+02  0.19497413088E+03  0.00000000000E+00 0. -1.
        -11    1    3    3    0    0 -0.13705167925E+03  0.36179339796E+03 -0.11388738582E+03  0.40329637023E+03  0.00000000000E+00 0.  1.
         22    1    1    2    0    0  0.24599114892E+03 -0.49990412853E+03  0.83204383003E+03  0.10013554405E+04  0.00000000000E+00 0.  1.
<mgrwt>
<rscale>  0 0.14685957E+04</rscale>
<asrwt>0</asrwt>
<pdfrwt beam="1">  1        2 0.17182185E+00 0.14685957E+04</pdfrwt>
<pdfrwt beam="2">  1       -2 0.74274449E-01 0.14685957E+04</pdfrwt>
<totfact> 0.33617544E+01</totfact>
</mgrwt>
</event>
<event>
 6    1  0.5040916E-004  0.2934241E+04  0.7818608E-02  0.8262762E-01
          4   -1    0    0  501    0  0.00000000000E+00  0.00000000000E+00  0.20729724207E+04  0.20729724207E+04  0.00000000000E+00 0.  1.
         -4   -1    0    0    0  501 -0.00000000000E+00 -0.00000000000E+00 -0.10383361426E+04  0.10383361426E+04  0.00000000000E+00 0. -1.
         23    2    1    2    0    0 -0.56754616897E+03 -0.80370481895E+03 -0.63422588602E+03  0.11740034730E+04  0.89395694400E+02 0.  0.
         13    1    3    3    0    0 -0.21856907607E+03 -0.34583511018E+03 -0.30986763205E+03  0.51321760866E+03  0.00000000000E+00 0. -1.
        -13    1    3    3    0    0 -0.34897709290E+03 -0.45786970878E+03 -0.32435825397E+03  0.66078586433E+03  0.00000000000E+00 0.  1.
         22    1    1    2    0    0  0.56754616897E+03  0.80370481895E+03  0.16688621641E+04  0.19373050902E+04  0.00000000000E+00 0.  1.
<mgrwt>
<rscale>  0 0.29342407E+04</rscale>
<asrwt>0</asrwt>
<pdfrwt beam="1">  1        4 0.31891883E+00 0.29342407E+04</pdfrwt>
<pdfrwt beam="2">  1       -4 0.15974402E+00 0.29342407E+04</pdfrwt>
<totfact> 0.10089465E-02</totfact>
</mgrwt>
</event>
<event>
 6    1  0.5040916E-004  0.2648774E+04  0.7818608E-02  0.8351820E-01
         -2   -1    0    0    0  501 -0.00000000000E+00  0.00000000000E+00  0.67067968744E+03  0.67067968744E+03  0.00000000000E+00 0. -1.
          2   -1    0    0  501    0  0.00000000000E+00 -0.00000000000E+00 -0.26152596959E+04  0.26152596959E+04  0.00000000000E+00 0.  1.
         23    2    1    2    0    0  0.49053766359E+03  0.99074734989E+03 -0.72619554282E+02  0.11119008711E+04  0.94034231746E+02 0.  0.
         13    1    3    3    0    0  0.12402782429E+03  0.24061350747E+03 -0.58244199866E+02  0.27689374856E+03  0.00000000000E+00 0. -1.
        -13    1    3    3    0    0  0.36650983931E+03  0.75013384242E+03 -0.14375354416E+02  0.83500712252E+03  0.00000000000E+00 0.  1.
         22    1    1    2    0    0 -0.49053766359E+03 -0.99074734989E+03 -0.18719604542E+04  0.21740385122E+04  0.00000000000E+00 0.  1.
<mgrwt>
<rscale>  0 0.26487745E+04</rscale>
<asrwt>0</asrwt>
<pdfrwt beam="1">  1        2 0.40234765E+00 0.26487745E+04</pdfrwt>
<pdfrwt beam="2">  1       -2 0.10318149E+00 0.26487745E+04</pdfrwt>
<totfact> 0.20126012E+00</totfact>
</mgrwt>
</event>
<event>
 6    1  0.5040916E-004  0.2982631E+04  0.7818608E-02  0.8248708E-01
          2   -1    0    0  501    0  0.00000000000E+00  0.00000000000E+00  0.13128208501E+04  0.13128208501E+04  0.00000000000E+00 0.  1.
         -2   -1    0    0    0  501 -0.00000000000E+00 -0.00000000000E+00 -0.16940789921E+04  0.16940789921E+04  0.00000000000E+00 0. -1.
         23    2    1    2    0    0  0.12215926181E+04 -0.40880839129E+03 -0.94539139240E+03  0.16006071452E+04  0.93624373051E+02 0.  0.
         11    1    3    3    0    0  0.40956520024E+02 -0.54116231550E+01 -0.50285070680E+02  0.65079263448E+02  0.00000000000E+00 0.  1.
        -11    1    3    3    0    0  0.11806360980E+04 -0.40339676813E+03 -0.89510632172E+03  0.15355278818E+04  0.00000000000E+00 0. -1.
         22    1    1    2    0    0 -0.12215926181E+04  0.40880839129E+03  0.56413325043E+03  0.14062926970E+04  0.00000000000E+00 0.  1.
<mgrwt>
<rscale>  0 0.29826312E+04</rscale>
<asrwt>0</asrwt>
<pdfrwt beam="1">  1        2 0.20197244E+00 0.29826312E+04</pdfrwt>
<pdfrwt beam="2">  1       -2 0.26062754E+00 0.29826312E+04</pdfrwt>
<totfact> 0.77031872E-01</totfact>
</mgrwt>
</event>
<event>
 6    1  0.5040916E-004  0.2749312E+04  0.7818608E-02  0.8319180E-01
         -2   -1    0    0    0  501 -0.00000000000E+00  0.00000000000E+00  0.10421736064E+04  0.10421736064E+04  0.00000000000E+00 0. -1.
          2   -1    0    0  501    0  0.00000000000E+00 -0.00000000000E+00 -0.18132095409E+04  0.18132095409E+04  0.00000000000E+00 0.  1.
         23    2    1    2    0    0  0.59419407087E+03  0.15466583227E+03  0.88967862453E+03  0.10848010509E+04  0.90978852603E+02 0.  0.
         13    1    3    3    0    0  0.30954170942E+03  0.12737111176E+03  0.48372298688E+03  0.58824093534E+03  0.00000000000E+00 0.  1.
        -13    1    3    3    0    0  0.28465236145E+03  0.27294720514E+02  0.40595563766E+03  0.49656011559E+03  0.00000000000E+00 0. -1.
         22    1    1    2    0    0 -0.59419407087E+03 -0.15466583227E+03 -0.16607145590E+04  0.17705820964E+04  0.00000000000E+00 0.  1.
<mgrwt>
<rscale>  0 0.27493120E+04</rscale>
<asrwt>0</asrwt>
<pdfrwt beam="1">  1        2 0.27895531E+00 0.27493120E+04</pdfrwt>
<pdfrwt beam="2">  1       -2 0.16033440E+00 0.27493120E+04</pdfrwt>
<totfact> 0.18570209E+00</totfact>
</mgrwt>
</event>
<event>
 6    1  0.5040916E-004  0.1454542E+04  0.7818608E-02  0.8915258E-01
         -2   -1    0    0    0  501 -0.00000000000E+00  0.00000000000E+00  0.32255394605E+03  0.32255394605E+03  0.00000000000E+00 0. -1.
          2   -1    0    0  501    0  0.00000000000E+00 -0.00000000000E+00 -0.16397973807E+04  0.16397973807E+04  0.00000000000E+00 0.  1.
         23    2    1    2    0    0 -0.52965087247E+03  0.49298781239E+03 -0.61497248555E+03  0.95401035473E+03  0.91529061347E+02 0.  0.
         13    1    3    3    0    0 -0.33361047314E+03  0.25230669625E+03 -0.33297878600E+03  0.53463023547E+03  0.00000000000E+00 0.  1.
        -13    1    3    3    0    0 -0.19604039933E+03  0.24068111614E+03 -0.28199369955E+03  0.41938011925E+03  0.00000000000E+00 0. -1.
         22    1    1    2    0    0  0.52965087247E+03 -0.49298781239E+03 -0.70227094909E+03  0.10083409720E+04  0.00000000000E+00 0.  1.
<mgrwt>
<rscale>  0 0.14545420E+04</rscale>
<asrwt>0</asrwt>
<pdfrwt beam="1">  1        2 0.25227652E+00 0.14545420E+04</pdfrwt>
<pdfrwt beam="2">  1       -2 0.49623684E-01 0.14545420E+04</pdfrwt>
<totfact> 0.39466691E+01</totfact>
</mgrwt>
</event>
<event>
 6    1  0.5040916E-004  0.1639153E+04  0.7818608E-02  0.8796849E-01
          1   -1    0    0  501    0  0.00000000000E+00  0.00000000000E+00  0.13524585950E+04  0.13524585950E+04  0.00000000000E+00 0.  1.
         -1   -1    0    0    0  501 -0.00000000000E+00 -0.00000000000E+00 -0.49665514380E+03  0.49665514380E+03  0.00000000000E+00 0. -1.
         23    2    1    2    0    0  0.71339886190E+03 -0.37439813871E+03  0.27649254906E+03  0.85678666383E+03  0.92322019054E+02 0.  0.
         13    1    3    3    0    0  0.44260662895E+03 -0.28094421962E+03  0.16881049586E+03  0.55075154656E+03  0.00000000000E+00 0. -1.
        -13    1    3    3    0    0  0.27079223295E+03 -0.93453919086E+02  0.10768205320E+03  0.30603511726E+03  0.00000000000E+00 0.  1.
         22    1    1    2    0    0 -0.71339886190E+03  0.37439813871E+03  0.57931090219E+03  0.99232707502E+03  0.00000000000E+00 0. -1.
<mgrwt>
<rscale>  0 0.16391529E+04</rscale>
<asrwt>0</asrwt>
<pdfrwt beam="1">  1        1 0.20807055E+00 0.16391529E+04</pdfrwt>
<pdfrwt beam="2">  1       -1 0.76408484E-01 0.16391529E+04</pdfrwt>
<totfact> 0.13649486E+01</totfact>
</mgrwt>
</event>
<event>
 6    1  0.5040916E-004  0.1774253E+04  0.7818608E-02  0.8720113E-01
          2   -1    0    0  501    0  0.00000000000E+00  0.00000000000E+00  0.72706898379E+03  0.72706898379E+03  0.00000000000E+00 0.  1.
         -2   -1    0    0    0  501 -0.00000000000E+00 -0.00000000000E+00 -0.10824190197E+04  0.10824190197E+04  0.00000000000E+00 0. -1.
         23    2    1    2    0    0  0.20548674621E+03 -0.65685770013E+03 -0.74496071215E+03  0.10186129691E+04  0.94440865432E+02 0.  0.
         11    1    3    3    0    0  0.42260988718E+02 -0.29128559713E+03 -0.31350019849E+03  0.43001821440E+03  0.00000000000E+00 0. -1.
        -11    1    3    3    0    0  0.16322575749E+03 -0.36557210300E+03 -0.43146051366E+03  0.58859475469E+03  0.00000000000E+00 0.  1.
         22    1    1    2    0    0 -0.20548674621E+03  0.65685770013E+03  0.38961067620E+03  0.79087503444E+03  0.00000000000E+00 0.  1.
<mgrwt>
<rscale>  0 0.17742529E+04</rscale>
<asrwt>0</asrwt>
<pdfrwt beam="1">  1        2 0.11185677E+00 0.17742529E+04</pdfrwt>
<pdfrwt beam="2">  1       -2 0.16652600E+00 0.17742529E+04</pdfrwt>
<totfact> 0.83296317E+00</totfact>
</mgrwt>
</event>
<event>
 6    1  0.5040916E-004  0.2226619E+04  0.7818608E-02  0.8507430E-01
         -2   -1    0    0    0  501 -0.00000000000E+00  0.00000000000E+00  0.34126323612E+03  0.34126323612E+03  0.00000000000E+00 0. -1.
          2   -1    0    0  501    0  0.00000000000E+00 -0.00000000000E+00 -0.36319715174E+04  0.36319715174E+04  0.00000000000E+00 0.  1.
         23    2    1    2    0    0  0.65061883108E+02  0.96789998885E+03 -0.68003625234E+03  0.11881545249E+04  0.90545201762E+02 0.  0.
         11    1    3    3    0    0  0.28680416307E+02  0.33426901563E+03 -0.28804716460E+03  0.44218718901E+03  0.00000000000E+00 0. -1.
        -11    1    3    3    0    0  0.36381466801E+02  0.63363097323E+03 -0.39198908774E+03  0.74596733592E+03  0.00000000000E+00 0.  1.
         22    1    1    2    0    0 -0.65061883108E+02 -0.96789998885E+03 -0.26106720290E+04  0.27850802286E+04  0.00000000000E+00 0.  1.
<mgrwt>
<rscale>  0 0.22266193E+04</rscale>
<asrwt>0</asrwt>
<pdfrwt beam="1">  1        2 0.55876483E+00 0.22266193E+04</pdfrwt>
<pdfrwt beam="2">  1       -2 0.52502038E-01 0.22266193E+04</pdfrwt>
<totfact> 0.20522485E+00</totfact>
</mgrwt>
</event>
<event>
 6    1  0.5040916E-004  0.1730139E+04  0.7818608E-02  0.8744359E-01
         -2   -1    0    0    0  501 -0.00000000000E+00  0.00000000000E+00  0.23575714000E+03  0.23575714000E+03  0.00000000000E+00 0. -1.
          2   -1    0    0  501    0  0.00000000000E+00 -0.00000000000E+00 -0.31742208126E+04  0.31742208126E+04  0.00000000000E+00 0.  1.
         23    2    1    2    0    0  0.49072812121E+03  0.31468551600E+03 -0.22051848890E+03  0.63021769594E+03  0.93299932474E+02 0.  0.
         11    1    3    3    0    0  0.30479406046E+03  0.24640183541E+03 -0.15692652104E+03  0.42218386609E+03  0.00000000000E+00 0.  1.
        -11    1    3    3    0    0  0.18593406075E+03  0.68283680583E+02 -0.63591967863E+02  0.20803382984E+03  0.00000000000E+00 0. -1.
         22    1    1    2    0    0 -0.49072812121E+03 -0.31468551600E+03 -0.27179451837E+04  0.27797602566E+04  0.00000000000E+00 0. -1.
<mgrwt>
<rscale>  0 0.17301390E+04</rscale>
<asrwt>0</asrwt>
<pdfrwt beam="1">  1        2 0.48834162E+00 0.17301390E+04</pdfrwt>
<pdfrwt beam="2">  1       -2 0.36270332E-01 0.17301390E+04</pdfrwt>
<totfact> 0.92086160E+00</totfact>
</mgrwt>
</event>
<event>
 6    1  0.5040916E-004  0.3196104E+04  0.7818608E-02  0.8189847E-01
         -2   -1    0    0    0  501 -0.00000000000E+00  0.00000000000E+00  0.14154303053E+04  0.14154303053E+04  0.00000000000E+00 0. -1.
          2   -1    0    0  501    0  0.00000000000E+00 -0.00000000000E+00 -0.18042364647E+04  0.18042364647E+04  0.00000000000E+00 0.  1.
         23    2    1    2    0    0 -0.45476993646E+03  0.85127092109E+02  0.13456358826E+04  0.14245758213E+04  0.67956052353E+02 0.  0.
         11    1    3    3    0    0 -0.10798157184E+03  0.27959364544E+02  0.24528838069E+03  0.26945896835E+03  0.00000000000E+00 0. -1.
        -11    1    3    3    0    0 -0.34678836463E+03  0.57167727565E+02  0.11003475019E+04  0.11551168529E+04  0.00000000000E+00 0.  1.
         22    1    1    2    0    0  0.45476993646E+03 -0.85127092109E+02 -0.17344420420E+04  0.17950909487E+04  0.00000000000E+00 0.  1.
<mgrwt>
<rscale>  0 0.31961045E+04</rscale>
<asrwt>0</asrwt>
<pdfrwt beam="1">  1        2 0.27757484E+00 0.31961045E+04</pdfrwt>
<pdfrwt beam="2">  1       -2 0.21775851E+00 0.31961045E+04</pdfrwt>
<totfact> 0.73835819E-01</totfact>
</mgrwt>
</event>
<event>
 6    1  0.5040916E-004  0.1704901E+04  0.7818608E-02  0.8758574E-01
          2   -1    0    0  501    0  0.00000000000E+00  0.00000000000E+00  0.38855582880E+04  0.38855582880E+04  0.00000000000E+00 0.  1.
         -2   -1    0    0    0  501 -0.00000000000E+00 -0.00000000000E+00 -0.18701862176E+03  0.18701862176E+03  0.00000000000E+00 0. -1.
         23    2    1    2    0    0 -0.43216439484E+03  0.39037369592E+03  0.33335986091E+04  0.33853071943E+04  0.90925389198E+02 0.  0.
         13    1    3    3    0    0 -0.29909752891E+03  0.22862145440E+03  0.19594317374E+04  0.19952693639E+04  0.00000000000E+00 0. -1.
        -13    1    3    3    0    0 -0.13306686592E+03  0.16175224153E+03  0.13741668717E+04  0.13900378304E+04  0.00000000000E+00 0.  1.
         22    1    1    2    0    0  0.43216439484E+03 -0.39037369592E+03  0.36494105714E+03  0.68726971549E+03  0.00000000000E+00 0. -1.
<mgrwt>
<rscale>  0 0.17049009E+04</rscale>
<asrwt>0</asrwt>
<pdfrwt beam="1">  1        2 0.59777814E+00 0.17049009E+04</pdfrwt>
<pdfrwt beam="2">  1       -2 0.28772098E-01 0.17049009E+04</pdfrwt>
<totfact> 0.45167876E+00</totfact>
</mgrwt>
</event>
<event>
 6    1  0.5040916E-004  0.2936817E+04  0.7818608E-02  0.8262007E-01
         -1   -1    0    0    0  501 -0.00000000000E+00  0.00000000000E+00  0.14322637759E+04  0.14322637759E+04  0.00000000000E+00 0. -1.
          1   -1    0    0  501    0  0.00000000000E+00 -0.00000000000E+00 -0.15054653114E+04  0.15054653114E+04  0.00000000000E+00 0.  1.
         23    2    1    2    0    0 -0.75169742942E+03  0.75893976533E+03 -0.10424156131E+04  0.14953648750E+04  0.91908684374E+02 0.  0.
         11    1    3    3    0    0 -0.37293215815E+03  0.39562588334E+03 -0.59162028464E+03  0.80350033936E+03  0.00000000000E+00 0. -1.
        -11    1    3    3    0    0 -0.37876527127E+03  0.36331388199E+03 -0.45079532844E+03  0.69186453566E+03  0.00000000000E+00 0.  1.
         22    1    1    2    0    0  0.75169742942E+03 -0.75893976533E+03  0.96921407756E+03  0.14423642123E+04  0.00000000000E+00 0. -1.
<mgrwt>
<rscale>  0 0.29368169E+04</rscale>
<asrwt>0</asrwt>
<pdfrwt beam="1">  1        1 0.23161005E+00 0.29368169E+04</pdfrwt>
<pdfrwt beam="2">  1       -1 0.22034827E+00 0.29368169E+04</pdfrwt>
<totfact> 0.60739836E-01</totfact>
</mgrwt>
</event>
<event>
 6    1  0.5040916E-004  0.2203279E+04  0.7818608E-02  0.8517065E-01
         -2   -1    0    0    0  501 -0.00000000000E+00  0.00000000000E+00  0.36532142873E+03  0.36532142873E+03  0.00000000000E+00 0. -1.
          2   -1    0    0  501    0  0.00000000000E+00 -0.00000000000E+00 -0.33220316765E+04  0.33220316765E+04  0.00000000000E+00 0.  1.
         23    2    1    2    0    0 -0.90333812208E+03  0.39005063238E+03 -0.65862467904E+03  0.11874818006E+04  0.90373116689E+02 0.  0.
         13    1    3    3    0    0 -0.43114044204E+03  0.23533151292E+03 -0.32980351188E+03  0.59163617045E+03  0.00000000000E+00 0. -1.
        -13    1    3    3    0    0 -0.47219768004E+03  0.15471911947E+03 -0.32882116716E+03  0.59584563012E+03  0.00000000000E+00 0.  1.
         22    1    1    2    0    0  0.90333812208E+03 -0.39005063238E+03 -0.22980855688E+04  0.24998713047E+04  0.00000000000E+00 0.  1.
<mgrwt>
<rscale>  0 0.22032788E+04</rscale>
<asrwt>0</asrwt>
<pdfrwt beam="1">  1        2 0.51108181E+00 0.22032788E+04</pdfrwt>
<pdfrwt beam="2">  1       -2 0.56203295E-01 0.22032788E+04</pdfrwt>
<totfact> 0.29311601E+00</totfact>
</mgrwt>
</event>
<event>
 6    1  0.5040916E-004  0.9346713E+03  0.7818608E-02  0.9383249E-01
          2   -1    0    0  501    0  0.00000000000E+00  0.00000000000E+00  0.10858010125E+04  0.10858010125E+04  0.00000000000E+00 0.  1.
         -2   -1    0    0    0  501 -0.00000000000E+00 -0.00000000000E+00 -0.20114422162E+03  0.20114422162E+03  0.00000000000E+00 0. -1.
         23    2    1    2    0    0 -0.24383902486E+03  0.26166960463E+03  0.85140168329E+03  0.92773171236E+03  0.88729092116E+02 0.  0.
         11    1    3    3    0    0 -0.24441861399E+03  0.22916169090E+03  0.79332053367E+03  0.86116955856E+03  0.00000000000E+00 0. -1.
        -11    1    3    3    0    0  0.57958913207E+00  0.32507913726E+02  0.58081149619E+02  0.66562153807E+02  0.00000000000E+00 0.  1.
         22    1    1    2    0    0  0.24383902486E+03 -0.26166960463E+03  0.33255107581E+02  0.35921352175E+03  0.00000000000E+00 0. -1.
<mgrwt>
<rscale>  0 0.93467128E+03</rscale>
<asrwt>0</asrwt>
<pdfrwt beam="1">  1        2 0.16704631E+00 0.93467128E+03</pdfrwt>
<pdfrwt beam="2">  1       -2 0.30945265E-01 0.93467128E+03</pdfrwt>
<totfact> 0.21506869E+02</totfact>
</mgrwt>
</event>
<event>
 6    1  0.5040916E-004  0.4416002E+04  0.7818608E-02  0.7925510E-01
          2   -1    0    0  501    0  0.00000000000E+00  0.00000000000E+00  0.24331332357E+04  0.24331332357E+04  0.00000000000E+00 0. -1.
         -2   -1    0    0    0  501 -0.00000000000E+00 -0.00000000000E+00 -0.20036997044E+04  0.20036997044E+04  0.00000000000E+00 0.  1.
         23    2    1    2    0    0 -0.14124594267E+03 -0.11928641648E+04  0.20751514802E+04  0.23993681186E+04  0.88534573805E+02 0.  0.
         11    1    3    3    0    0 -0.25242204395E+02 -0.58953032362E+03  0.10154688883E+04  0.11744616786E+04  0.00000000000E+00 0. -1.
        -11    1    3    3    0    0 -0.11600373827E+03 -0.60333384119E+03  0.10596825918E+04  0.12249064400E+04  0.00000000000E+00 0.  1.
         22    1    1    2    0    0  0.14124594267E+03  0.11928641648E+04 -0.16457179488E+04  0.20374648215E+04  0.00000000000E+00 0.  1.
<mgrwt>
<rscale>  0 0.44160020E+04</rscale>
<asrwt>0</asrwt>
<pdfrwt beam="1">  1        2 0.37432819E+00 0.44160020E+04</pdfrwt>
<pdfrwt beam="2">  1       -2 0.30826149E+00 0.44160020E+04</pdfrwt>
<totfact> 0.82097301E-02</totfact>
</mgrwt>
</event>
<event>
 6    1  0.5040916E-004  0.9928643E+03  0.7818608E-02  0.9316406E-01
         -2   -1    0    0    0  501 -0.00000000000E+00  0.00000000000E+00  0.44825818733E+03  0.44825818733E+03  0.00000000000E+00 0. -1.
          2   -1    0    0  501    0  0.00000000000E+00 -0.00000000000E+00 -0.54978330665E+03  0.54978330665E+03  0.00000000000E+00 0.  1.
         23    2    1    2    0    0  0.46721607669E+03 -0.37303961293E+02  0.98497885737E+02  0.48844199399E+03  0.95871268618E+02 0.  0.
         11    1    3    3    0    0  0.15225782810E+03  0.15623026059E+02 -0.37387592436E+01  0.15310291794E+03  0.00000000000E+00 0.  1.
        -11    1    3    3    0    0  0.31495824859E+03 -0.52926987352E+02  0.10223664498E+03  0.33533907605E+03  0.00000000000E+00 0. -1.
         22    1    1    2    0    0 -0.46721607669E+03  0.37303961293E+02 -0.20002300506E+03  0.50959950000E+03  0.00000000000E+00 0.  1.
<mgrwt>
<rscale>  0 0.99286428E+03</rscale>
<asrwt>0</asrwt>
<pdfrwt beam="1">  1        2 0.84582047E-01 0.99286428E+03</pdfrwt>
<pdfrwt beam="2">  1       -2 0.68962798E-01 0.99286428E+03</pdfrwt>
<totfact> 0.10572726E+02</totfact>
</mgrwt>
</event>
<event>
 6    1  0.5040916E-004  0.2166493E+04  0.7818608E-02  0.8532505E-01
          2   -1    0    0  501    0  0.00000000000E+00  0.00000000000E+00  0.14362272529E+04  0.14362272529E+04  0.00000000000E+00 0. -1.
         -2   -1    0    0    0  501 -0.00000000000E+00 -0.00000000000E+00 -0.81701786707E+03  0.81701786707E+03  0.00000000000E+00 0.  1.
         23    2    1    2    0    0  0.19343712467E+03 -0.10112600398E+04 -0.33618556089E+02  0.10341269505E+04  0.90683808942E+02 0.  0.
         11    1    3    3    0    0  0.10250318049E+03 -0.69932514846E+03 -0.51851369674E+02  0.70869678271E+03  0.00000000000E+00 0.  1.
        -11    1    3    3    0    0  0.90933944188E+02 -0.31193489133E+03  0.18232813586E+02  0.32543016782E+03  0.00000000000E+00 0. -1.
         22    1    1    2    0    0 -0.19343712467E+03  0.10112600398E+04  0.65282794188E+03  0.12191181694E+04  0.00000000000E+00 0. -1.
<mgrwt>
<rscale>  0 0.21664933E+04</rscale>
<asrwt>0</asrwt>
<pdfrwt beam="1">  1        2 0.22095804E+00 0.21664933E+04</pdfrwt>
<pdfrwt beam="2">  1       -2 0.12569506E+00 0.21664933E+04</pdfrwt>
<totfact> 0.59805371E+00</totfact>
</mgrwt>
</event>
<event>
 6    1  0.5040916E-004  0.1878186E+04  0.7818608E-02  0.8665792E-01
          2   -1    0    0  501    0  0.00000000000E+00  0.00000000000E+00  0.17405771809E+04  0.17405771809E+04  0.00000000000E+00 0.  1.
         -2   -1    0    0    0  501 -0.00000000000E+00 -0.00000000000E+00 -0.50666835479E+03  0.50666835479E+03  0.00000000000E+00 0. -1.
         23    2    1    2    0    0 -0.46893688205E+03 -0.80280079204E+03  0.75656518952E+03  0.12021389103E+04  0.91412048457E+02 0.  0.
         11    1    3    3    0    0 -0.12130750759E+03 -0.18566018112E+03  0.23026648566E+03  0.31969965385E+03  0.00000000000E+00 0.  1.
        -11    1    3    3    0    0 -0.34762937445E+03 -0.61714061092E+03  0.52629870386E+03  0.88243925645E+03  0.00000000000E+00 0. -1.
         22    1    1    2    0    0  0.46893688205E+03  0.80280079204E+03  0.47734363657E+03  0.10451066254E+04  0.00000000000E+00 0.  1.
<mgrwt>
<rscale>  0 0.18781857E+04</rscale>
<asrwt>0</asrwt>
<pdfrwt beam="1">  1        2 0.26778110E+00 0.18781857E+04</pdfrwt>
<pdfrwt beam="2">  1       -2 0.77948978E-01 0.18781857E+04</pdfrwt>
<totfact> 0.12797903E+01</totfact>
</mgrwt>
</event>
<event>
 6    1  0.5040916E-004  0.1768574E+04  0.7818608E-02  0.8723192E-01
          2   -1    0    0  501    0  0.00000000000E+00  0.00000000000E+00  0.10043647885E+04  0.10043647885E+04  0.00000000000E+00 0.  1.
         -2   -1    0    0    0  501 -0.00000000000E+00 -0.00000000000E+00 -0.77856553787E+03  0.77856553787E+03  0.00000000000E+00 0. -1.
         23    2    1    2    0    0  0.75584923496E+03  0.37961649956E+03  0.36655395562E+03  0.92547558138E+03  0.82015221821E+02 0.  0.
         13    1    3    3    0    0  0.14167751139E+03  0.10214054093E+03  0.55942070375E+02  0.18339771693E+03  0.00000000000E+00 0.  1.
        -13    1    3    3    0    0  0.61417172357E+03  0.27747595863E+03  0.31061188525E+03  0.74207786445E+03  0.00000000000E+00 0. -1.
         22    1    1    2    0    0 -0.75584923496E+03 -0.37961649956E+03 -0.14075470500E+03  0.85745474499E+03  0.00000000000E+00 0. -1.
<mgrwt>
<rscale>  0 0.17685744E+04</rscale>
<asrwt>0</asrwt>
<pdfrwt beam="1">  1        2 0.15451766E+00 0.17685744E+04</pdfrwt>
<pdfrwt beam="2">  1       -2 0.11977931E+00 0.17685744E+04</pdfrwt>
<totfact> 0.12635637E+01</totfact>
</mgrwt>
</event>
<event>
 6    1  0.5040916E-004  0.2534933E+04  0.7818608E-02  0.8390645E-01
          2   -1    0    0  501    0  0.00000000000E+00  0.00000000000E+00  0.10839109895E+04  0.10839109895E+04  0.00000000000E+00 0.  1.
         -2   -1    0    0    0  501 -0.00000000000E+00 -0.00000000000E+00 -0.14821063072E+04  0.14821063072E+04  0.00000000000E+00 0. -1.
         23    2    1    2    0    0 -0.51755516040E+02 -0.79010927720E+03  0.80118451317E+03  0.11288453231E+04  0.73782354892E+02 0.  0.
         11    1    3    3    0    0 -0.51046199180E+02 -0.57240122835E+03  0.62243291211E+03  0.84715500987E+03  0.00000000000E+00 0.  1.
        -11    1    3    3    0    0 -0.70931685967E+00 -0.21770804885E+03  0.17875160105E+03  0.28169031319E+03  0.00000000000E+00 0. -1.
         22    1    1    2    0    0  0.51755516040E+02  0.79010927720E+03 -0.11993798308E+04  0.14371719737E+04  0.00000000000E+00 0. -1.
<mgrwt>
<rscale>  0 0.25349330E+04</rscale>
<asrwt>0</asrwt>
<pdfrwt beam="1">  1        2 0.16675554E+00 0.25349330E+04</pdfrwt>
<pdfrwt beam="2">  1       -2 0.22801636E+00 0.25349330E+04</pdfrwt>
<totfact> 0.17440368E+00</totfact>
</mgrwt>
</event>
<event>
 6    1  0.5040916E-004  0.1633721E+04  0.7818608E-02  0.8800096E-01
          2   -1    0    0  501    0  0.00000000000E+00  0.00000000000E+00  0.61848235066E+03  0.61848235066E+03  0.00000000000E+00 0.  1.
         -2   -1    0    0    0  501 -0.00000000000E+00 -0.00000000000E+00 -0.10788682447E+04  0.10788682447E+04  0.00000000000E+00 0. -1.
         23    2    1    2    0    0  0.29858199147E+03  0.38650825247E+02 -0.10169577012E+04  0.10645652696E+04  0.91930164757E+02 0.  0.
         11    1    3    3    0    0  0.24616105151E+03 -0.54261897880E+01 -0.78523141855E+03  0.82292957626E+03  0.00000000000E+00 0. -1.
        -11    1    3    3    0    0  0.52420939959E+02  0.44077015035E+02 -0.23172628265E+03  0.24163569329E+03  0.00000000000E+00 0.  1.
         22    1    1    2    0    0 -0.29858199147E+03 -0.38650825247E+02  0.55657180720E+03  0.63278532576E+03  0.00000000000E+00 0.  1.
<mgrwt>
<rscale>  0 0.16337209E+04</rscale>
<asrwt>0</asrwt>
<pdfrwt beam="1">  1        2 0.95151133E-01 0.16337209E+04</pdfrwt>
<pdfrwt beam="2">  1       -2 0.16597973E+00 0.16337209E+04</pdfrwt>
<totfact> 0.10404119E+01</totfact>
</mgrwt>
</event>
<event>
 6    1  0.5040916E-004  0.5182452E+04  0.7818608E-02  0.7800962E-01
         -1   -1    0    0    0  501 -0.00000000000E+00  0.00000000000E+00  0.18425316563E+04  0.18425316563E+04  0.00000000000E+00 0. -1.
          1   -1    0    0  501    0  0.00000000000E+00 -0.00000000000E+00 -0.36441449688E+04  0.36441449688E+04  0.00000000000E+00 0.  1.
         23    2    1    2    0    0 -0.16053312686E+04 -0.15939992970E+04 -0.22370209998E+04  0.31828749637E+04  0.92237954800E+02 0.  0.
         11    1    3    3    0    0 -0.76862191900E+03 -0.80823532449E+03 -0.11492088586E+04  0.16014696359E+04  0.00000000000E+00 0.  1.
        -11    1    3    3    0    0 -0.83670934961E+03 -0.78576397250E+03 -0.10878121412E+04  0.15814053278E+04  0.00000000000E+00 0. -1.
         22    1    1    2    0    0  0.16053312686E+04  0.15939992970E+04  0.43540768725E+03  0.23038016614E+04  0.00000000000E+00 0. -1.
<mgrwt>
<rscale>  0 0.51824521E+04</rscale>
<asrwt>0</asrwt>
<pdfrwt beam="1">  1        1 0.56063768E+00 0.51824521E+04</pdfrwt>
<pdfrwt beam="2">  1       -1 0.28346641E+00 0.51824521E+04</pdfrwt>
<totfact> 0.57543309E-03</totfact>
</mgrwt>
</event>
<event>
 6    1  0.5040916E-004  0.1250039E+04  0.7818608E-02  0.9070150E-01
         -2   -1    0    0    0  501 -0.00000000000E+00  0.00000000000E+00  0.52937265640E+03  0.52937265640E+03  0.00000000000E+00 0. -1.
          2   -1    0    0  501    0  0.00000000000E+00 -0.00000000000E+00 -0.73794831119E+03  0.73794831119E+03  0.00000000000E+00 0.  1.
         23    2    1    2    0    0 -0.44637233145E+03 -0.23569127447E+03 -0.47291473096E+03  0.69751943869E+03  0.89924354011E+02 0.  0.
         11    1    3    3    0    0 -0.24791214479E+03 -0.17370742476E+03 -0.24903465160E+03  0.39198591639E+03  0.00000000000E+00 0.  1.
        -11    1    3    3    0    0 -0.19846018666E+03 -0.61983849713E+02 -0.22388007936E+03  0.30553352230E+03  0.00000000000E+00 0. -1.
         22    1    1    2    0    0  0.44637233145E+03  0.23569127447E+03  0.26433907617E+03  0.56980152890E+03  0.00000000000E+00 0. -1.
<mgrwt>
<rscale>  0 0.12500395E+04</rscale>
<asrwt>0</asrwt>
<pdfrwt beam="1">  1        2 0.11353051E+00 0.12500395E+04</pdfrwt>
<pdfrwt beam="2">  1       -2 0.81441948E-01 0.12500395E+04</pdfrwt>
<totfact> 0.50029387E+01</totfact>
</mgrwt>
</event>
<event>
 6    1  0.5040916E-004  0.5322040E+04  0.7818608E-02  0.7780663E-01
          2   -1    0    0  501    0  0.00000000000E+00  0.00000000000E+00  0.22643760573E+04  0.22643760573E+04  0.00000000000E+00 0.  1.
         -2   -1    0    0    0  501 -0.00000000000E+00 -0.00000000000E+00 -0.31271428460E+04  0.31271428460E+04  0.00000000000E+00 0. -1.
         23    2    1    2    0    0  0.54416559930E+03  0.14367968225E+03  0.22023539353E+04  0.22751548195E+04  0.95950746117E+02 0.  0.
         11    1    3    3    0    0  0.21165960446E+03  0.67022839627E+02  0.69238062741E+03  0.72710575737E+03  0.00000000000E+00 0.  1.
        -11    1    3    3    0    0  0.33250599484E+03  0.76656842626E+02  0.15099733079E+04  0.15480490621E+04  0.00000000000E+00 0. -1.
         22    1    1    2    0    0 -0.54416559930E+03 -0.14367968225E+03 -0.30651207240E+04  0.31163640838E+04  0.00000000000E+00 0. -1.
<mgrwt>
<rscale>  0 0.53220400E+04</rscale>
<asrwt>0</asrwt>
<pdfrwt beam="1">  1        2 0.34836555E+00 0.53220400E+04</pdfrwt>
<pdfrwt beam="2">  1       -2 0.48109890E+00 0.53220400E+04</pdfrwt>
<totfact> 0.73699965E-03</totfact>
</mgrwt>
</event>
<event>
 6    1  0.5040916E-004  0.2662908E+04  0.7818608E-02  0.8347141E-01
          2   -1    0    0  501    0  0.00000000000E+00  0.00000000000E+00  0.19910165640E+04  0.19910165640E+04  0.00000000000E+00 0.  1.
         -2   -1    0    0    0  501 -0.00000000000E+00 -0.00000000000E+00 -0.89038395710E+03  0.89038395710E+03  0.00000000000E+00 0. -1.
         23    2    1    2    0    0  0.10587667729E+04  0.57099716368E+03 -0.62620073685E+02  0.12080261938E+04  0.91548735875E+02 0.  0.
         11    1    3    3    0    0  0.44520892387E+03  0.25120228892E+03 -0.70883268116E+02  0.51607946437E+03  0.00000000000E+00 0.  1.
        -11    1    3    3    0    0  0.61355784903E+03  0.31979487476E+03  0.82631944310E+01  0.69194672946E+03  0.00000000000E+00 0. -1.
         22    1    1    2    0    0 -0.10587667729E+04 -0.57099716368E+03  0.11632526806E+04  0.16733743273E+04  0.00000000000E+00 0.  1.
<mgrwt>
<rscale>  0 0.26629076E+04</rscale>
<asrwt>0</asrwt>
<pdfrwt beam="1">  1        2 0.30631024E+00 0.26629076E+04</pdfrwt>
<pdfrwt beam="2">  1       -2 0.13698215E+00 0.26629076E+04</pdfrwt>
<totfact> 0.22603576E+00</totfact>
</mgrwt>
</event>
<event>
 6    1  0.5040916E-004  0.8123870E+03  0.7818608E-02  0.9542259E-01
         -2   -1    0    0    0  501 -0.00000000000E+00  0.00000000000E+00  0.11531269554E+03  0.11531269554E+03  0.00000000000E+00 0. -1.
          2   -1    0    0  501    0  0.00000000000E+00 -0.00000000000E+00 -0.14308324849E+04  0.14308324849E+04  0.00000000000E+00 0.  1.
         23    2    1    2    0    0 -0.23809457253E+03  0.26883527333E+03 -0.10063602516E+04  0.10722875547E+04  0.89878887290E+02 0.  0.
         13    1    3    3    0    0 -0.64806369785E+02  0.12065465375E+03 -0.29415889374E+03  0.32447937654E+03  0.00000000000E+00 0. -1.
        -13    1    3    3    0    0 -0.17328820274E+03  0.14818061959E+03 -0.71220135787E+03  0.74780817820E+03  0.00000000000E+00 0.  1.
         22    1    1    2    0    0  0.23809457253E+03 -0.26883527333E+03 -0.30915953774E+03  0.47385762570E+03  0.00000000000E+00 0.  1.
<mgrwt>
<rscale>  0 0.81238698E+03</rscale>
<asrwt>0</asrwt>
<pdfrwt beam="1">  1        2 0.22012807E+00 0.81238698E+03</pdfrwt>
<pdfrwt beam="2">  1       -2 0.17740415E-01 0.81238698E+03</pdfrwt>
<totfact> 0.36832053E+02</totfact>
</mgrwt>
</event>
<event>
 6    1  0.5040916E-004  0.1989344E+04  0.7818608E-02  0.8611619E-01
         -2   -1    0    0    0  501 -0.00000000000E+00  0.00000000000E+00  0.48483769746E+03  0.48483769746E+03  0.00000000000E+00 0. -1.
          2   -1    0    0  501    0  0.00000000000E+00 -0.00000000000E+00 -0.20406251456E+04  0.20406251456E+04  0.00000000000E+00 0.  1.
         23    2    1    2    0    0 -0.70328516058E+03  0.69955877717E+03 -0.81209685139E+03  0.12856772957E+04  0.97325807529E+02 0.  0.
         11    1    3    3    0    0 -0.18552829766E+03  0.21752024047E+03 -0.18670940975E+03  0.34146186894E+03  0.00000000000E+00 0. -1.
        -11    1    3    3    0    0 -0.51775686291E+03  0.48203853670E+03 -0.62538744164E+03  0.94421542675E+03  0.00000000000E+00 0.  1.
         22    1    1    2    0    0  0.70328516058E+03 -0.69955877717E+03 -0.74369059678E+03  0.12397855474E+04  0.00000000000E+00 0.  1.
<mgrwt>
<rscale>  0 0.19893436E+04</rscale>
<asrwt>0</asrwt>
<pdfrwt beam="1">  1        2 0.31394232E+00 0.19893436E+04</pdfrwt>
<pdfrwt beam="2">  1       -2 0.74590416E-01 0.19893436E+04</pdfrwt>
<totfact> 0.95310345E+00</totfact>
</mgrwt>
</event>
<event>
 6    1  0.5040916E-004  0.2189592E+04  0.7818608E-02  0.8522773E-01
          2   -1    0    0  501    0  0.00000000000E+00  0.00000000000E+00  0.10273158465E+04  0.10273158465E+04  0.00000000000E+00 0.  1.
         -2   -1    0    0    0  501 -0.00000000000E+00 -0.00000000000E+00 -0.11667088134E+04  0.11667088134E+04  0.00000000000E+00 0. -1.
         23    2    1    2    0    0  0.38141932438E+03 -0.48323036637E+03  0.83496552204E+03  0.10414767204E+04  0.92271599485E+02 0.  0.
         11    1    3    3    0    0  0.17583732446E+03 -0.27291110377E+03  0.49478816641E+03  0.59178929092E+03  0.00000000000E+00 0. -1.
        -11    1    3    3    0    0  0.20558199992E+03 -0.21031926260E+03  0.34017735563E+03  0.44968742944E+03  0.00000000000E+00 0.  1.
         22    1    1    2    0    0 -0.38141932438E+03  0.48323036637E+03 -0.97435848888E+03  0.11525479395E+04  0.00000000000E+00 0. -1.
<mgrwt>
<rscale>  0 0.21895922E+04</rscale>
<asrwt>0</asrwt>
<pdfrwt beam="1">  1        2 0.15804859E+00 0.21895922E+04</pdfrwt>
<pdfrwt beam="2">  1       -2 0.17949366E+00 0.21895922E+04</pdfrwt>
<totfact> 0.40453684E+00</totfact>
</mgrwt>
</event>
<event>
 6    1  0.5040916E-004  0.3436444E+04  0.7818608E-02  0.8129019E-01
         -2   -1    0    0    0  501 -0.00000000000E+00  0.00000000000E+00  0.10360131062E+04  0.10360131062E+04  0.00000000000E+00 0. -1.
          2   -1    0    0  501    0  0.00000000000E+00 -0.00000000000E+00 -0.28496611184E+04  0.28496611184E+04  0.00000000000E+00 0.  1.
         23    2    1    2    0    0 -0.15410560757E+04  0.73390411873E+03 -0.69671395704E+03  0.18458186495E+04  0.90371816281E+02 0.  0.
         13    1    3    3    0    0 -0.12066457913E+04  0.53481870300E+03 -0.55087050820E+03  0.14302039811E+04  0.00000000000E+00 0. -1.
        -13    1    3    3    0    0 -0.33441028436E+03  0.19908541573E+03 -0.14584344883E+03  0.41561466842E+03  0.00000000000E+00 0.  1.
         22    1    1    2    0    0  0.15410560757E+04 -0.73390411873E+03 -0.11169340551E+04  0.20398555751E+04  0.00000000000E+00 0. -1.
<mgrwt>
<rscale>  0 0.34364437E+04</rscale>
<asrwt>0</asrwt>
<pdfrwt beam="1">  1        2 0.43840939E+00 0.34364437E+04</pdfrwt>
<pdfrwt beam="2">  1       -2 0.15938663E+00 0.34364437E+04</pdfrwt>
<totfact> 0.45328755E-01</totfact>
</mgrwt>
</event>
<event>
 6    1  0.5040916E-004  0.4710472E+04  0.7818608E-02  0.7874791E-01
          2   -1    0    0  501    0  0.00000000000E+00  0.00000000000E+00  0.31597230302E+04  0.31597230302E+04  0.00000000000E+00 0.  1.
         -2   -1    0    0    0  501 -0.00000000000E+00 -0.00000000000E+00 -0.17555767878E+04  0.17555767878E+04  0.00000000000E+00 0. -1.
         23    2    1    2    0    0  0.21903665508E+04 -0.85988290766E+03  0.78060899299E+03  0.24809820608E+04  0.93900716657E+02 0.  0.
         13    1    3    3    0    0  0.17953482480E+04 -0.66551068527E+03  0.63557325061E+03  0.20174571026E+04  0.00000000000E+00 0. -1.
        -13    1    3    3    0    0  0.39501830271E+03 -0.19437222239E+03  0.14503574238E+03  0.46352495821E+03  0.00000000000E+00 0.  1.
         22    1    1    2    0    0 -0.21903665508E+04  0.85988290766E+03  0.62353724945E+03  0.24343177572E+04  0.00000000000E+00 0. -1.
<mgrwt>
<rscale>  0 0.47104719E+04</rscale>
<asrwt>0</asrwt>
<pdfrwt beam="1">  1        2 0.48611124E+00 0.47104719E+04</pdfrwt>
<pdfrwt beam="2">  1       -2 0.27008874E+00 0.47104719E+04</pdfrwt>
<totfact> 0.49625467E-02</totfact>
</mgrwt>
</event>
<event>
 6    1  0.5040916E-004  0.3362817E+04  0.7818608E-02  0.8147093E-01
          2   -1    0    0  501    0  0.00000000000E+00  0.00000000000E+00  0.18590953807E+04  0.18590953807E+04  0.00000000000E+00 0. -1.
         -2   -1    0    0    0  501 -0.00000000000E+00 -0.00000000000E+00 -0.15207043252E+04  0.15207043252E+04  0.00000000000E+00 0.  1.
         23    2    1    2    0    0  0.54777757132E+03  0.15866885143E+04  0.95247393620E+02  0.16836984268E+04  0.90153298940E+02 0.  0.
         11    1    3    3    0    0  0.49114058725E+03  0.14005546940E+04  0.56066798185E+02  0.14852326462E+04  0.00000000000E+00 0.  1.
        -11    1    3    3    0    0  0.56636984070E+02  0.18613382027E+03  0.39180595435E+02  0.19846578060E+03  0.00000000000E+00 0. -1.
         22    1    1    2    0    0 -0.54777757132E+03 -0.15866885143E+04  0.24314366188E+03  0.16961012792E+04  0.00000000000E+00 0. -1.
<mgrwt>
<rscale>  0 0.33628169E+04</rscale>
<asrwt>0</asrwt>
<pdfrwt beam="1">  1        2 0.28601467E+00 0.33628169E+04</pdfrwt>
<pdfrwt beam="2">  1       -2 0.23395451E+00 0.33628169E+04</pdfrwt>
<totfact> 0.53702956E-01</totfact>
</mgrwt>
</event>
<event>
 6    1  0.5040916E-004  0.9830156E+03  0.7818608E-02  0.9327372E-01
          2   -1    0    0  501    0  0.00000000000E+00  0.00000000000E+00  0.66124859756E+03  0.66124859756E+03  0.00000000000E+00 0.  1.
         -2   -1    0    0    0  501 -0.00000000000E+00 -0.00000000000E+00 -0.36533903417E+03  0.36533903417E+03  0.00000000000E+00 0. -1.
         23    2    1    2    0    0 -0.10459419166E+03  0.26300755862E+03  0.56348743768E+03  0.63708687483E+03  0.90822204524E+02 0.  0.
         13    1    3    3    0    0 -0.71004083621E+02  0.75845064482E+02  0.24554439972E+03  0.26661977783E+03  0.00000000000E+00 0. -1.
        -13    1    3    3    0    0 -0.33590108041E+02  0.18716249413E+03  0.31794303796E+03  0.37046709700E+03  0.00000000000E+00 0.  1.
         22    1    1    2    0    0  0.10459419166E+03 -0.26300755862E+03 -0.26757787429E+03  0.38950075690E+03  0.00000000000E+00 0. -1.
<mgrwt>
<rscale>  0 0.98301561E+03</rscale>
<asrwt>0</asrwt>
<pdfrwt beam="1">  1        2 0.10173055E+00 0.98301561E+03</pdfrwt>
<pdfrwt beam="2">  1       -2 0.56206005E-01 0.98301561E+03</pdfrwt>
<totfact> 0.13074520E+02</totfact>
</mgrwt>
</event>
<event>
 6    1  0.5040916E-004  0.2863784E+04  0.7818608E-02  0.8283735E-01
          2   -1    0    0  501    0  0.00000000000E+00  0.00000000000E+00  0.27068453414E+04  0.27068453414E+04  0.00000000000E+00 0.  1.
         -2   -1    0    0    0  501 -0.00000000000E+00 -0.00000000000E+00 -0.75745565870E+03  0.75745565870E+03  0.00000000000E+00 0. -1.
         23    2    1    2    0    0  0.70339261377E+02 -0.58103670510E+03 -0.60327545196E+03  0.84539845246E+03  0.90587019555E+02 0.  0.
         13    1    3    3    0    0  0.17073796194E+02 -0.21528223680E+03 -0.28538701743E+03  0.35788783958E+03  0.00000000000E+00 0. -1.
        -13    1    3    3    0    0  0.53265465183E+02 -0.36575446830E+03 -0.31788843453E+03  0.48751061288E+03  0.00000000000E+00 0.  1.
         22    1    1    2    0    0 -0.70339261377E+02  0.58103670510E+03  0.25526651346E+04  0.26189025476E+04  0.00000000000E+00 0.  1.
<mgrwt>
<rscale>  0 0.28637844E+04</rscale>
<asrwt>0</asrwt>
<pdfrwt beam="1">  1        2 0.41643774E+00 0.28637844E+04</pdfrwt>
<pdfrwt beam="2">  1       -2 0.11653164E+00 0.28637844E+04</pdfrwt>
<totfact> 0.12994980E+00</totfact>
</mgrwt>
</event>
<event>
 6    1  0.5040916E-004  0.3178490E+04  0.7818608E-02  0.8194521E-01
          2   -1    0    0  501    0  0.00000000000E+00  0.00000000000E+00  0.19488983339E+04  0.19488983339E+04  0.00000000000E+00 0.  1.
         -2   -1    0    0    0  501 -0.00000000000E+00 -0.00000000000E+00 -0.12959625094E+04  0.12959625094E+04  0.00000000000E+00 0. -1.
         23    2    1    2    0    0 -0.14589867185E+04  0.31349116962E+03 -0.22682085540E+03  0.15125529105E+04  0.97209301924E+02 0.  0.
         11    1    3    3    0    0 -0.24420184642E+03  0.16302779401E+02 -0.43432706751E+02  0.24856935134E+03  0.00000000000E+00 0.  1.
        -11    1    3    3    0    0 -0.12147848721E+04  0.29718839022E+03 -0.18338814865E+03  0.12639835591E+04  0.00000000000E+00 0. -1.
         22    1    1    2    0    0  0.14589867185E+04 -0.31349116962E+03  0.87975667993E+03  0.17323079328E+04  0.00000000000E+00 0.  1.
<mgrwt>
<rscale>  0 0.31784897E+04</rscale>
<asrwt>0</asrwt>
<pdfrwt beam="1">  1        2 0.29983051E+00 0.31784897E+04</pdfrwt>
<pdfrwt beam="2">  1       -2 0.19937885E+00 0.31784897E+04</pdfrwt>
<totfact> 0.80791144E-01</totfact>
</mgrwt>
</event>
<event>
 6    1  0.5040916E-004  0.2671199E+04  0.7818608E-02  0.8344411E-01
         -2   -1    0    0    0  501 -0.00000000000E+00  0.00000000000E+00  0.92881681915E+03  0.92881681915E+03  0.00000000000E+00 0. -1.
          2   -1    0    0  501    0  0.00000000000E+00 -0.00000000000E+00 -0.19205360546E+04  0.19205360546E+04  0.00000000000E+00 0.  1.
         23    2    1    2    0    0 -0.53355452645E+03  0.93778009481E+03 -0.13332891737E+04  0.17176364951E+04  0.92212633232E+02 0.  0.
         13    1    3    3    0    0 -0.29934065252E+03  0.55675796927E+03 -0.84802504123E+03  0.10577006822E+04  0.00000000000E+00 0. -1.
        -13    1    3    3    0    0 -0.23421387393E+03  0.38102212554E+03 -0.48526413250E+03  0.65993581293E+03  0.00000000000E+00 0.  1.
         22    1    1    2    0    0  0.53355452645E+03 -0.93778009481E+03  0.34156993826E+03  0.11317163786E+04  0.00000000000E+00 0. -1.
<mgrwt>
<rscale>  0 0.26711991E+04</rscale>
<asrwt>0</asrwt>
<pdfrwt beam="1">  1        2 0.29546708E+00 0.26711991E+04</pdfrwt>
<pdfrwt beam="2">  1       -2 0.14289490E+00 0.26711991E+04</pdfrwt>
<totfact> 0.22148692E+00</totfact>
</mgrwt>
</event>
<event>
 6    1  0.5040916E-004  0.1168817E+04  0.7818608E-02  0.9140597E-01
          2   -1    0    0  501    0  0.00000000000E+00  0.00000000000E+00  0.11085194676E+04  0.11085194676E+04  0.00000000000E+00 0.  1.
         -2   -1    0    0    0  501 -0.00000000000E+00 -0.00000000000E+00 -0.30809870955E+03  0.30809870955E+03  0.00000000000E+00 0. -1.
         23    2    1    2    0    0  0.14593124827E+03 -0.56091108712E+03  0.35397078097E+03  0.68502077493E+03  0.89671463884E+02 0.  0.
         13    1    3    3    0    0  0.52882729376E+02 -0.17142167917E+03  0.63440258856E+02  0.19028042884E+03  0.00000000000E+00 0.  1.
        -13    1    3    3    0    0  0.93048518891E+02 -0.38948940795E+03  0.29053052211E+03  0.49474034609E+03  0.00000000000E+00 0. -1.
         22    1    1    2    0    0 -0.14593124827E+03  0.56091108712E+03  0.44644997704E+03  0.73159740218E+03  0.00000000000E+00 0.  1.
<mgrwt>
<rscale>  0 0.11688172E+04</rscale>
<asrwt>0</asrwt>
<pdfrwt beam="1">  1        2 0.17054146E+00 0.11688172E+04</pdfrwt>
<pdfrwt beam="2">  1       -2 0.47399802E-01 0.11688172E+04</pdfrwt>
<totfact> 0.89735424E+01</totfact>
</mgrwt>
</event>
<event>
 6    1  0.5040916E-004  0.2653852E+04  0.7818608E-02  0.8350136E-01
         -2   -1    0    0    0  501 -0.00000000000E+00  0.00000000000E+00  0.10700616998E+04  0.10700616998E+04  0.00000000000E+00 0. -1.
          2   -1    0    0  501    0  0.00000000000E+00 -0.00000000000E+00 -0.16454494396E+04  0.16454494396E+04  0.00000000000E+00 0.  1.
         23    2    1    2    0    0  0.85653284790E+03 -0.60037101448E+03  0.54479709098E+03  0.11828964032E+04  0.91357296993E+02 0.  0.
         13    1    3    3    0    0  0.97961172978E+02 -0.10168252934E+03  0.91029402755E+02  0.16799428666E+03  0.00000000000E+00 0.  1.
        -13    1    3    3    0    0  0.75857167492E+03 -0.49868848514E+03  0.45376768823E+03  0.10149021165E+04  0.00000000000E+00 0. -1.
         22    1    1    2    0    0 -0.85653284790E+03  0.60037101448E+03 -0.11201848308E+04  0.15326147362E+04  0.00000000000E+00 0.  1.
<mgrwt>
<rscale>  0 0.26538519E+04</rscale>
<asrwt>0</asrwt>
<pdfrwt beam="1">  1        2 0.25314607E+00 0.26538519E+04</pdfrwt>
<pdfrwt beam="2">  1       -2 0.16462488E+00 0.26538519E+04</pdfrwt>
<totfact> 0.21583266E+00</totfact>
</mgrwt>
</event>
<event>
 6    1  0.5040916E-004  0.1377863E+04  0.7818608E-02  0.8970000E-01
          2   -1    0    0  501    0  0.00000000000E+00  0.00000000000E+00  0.83120869054E+03  0.83120869054E+03  0.00000000000E+00 0.  1.
         -2   -1    0    0    0  501 -0.00000000000E+00 -0.00000000000E+00 -0.57100776341E+03  0.57100776341E+03  0.00000000000E+00 0. -1.
         23    2    1    2    0    0 -0.19917446126E+03 -0.65630789392E+03  0.12506257087E+03  0.70316503025E+03  0.91596372733E+02 0.  0.
         11    1    3    3    0    0 -0.82903557292E+02 -0.14049812456E+03  0.25308571102E+02  0.16508557353E+03  0.00000000000E+00 0. -1.
        -11    1    3    3    0    0 -0.11627090397E+03 -0.51580976936E+03  0.99753999765E+02  0.53807945672E+03  0.00000000000E+00 0.  1.
         22    1    1    2    0    0  0.19917446126E+03  0.65630789392E+03  0.13513835626E+03  0.69905142370E+03  0.00000000000E+00 0.  1.
<mgrwt>
<rscale>  0 0.13778630E+04</rscale>
<asrwt>0</asrwt>
<pdfrwt beam="1">  1        2 0.12787826E+00 0.13778630E+04</pdfrwt>
<pdfrwt beam="2">  1       -2 0.87847348E-01 0.13778630E+04</pdfrwt>
<totfact> 0.35653636E+01</totfact>
</mgrwt>
</event>
<event>
 6    1  0.5040916E-004  0.1113820E+04  0.7818608E-02  0.9191825E-01
          2   -1    0    0  501    0  0.00000000000E+00  0.00000000000E+00  0.16529814250E+04  0.16529814250E+04  0.00000000000E+00 0.  1.
         -2   -1    0    0    0  501 -0.00000000000E+00 -0.00000000000E+00 -0.18763005500E+03  0.18763005500E+03  0.00000000000E+00 0. -1.
         23    2    1    2    0    0  0.21062669136E+03  0.40065598732E+03  0.12627612474E+04  0.13446965870E+04  0.93563454339E+02 0.  0.
         11    1    3    3    0    0  0.22985423056E+02  0.13512918669E+03  0.37824183026E+03  0.40231220330E+03  0.00000000000E+00 0. -1.
        -11    1    3    3    0    0  0.18764126830E+03  0.26552680063E+03  0.88451941713E+03  0.94238438373E+03  0.00000000000E+00 0.  1.
         22    1    1    2    0    0 -0.21062669136E+03 -0.40065598732E+03  0.20259012262E+03  0.49591489297E+03  0.00000000000E+00 0. -1.
<mgrwt>
<rscale>  0 0.11138204E+04</rscale>
<asrwt>0</asrwt>
<pdfrwt beam="1">  1        2 0.25430482E+00 0.11138204E+04</pdfrwt>
<pdfrwt beam="2">  1       -2 0.28866164E-01 0.11138204E+04</pdfrwt>
<totfact> 0.11382357E+02</totfact>
</mgrwt>
</event>
<event>
 6    1  0.5040916E-004  0.1288560E+04  0.7818608E-02  0.9038687E-01
         -1   -1    0    0    0  501 -0.00000000000E+00  0.00000000000E+00  0.91874694658E+03  0.91874694658E+03  0.00000000000E+00 0. -1.
          1   -1    0    0  501    0  0.00000000000E+00 -0.00000000000E+00 -0.45180760553E+03  0.45180760553E+03  0.00000000000E+00 0.  1.
         23    2    1    2    0    0  0.55314735639E+03  0.26700041035E+03  0.39899152619E+02  0.62247398188E+03  0.92847717984E+02 0.  0.
         13    1    3    3    0    0  0.21490904916E+03  0.14476419293E+03 -0.10388797391E+02  0.25932700993E+03  0.00000000000E+00 0. -1.
        -13    1    3    3    0    0  0.33823830723E+03  0.12223621742E+03  0.50287950010E+02  0.36314697196E+03  0.00000000000E+00 0.  1.
         22    1    1    2    0    0 -0.55314735639E+03 -0.26700041035E+03  0.42704018843E+03  0.74808057022E+03  0.00000000000E+00 0.  1.
<mgrwt>
<rscale>  0 0.12885602E+04</rscale>
<asrwt>0</asrwt>
<pdfrwt beam="1">  1        1 0.69508863E-01 0.12885602E+04</pdfrwt>
<pdfrwt beam="2">  1       -1 0.14134568E+00 0.12885602E+04</pdfrwt>
<totfact> 0.20473719E+01</totfact>
</mgrwt>
</event>
<event>
 6    1  0.5040916E-004  0.1071619E+04  0.7818608E-02  0.9233304E-01
         -2   -1    0    0    0  501 -0.00000000000E+00  0.00000000000E+00  0.11816707577E+03  0.11816707577E+03  0.00000000000E+00 0. -1.
          2   -1    0    0  501    0  0.00000000000E+00 -0.00000000000E+00 -0.24295425106E+04  0.24295425106E+04  0.00000000000E+00 0.  1.
         23    2    1    2    0    0 -0.45433379879E+03 -0.27595204937E+03 -0.12183144943E+04  0.13322463192E+04  0.89561786439E+02 0.  0.
         13    1    3    3    0    0 -0.61177144710E+02 -0.57779071835E+02 -0.13182988100E+03  0.15639751181E+03  0.00000000000E+00 0. -1.
        -13    1    3    3    0    0 -0.39315665408E+03 -0.21817297754E+03 -0.10864846133E+04  0.11758488074E+04  0.00000000000E+00 0.  1.
         22    1    1    2    0    0  0.45433379879E+03  0.27595204937E+03 -0.10930609405E+04  0.12154632672E+04  0.00000000000E+00 0.  1.
<mgrwt>
<rscale>  0 0.10716192E+04</rscale>
<asrwt>0</asrwt>
<pdfrwt beam="1">  1        2 0.37377576E+00 0.10716192E+04</pdfrwt>
<pdfrwt beam="2">  1       -2 0.18179550E-01 0.10716192E+04</pdfrwt>
<totfact> 0.96832060E+01</totfact>
</mgrwt>
</event>
<event>
 6    1  0.5040916E-004  0.4009107E+04  0.7818608E-02  0.8002712E-01
          2   -1    0    0  501    0  0.00000000000E+00  0.00000000000E+00  0.27607040034E+04  0.27607040034E+04  0.00000000000E+00 0.  1.
         -2   -1    0    0    0  501 -0.00000000000E+00 -0.00000000000E+00 -0.14555109301E+04  0.14555109301E+04  0.00000000000E+00 0. -1.
         23    2    1    2    0    0  0.19767480369E+04 -0.72026097910E+02  0.31789736819E+03  0.20054518594E+04  0.89765602896E+02 0.  0.
         11    1    3    3    0    0  0.76080741240E+03 -0.31507500554E+02  0.16652312203E+03  0.77945531721E+03  0.00000000000E+00 0.  1.
        -11    1    3    3    0    0  0.12159406245E+04 -0.40518597356E+02  0.15137424616E+03  0.12259965422E+04  0.00000000000E+00 0. -1.
         22    1    1    2    0    0 -0.19767480369E+04  0.72026097910E+02  0.98729570506E+03  0.22107630740E+04  0.00000000000E+00 0.  1.
<mgrwt>
<rscale>  0 0.40091071E+04</rscale>
<asrwt>0</asrwt>
<pdfrwt beam="1">  1        2 0.42472369E+00 0.40091071E+04</pdfrwt>
<pdfrwt beam="2">  1       -2 0.22392476E+00 0.40091071E+04</pdfrwt>
<totfact> 0.17967455E-01</totfact>
</mgrwt>
</event>
<event>
 6    1  0.5040916E-004  0.5341494E+03  0.7818608E-02  0.1005231E+00
          2   -1    0    0  501    0  0.00000000000E+00  0.00000000000E+00  0.21301925697E+03  0.21301925697E+03  0.00000000000E+00 0.  1.
         -2   -1    0    0    0  501 -0.00000000000E+00 -0.00000000000E+00 -0.33484718035E+03  0.33484718035E+03  0.00000000000E+00 0. -1.
         23    2    1    2    0    0  0.87691441671E+02  0.16875962437E+03  0.11786491708E+03  0.24188889317E+03  0.91915712485E+02 0.  0.
         13    1    3    3    0    0 -0.11416677485E+02  0.44550033480E+02  0.53222687846E+02  0.70339892731E+02  0.00000000000E+00 0. -1.
        -13    1    3    3    0    0  0.99108119156E+02  0.12420959089E+03  0.64642229230E+02  0.17154900044E+03  0.00000000000E+00 0.  1.
         22    1    1    2    0    0 -0.87691441671E+02 -0.16875962437E+03 -0.23969284045E+03  0.30597754415E+03  0.00000000000E+00 0. -1.
<mgrwt>
<rscale>  0 0.53414941E+03</rscale>
<asrwt>0</asrwt>
<pdfrwt beam="1">  1        2 0.32772194E-01 0.53414941E+03</pdfrwt>
<pdfrwt beam="2">  1       -2 0.51514950E-01 0.53414941E+03</pdfrwt>
<totfact> 0.57753213E+02</totfact>
</mgrwt>
</event>
<event>
 6    1  0.5040916E-004  0.2014013E+04  0.7818608E-02  0.8600097E-01
         -2   -1    0    0    0  501 -0.00000000000E+00  0.00000000000E+00  0.79548277234E+03  0.79548277234E+03  0.00000000000E+00 0. -1.
          2   -1    0    0  501    0  0.00000000000E+00 -0.00000000000E+00 -0.12747763074E+04  0.12747763074E+04  0.00000000000E+00 0.  1.
         23    2    1    2    0    0  0.31911572932E+03  0.76483854211E+03  0.34400791192E+03  0.90208181717E+03  0.92721719175E+02 0.  0.
         11    1    3    3    0    0  0.11649196000E+03  0.18220372594E+03  0.72245669774E+02  0.22800879653E+03  0.00000000000E+00 0.  1.
        -11    1    3    3    0    0  0.20262376932E+03  0.58263481616E+03  0.27176224214E+03  0.67407302064E+03  0.00000000000E+00 0. -1.
         22    1    1    2    0    0 -0.31911572932E+03 -0.76483854211E+03 -0.82330144696E+03  0.11681772626E+04  0.00000000000E+00 0.  1.
<mgrwt>
<rscale>  0 0.20140135E+04</rscale>
<asrwt>0</asrwt>
<pdfrwt beam="1">  1        2 0.19611943E+00 0.20140135E+04</pdfrwt>
<pdfrwt beam="2">  1       -2 0.12238197E+00 0.20140135E+04</pdfrwt>
<totfact> 0.80262862E+00</totfact>
</mgrwt>
</event>
<event>
 6    1  0.5040916E-004  0.2910855E+04  0.7818608E-02  0.8269655E-01
          2   -1    0    0  501    0  0.00000000000E+00  0.00000000000E+00  0.18115624380E+04  0.18115624380E+04  0.00000000000E+00 0.  1.
         -2   -1    0    0    0  501 -0.00000000000E+00 -0.00000000000E+00 -0.11693048146E+04  0.11693048146E+04  0.00000000000E+00 0. -1.
         23    2    1    2    0    0 -0.46523368562E+03  0.42045095210E+03 -0.10220547711E+04  0.12023405782E+04  0.88348884335E+02 0.  0.
         13    1    3    3    0    0 -0.58357996384E+02  0.30850591885E+02 -0.15359937823E+03  0.16718308453E+03  0.00000000000E+00 0.  1.
        -13    1    3    3    0    0 -0.40687568924E+03  0.38960036021E+03 -0.86845539290E+03  0.10351574936E+04  0.00000000000E+00 0. -1.
         22    1    1    2    0    0  0.46523368562E+03 -0.42045095210E+03  0.16643123945E+04  0.17785266745E+04  0.00000000000E+00 0.  1.
<mgrwt>
<rscale>  0 0.29108546E+04</rscale>
<asrwt>0</asrwt>
<pdfrwt beam="1">  1        2 0.27870192E+00 0.29108546E+04</pdfrwt>
<pdfrwt beam="2">  1       -2 0.17989305E+00 0.29108546E+04</pdfrwt>
<totfact> 0.13318283E+00</totfact>
</mgrwt>
</event>
<event>
 6    1  0.5040916E-004  0.3133657E+04  0.7818608E-02  0.8206561E-01
         -2   -1    0    0    0  501 -0.00000000000E+00  0.00000000000E+00  0.17436309410E+04  0.17436309410E+04  0.00000000000E+00 0. -1.
          2   -1    0    0  501    0  0.00000000000E+00 -0.00000000000E+00 -0.14079538636E+04  0.14079538636E+04  0.00000000000E+00 0.  1.
         23    2    1    2    0    0 -0.31232252333E+03  0.31740962303E+03  0.16773695301E+04  0.17379254167E+04  0.92314604360E+02 0.  0.
         11    1    3    3    0    0 -0.10019334268E+03  0.68786134669E+02  0.33564666486E+03  0.35697187826E+03  0.00000000000E+00 0. -1.
        -11    1    3    3    0    0 -0.21212918066E+03  0.24862348836E+03  0.13417228652E+04  0.13809535384E+04  0.00000000000E+00 0.  1.
         22    1    1    2    0    0  0.31232252333E+03 -0.31740962303E+03 -0.13416924527E+04  0.14136593879E+04  0.00000000000E+00 0.  1.
<mgrwt>
<rscale>  0 0.31336572E+04</rscale>
<asrwt>0</asrwt>
<pdfrwt beam="1">  1        2 0.21660829E+00 0.31336572E+04</pdfrwt>
<pdfrwt beam="2">  1       -2 0.26825091E+00 0.31336572E+04</pdfrwt>
<totfact> 0.60224441E-01</totfact>
</mgrwt>
</event>
<event>
 6    1  0.5040916E-004  0.1936814E+04  0.7818608E-02  0.8636746E-01
          2   -1    0    0  501    0  0.00000000000E+00  0.00000000000E+00  0.12055847808E+04  0.12055847808E+04  0.00000000000E+00 0.  1.
         -2   -1    0    0    0  501 -0.00000000000E+00 -0.00000000000E+00 -0.77788949858E+03  0.77788949858E+03  0.00000000000E+00 0. -1.
         23    2    1    2    0    0  0.49203790545E+03 -0.72385932973E+03  0.63341777419E+03  0.10843661806E+04  0.92511120258E+02 0.  0.
         11    1    3    3    0    0  0.26281964028E+03 -0.46516902420E+03  0.37278194072E+03  0.65147736701E+03  0.00000000000E+00 0. -1.
        -11    1    3    3    0    0  0.22921826517E+03 -0.25869030553E+03  0.26063583347E+03  0.43288881361E+03  0.00000000000E+00 0.  1.
         22    1    1    2    0    0 -0.49203790545E+03  0.72385932973E+03 -0.20572249194E+03  0.89910809880E+03  0.00000000000E+00 0. -1.
<mgrwt>
<rscale>  0 0.19368136E+04</rscale>
<asrwt>0</asrwt>
<pdfrwt beam="1">  1        2 0.18547458E+00 0.19368136E+04</pdfrwt>
<pdfrwt beam="2">  1       -2 0.11967531E+00 0.19368136E+04</pdfrwt>
<totfact> 0.93844192E+00</totfact>
</mgrwt>
</event>
<event>
 6    1  0.5040916E-004  0.1650838E+04  0.7818608E-02  0.8789911E-01
          2   -1    0    0  501    0  0.00000000000E+00  0.00000000000E+00  0.14201013306E+04  0.14201013306E+04  0.00000000000E+00 0.  1.
         -2   -1    0    0    0  501 -0.00000000000E+00 -0.00000000000E+00 -0.47976635748E+03  0.47976635748E+03  0.00000000000E+00 0. -1.
         23    2    1    2    0    0 -0.73118833097E+03  0.34166349367E+03  0.65662156406E+03  0.10443774095E+04  0.90564766097E+02 0.  0.
         13    1    3    3    0    0 -0.54594908620E+03  0.23977398458E+03  0.43499075977E+03  0.73808463572E+03  0.00000000000E+00 0. -1.
        -13    1    3    3    0    0 -0.18523924477E+03  0.10188950909E+03  0.22163080430E+03  0.30629277379E+03  0.00000000000E+00 0.  1.
         22    1    1    2    0    0  0.73118833097E+03 -0.34166349367E+03  0.28371340904E+03  0.85549027856E+03  0.00000000000E+00 0.  1.
<mgrwt>
<rscale>  0 0.16508384E+04</rscale>
<asrwt>0</asrwt>
<pdfrwt beam="1">  1        2 0.21847713E+00 0.16508384E+04</pdfrwt>
<pdfrwt beam="2">  1       -2 0.73810210E-01 0.16508384E+04</pdfrwt>
<totfact> 0.22269568E+01</totfact>
</mgrwt>
</event>
<event>
 6    1  0.5040916E-004  0.4191190E+04  0.7818608E-02  0.7967050E-01
          2   -1    0    0  501    0  0.00000000000E+00  0.00000000000E+00  0.28988191917E+04  0.28988191917E+04  0.00000000000E+00 0.  1.
         -2   -1    0    0    0  501 -0.00000000000E+00 -0.00000000000E+00 -0.15149337447E+04  0.15149337447E+04  0.00000000000E+00 0. -1.
         23    2    1    2    0    0 -0.18400838345E+04 -0.73433434166E+03  0.14083871221E+04  0.24324009293E+04  0.88682308382E+02 0.  0.
         11    1    3    3    0    0 -0.15177635607E+04 -0.59049237947E+03  0.11946299733E+04  0.20197594533E+04  0.00000000000E+00 0.  1.
        -11    1    3    3    0    0 -0.32232027384E+03 -0.14384196220E+03  0.21375714887E+03  0.41264147599E+03  0.00000000000E+00 0. -1.
         22    1    1    2    0    0  0.18400838345E+04  0.73433434166E+03 -0.24501675125E+02  0.19813520070E+04  0.00000000000E+00 0. -1.
<mgrwt>
<rscale>  0 0.41911903E+04</rscale>
<asrwt>0</asrwt>
<pdfrwt beam="1">  1        2 0.44597218E+00 0.41911903E+04</pdfrwt>
<pdfrwt beam="2">  1       -2 0.23306673E+00 0.41911903E+04</pdfrwt>
<totfact> 0.12783630E-01</totfact>
</mgrwt>
</event>
<event>
 6    1  0.5040916E-004  0.5734664E+04  0.7818608E-02  0.7724200E-01
         -2   -1    0    0    0  501 -0.00000000000E+00  0.00000000000E+00  0.17948704858E+04  0.17948704858E+04  0.00000000000E+00 0. -1.
          2   -1    0    0  501    0  0.00000000000E+00 -0.00000000000E+00 -0.45806043792E+04  0.45806043792E+04  0.00000000000E+00 0.  1.
         23    2    1    2    0    0 -0.20844552884E+04 -0.65228340880E+03 -0.34573398009E+04  0.40904186316E+04  0.88874002526E+02 0.  0.
         13    1    3    3    0    0 -0.16158556819E+04 -0.48806080350E+03 -0.27324713611E+04  0.32117896370E+04  0.00000000000E+00 0. -1.
        -13    1    3    3    0    0 -0.46859960649E+03 -0.16422260531E+03 -0.72486843973E+03  0.87862899464E+03  0.00000000000E+00 0.  1.
         22    1    1    2    0    0  0.20844552884E+04  0.65228340880E+03  0.67160590751E+03  0.22850562334E+04  0.00000000000E+00 0. -1.
<mgrwt>
<rscale>  0 0.57346636E+04</rscale>
<asrwt>0</asrwt>
<pdfrwt beam="1">  1        2 0.70470836E+00 0.57346636E+04</pdfrwt>
<pdfrwt beam="2">  1       -2 0.27613392E+00 0.57346636E+04</pdfrwt>
<totfact> 0.30852797E-03</totfact>
</mgrwt>
</event>
<event>
 6    1  0.5040916E-004  0.4653533E+03  0.7818608E-02  0.1023240E+00
         -2   -1    0    0    0  501 -0.00000000000E+00  0.00000000000E+00  0.42476899676E+02  0.42476899676E+02  0.00000000000E+00 0. -1.
          2   -1    0    0  501    0  0.00000000000E+00 -0.00000000000E+00 -0.12745377938E+04  0.12745377938E+04  0.00000000000E+00 0.  1.
         23    2    1    2    0    0 -0.83228234344E+01 -0.15855630173E+03 -0.10856570331E+04  0.11010437215E+04  0.91851580967E+02 0.  0.
         13    1    3    3    0    0  0.41090732998E+02 -0.68723574687E+02 -0.52864045202E+03  0.53467009040E+03  0.00000000000E+00 0. -1.
        -13    1    3    3    0    0 -0.49413556432E+02 -0.89832727047E+02 -0.55701658108E+03  0.56637363110E+03  0.00000000000E+00 0.  1.
         22    1    1    2    0    0  0.83228234344E+01  0.15855630173E+03 -0.14640386100E+03  0.21597097195E+03  0.00000000000E+00 0. -1.
<mgrwt>
<rscale>  0 0.46535326E+03</rscale>
<asrwt>0</asrwt>
<pdfrwt beam="1">  1        2 0.19608275E+00 0.46535326E+03</pdfrwt>
<pdfrwt beam="2">  1       -2 0.65349072E-02 0.46535326E+03</pdfrwt>
<totfact> 0.23490233E+03</totfact>
</mgrwt>
</event>
<event>
 6    1  0.5040916E-004  0.2567226E+04  0.7818608E-02  0.8379420E-01
         -2   -1    0    0    0  501 -0.00000000000E+00  0.00000000000E+00  0.70042910985E+03  0.70042910985E+03  0.00000000000E+00 0.  1.
          2   -1    0    0  501    0  0.00000000000E+00 -0.00000000000E+00 -0.23523612767E+04  0.23523612767E+04  0.00000000000E+00 0. -1.
         23    2    1    2    0    0 -0.15803469222E+03  0.48610711264E+03 -0.22250495016E+04  0.22848460082E+04  0.91656466237E+02 0.  0.
         13    1    3    3    0    0 -0.13695270401E+03  0.29275759974E+03 -0.13005932989E+04  0.13401514782E+04  0.00000000000E+00 0.  1.
        -13    1    3    3    0    0 -0.21081988214E+02  0.19334951290E+03 -0.92445620268E+03  0.94469453001E+03  0.00000000000E+00 0. -1.
         22    1    1    2    0    0  0.15803469222E+03 -0.48610711264E+03  0.57311733472E+03  0.76794437836E+03  0.00000000000E+00 0.  1.
<mgrwt>
<rscale>  0 0.25672260E+04</rscale>
<asrwt>0</asrwt>
<pdfrwt beam="1">  1        2 0.36190173E+00 0.25672260E+04</pdfrwt>
<pdfrwt beam="2">  1       -2 0.10775833E+00 0.25672260E+04</pdfrwt>
<totfact> 0.25922549E+00</totfact>
</mgrwt>
</event>
<event>
 6    1  0.5040916E-004  0.6601749E+03  0.7818608E-02  0.9787872E-01
          2   -1    0    0  501    0  0.00000000000E+00  0.00000000000E+00  0.10210076642E+03  0.10210076642E+03  0.00000000000E+00 0.  1.
         -2   -1    0    0    0  501 -0.00000000000E+00 -0.00000000000E+00 -0.10671587433E+04  0.10671587433E+04  0.00000000000E+00 0. -1.
         23    2    1    2    0    0  0.24258008513E+03  0.17109988782E+03 -0.71992697345E+03  0.78427966849E+03  0.93163737460E+02 0.  0.
         13    1    3    3    0    0  0.22334200373E+03  0.11960256453E+03 -0.54695470127E+03  0.60278177587E+03  0.00000000000E+00 0. -1.
        -13    1    3    3    0    0  0.19238081409E+02  0.51497323289E+02 -0.17297227218E+03  0.18149789262E+03  0.00000000000E+00 0.  1.
         22    1    1    2    0    0 -0.24258008513E+03 -0.17109988782E+03 -0.24513100344E+03  0.38497984124E+03  0.00000000000E+00 0.  1.
<mgrwt>
<rscale>  0 0.66017490E+03</rscale>
<asrwt>0</asrwt>
<pdfrwt beam="1">  1        2 0.15707809E-01 0.66017490E+03</pdfrwt>
<pdfrwt beam="2">  1       -2 0.16417828E+00 0.66017490E+03</pdfrwt>
<totfact> 0.90469212E+01</totfact>
</mgrwt>
</event>
<event>
 6    1  0.5040916E-004  0.4217888E+04  0.7818608E-02  0.7961978E-01
         -2   -1    0    0    0  501 -0.00000000000E+00  0.00000000000E+00  0.12105081275E+04  0.12105081275E+04  0.00000000000E+00 0. -1.
          2   -1    0    0  501    0  0.00000000000E+00 -0.00000000000E+00 -0.36741963526E+04  0.36741963526E+04  0.00000000000E+00 0.  1.
         23    2    1    2    0    0 -0.34842196886E+03 -0.17947964944E+04 -0.17225335056E+02  0.18305478048E+04  0.88973191031E+02 0.  0.
         13    1    3    3    0    0 -0.28605331211E+03 -0.13418973802E+04  0.16327000300E+02  0.13721449075E+04  0.00000000000E+00 0. -1.
        -13    1    3    3    0    0 -0.62368656757E+02 -0.45289911421E+03 -0.33552335355E+02  0.45840289725E+03  0.00000000000E+00 0.  1.
         22    1    1    2    0    0  0.34842196886E+03  0.17947964944E+04 -0.24464628900E+04  0.30541566753E+04  0.00000000000E+00 0.  1.
<mgrwt>
<rscale>  0 0.42178879E+04</rscale>
<asrwt>0</asrwt>
<pdfrwt beam="1">  1        2 0.56526097E+00 0.42178879E+04</pdfrwt>
<pdfrwt beam="2">  1       -2 0.18623202E+00 0.42178879E+04</pdfrwt>
<totfact> 0.77495547E-02</totfact>
</mgrwt>
</event>
<event>
 6    1  0.5040916E-004  0.1398664E+04  0.7818608E-02  0.8954786E-01
         -2   -1    0    0    0  501 -0.00000000000E+00  0.00000000000E+00  0.10361039719E+04  0.10361039719E+04  0.00000000000E+00 0. -1.
          2   -1    0    0  501    0  0.00000000000E+00 -0.00000000000E+00 -0.47202321974E+03  0.47202321974E+03  0.00000000000E+00 0.  1.
         23    2    1    2    0    0 -0.21524262491E+03 -0.51083913145E+01  0.99736316923E+03  0.10242996023E+04  0.90005003845E+02 0.  0.
         11    1    3    3    0    0 -0.15150447739E+03 -0.13790403684E+02  0.85002438219E+03  0.86353067822E+03  0.00000000000E+00 0. -1.
        -11    1    3    3    0    0 -0.63738147521E+02  0.86820123695E+01  0.14733878704E+03  0.16076892410E+03  0.00000000000E+00 0.  1.
         22    1    1    2    0    0  0.21524262491E+03  0.51083913145E+01 -0.43328241707E+03  0.48382758932E+03  0.00000000000E+00 0.  1.
<mgrwt>
<rscale>  0 0.13986638E+04</rscale>
<asrwt>0</asrwt>
<pdfrwt beam="1">  1        2 0.72618957E-01 0.13986638E+04</pdfrwt>
<pdfrwt beam="2">  1       -2 0.15940061E+00 0.13986638E+04</pdfrwt>
<totfact> 0.16289980E+01</totfact>
</mgrwt>
</event>
<event>
 6    1  0.5040916E-004  0.1534926E+04  0.7818608E-02  0.8861554E-01
          2   -1    0    0  501    0  0.00000000000E+00  0.00000000000E+00  0.39426368625E+03  0.39426368625E+03  0.00000000000E+00 0.  1.
         -2   -1    0    0    0  501 -0.00000000000E+00 -0.00000000000E+00 -0.14939231944E+04  0.14939231944E+04  0.00000000000E+00 0. -1.
         23    2    1    2    0    0 -0.13391103691E+03  0.75210620347E+03 -0.51817832183E+03  0.92812632153E+03  0.96507970706E+02 0.  0.
         13    1    3    3    0    0 -0.12891181024E+03  0.49120188809E+03 -0.36674178766E+03  0.62641606660E+03  0.00000000000E+00 0. -1.
        -13    1    3    3    0    0 -0.49992266762E+01  0.26090431538E+03 -0.15143653417E+03  0.30171025493E+03  0.00000000000E+00 0.  1.
         22    1    1    2    0    0  0.13391103691E+03 -0.75210620347E+03 -0.58148118633E+03  0.96006055911E+03  0.00000000000E+00 0.  1.
<mgrwt>
<rscale>  0 0.15349263E+04</rscale>
<asrwt>0</asrwt>
<pdfrwt beam="1">  1        2 0.60655952E-01 0.15349263E+04</pdfrwt>
<pdfrwt beam="2">  1       -2 0.22983434E+00 0.15349263E+04</pdfrwt>
<totfact> 0.66732173E+00</totfact>
</mgrwt>
</event>
<event>
 6    1  0.5040916E-004  0.3362493E+04  0.7818608E-02  0.8147174E-01
          2   -1    0    0  501    0  0.00000000000E+00  0.00000000000E+00  0.18581565668E+04  0.18581565668E+04  0.00000000000E+00 0.  1.
         -2   -1    0    0    0  501 -0.00000000000E+00 -0.00000000000E+00 -0.15211793639E+04  0.15211793639E+04  0.00000000000E+00 0. -1.
         23    2    1    2    0    0 -0.75781276560E+03  0.14357274188E+04 -0.26743506103E+03  0.16470231432E+04  0.74634533315E+02 0.  0.
         11    1    3    3    0    0 -0.21562658224E+03  0.47964647824E+03 -0.97502726141E+02  0.53484796780E+03  0.00000000000E+00 0. -1.
        -11    1    3    3    0    0 -0.54218618336E+03  0.95608094056E+03 -0.16993233489E+03  0.11121751754E+04  0.00000000000E+00 0.  1.
         22    1    1    2    0    0  0.75781276560E+03 -0.14357274188E+04  0.60441226390E+03  0.17323127874E+04  0.00000000000E+00 0. -1.
<mgrwt>
<rscale>  0 0.33624928E+04</rscale>
<asrwt>0</asrwt>
<pdfrwt beam="1">  1        2 0.28587024E+00 0.33624928E+04</pdfrwt>
<pdfrwt beam="2">  1       -2 0.23402759E+00 0.33624928E+04</pdfrwt>
<totfact> 0.53712459E-01</totfact>
</mgrwt>
</event>
<event>
 6    1  0.5040916E-004  0.5135374E+04  0.7818608E-02  0.7807957E-01
          2   -1    0    0  501    0  0.00000000000E+00  0.00000000000E+00  0.28951804467E+04  0.28951804467E+04  0.00000000000E+00 0.  1.
         -2   -1    0    0    0  501 -0.00000000000E+00 -0.00000000000E+00 -0.22772382171E+04  0.22772382171E+04  0.00000000000E+00 0. -1.
         23    2    1    2    0    0 -0.16999813901E+04 -0.10590904714E+04 -0.13078753772E+04  0.23938609790E+04  0.91777072122E+02 0.  0.
         11    1    3    3    0    0 -0.86455509680E+03 -0.53175206776E+03 -0.60841359875E+03  0.11833777436E+04  0.00000000000E+00 0.  1.
        -11    1    3    3    0    0 -0.83542629333E+03 -0.52733840362E+03 -0.69946177845E+03  0.12104832353E+04  0.00000000000E+00 0. -1.
         22    1    1    2    0    0  0.16999813901E+04  0.10590904714E+04  0.19258176068E+04  0.27785576849E+04  0.00000000000E+00 0.  1.
<mgrwt>
<rscale>  0 0.51353736E+04</rscale>
<asrwt>0</asrwt>
<pdfrwt beam="1">  1        2 0.44541237E+00 0.51353736E+04</pdfrwt>
<pdfrwt beam="2">  1       -2 0.35034434E+00 0.51353736E+04</pdfrwt>
<totfact> 0.22550239E-02</totfact>
</mgrwt>
</event>
<event>
 6    1  0.5040916E-004  0.2584354E+04  0.7818608E-02  0.8373535E-01
          2   -1    0    0  501    0  0.00000000000E+00  0.00000000000E+00  0.35879993406E+04  0.35879993406E+04  0.00000000000E+00 0.  1.
         -2   -1    0    0    0  501 -0.00000000000E+00 -0.00000000000E+00 -0.46536264633E+03  0.46536264633E+03  0.00000000000E+00 0. -1.
         23    2    1    2    0    0  0.10518274002E+04 -0.65007868326E+03  0.98268273268E+03  0.15818551324E+04  0.87505042727E+02 0.  0.
         11    1    3    3    0    0  0.54507697305E+03 -0.37562589567E+03  0.56178205636E+03  0.86821817471E+03  0.00000000000E+00 0. -1.
        -11    1    3    3    0    0  0.50675042717E+03 -0.27445278759E+03  0.42090067633E+03  0.71363695769E+03  0.00000000000E+00 0.  1.
         22    1    1    2    0    0 -0.10518274002E+04  0.65007868326E+03  0.21399539616E+04  0.24715068546E+04  0.00000000000E+00 0. -1.
<mgrwt>
<rscale>  0 0.25843536E+04</rscale>
<asrwt>0</asrwt>
<pdfrwt beam="1">  1        2 0.55199988E+00 0.25843536E+04</pdfrwt>
<pdfrwt beam="2">  1       -2 0.71594256E-01 0.25843536E+04</pdfrwt>
<totfact> 0.11047930E+00</totfact>
</mgrwt>
</event>
<event>
 6    1  0.5040916E-004  0.2194078E+04  0.7818608E-02  0.8520897E-01
         -2   -1    0    0    0  501 -0.00000000000E+00  0.00000000000E+00  0.16349419053E+04  0.16349419053E+04  0.00000000000E+00 0. -1.
          2   -1    0    0  501    0  0.00000000000E+00 -0.00000000000E+00 -0.73610877765E+03  0.73610877765E+03  0.00000000000E+00 0.  1.
         23    2    1    2    0    0  0.60131868235E+03 -0.57850315496E+03 -0.31640040381E+03  0.89692633473E+03  0.90097593579E+02 0.  0.
         11    1    3    3    0    0  0.23719530613E+03 -0.18943142154E+03 -0.79725692856E+02  0.31385038285E+03  0.00000000000E+00 0.  1.
        -11    1    3    3    0    0  0.36412337622E+03 -0.38907173342E+03 -0.23667471095E+03  0.58307595188E+03  0.00000000000E+00 0. -1.
         22    1    1    2    0    0 -0.60131868235E+03  0.57850315496E+03  0.12152335314E+04  0.14741243482E+04  0.00000000000E+00 0. -1.
<mgrwt>
<rscale>  0 0.21940785E+04</rscale>
<asrwt>0</asrwt>
<pdfrwt beam="1">  1        2 0.11324750E+00 0.21940785E+04</pdfrwt>
<pdfrwt beam="2">  1       -2 0.25152952E+00 0.21940785E+04</pdfrwt>
<totfact> 0.22089450E+00</totfact>
</mgrwt>
</event>
<event>
 6    1  0.5040916E-004  0.4953407E+04  0.7818608E-02  0.7835735E-01
          2   -1    0    0  501    0  0.00000000000E+00  0.00000000000E+00  0.25508226031E+04  0.25508226031E+04  0.00000000000E+00 0.  1.
         -2   -1    0    0    0  501 -0.00000000000E+00 -0.00000000000E+00 -0.24047385074E+04  0.24047385074E+04  0.00000000000E+00 0. -1.
         23    2    1    2    0    0  0.37570733795E+03 -0.15973399960E+04 -0.17816983569E+04  0.24239615664E+04  0.92138884437E+02 0.  0.
         11    1    3    3    0    0  0.29348318887E+03 -0.13515691341E+04 -0.15345791162E+04  0.20658665422E+04  0.00000000000E+00 0.  1.
        -11    1    3    3    0    0  0.82224149079E+02 -0.24577086187E+03 -0.24711924071E+03  0.35809502421E+03  0.00000000000E+00 0. -1.
         22    1    1    2    0    0 -0.37570733795E+03  0.15973399960E+04  0.19277824526E+04  0.25315995440E+04  0.00000000000E+00 0. -1.
<mgrwt>
<rscale>  0 0.49534074E+04</rscale>
<asrwt>0</asrwt>
<pdfrwt beam="1">  1        2 0.39243425E+00 0.49534074E+04</pdfrwt>
<pdfrwt beam="2">  1       -2 0.36995977E+00 0.49534074E+04</pdfrwt>
<totfact> 0.27610022E-02</totfact>
</mgrwt>
</event>
<event>
 6    1  0.5040916E-004  0.2259936E+04  0.7818608E-02  0.8493887E-01
         -2   -1    0    0    0  501 -0.00000000000E+00  0.00000000000E+00  0.12318300866E+04  0.12318300866E+04  0.00000000000E+00 0. -1.
          2   -1    0    0  501    0  0.00000000000E+00 -0.00000000000E+00 -0.10365292894E+04  0.10365292894E+04  0.00000000000E+00 0.  1.
         23    2    1    2    0    0  0.14467032149E+03  0.63802256542E+03 -0.82472846926E+03  0.10565582370E+04  0.90199580460E+02 0.  0.
         13    1    3    3    0    0  0.82135992653E+02  0.30266879074E+03 -0.32638680996E+03  0.45264010857E+03  0.00000000000E+00 0.  1.
        -13    1    3    3    0    0  0.62534328835E+02  0.33535377468E+03 -0.49834165930E+03  0.60391812845E+03  0.00000000000E+00 0. -1.
         22    1    1    2    0    0 -0.14467032149E+03 -0.63802256542E+03  0.10200292665E+04  0.12118011390E+04  0.00000000000E+00 0. -1.
<mgrwt>
<rscale>  0 0.22599363E+04</rscale>
<asrwt>0</asrwt>
<pdfrwt beam="1">  1        2 0.15946604E+00 0.22599363E+04</pdfrwt>
<pdfrwt beam="2">  1       -2 0.18951232E+00 0.22599363E+04</pdfrwt>
<totfact> 0.33904291E+00</totfact>
</mgrwt>
</event>
<event>
 6    1  0.5040916E-004  0.3277454E+04  0.7818608E-02  0.8168656E-01
         -2   -1    0    0    0  501 -0.00000000000E+00  0.00000000000E+00  0.14543983193E+04  0.14543983193E+04  0.00000000000E+00 0. -1.
          2   -1    0    0  501    0  0.00000000000E+00 -0.00000000000E+00 -0.18464167503E+04  0.18464167503E+04  0.00000000000E+00 0.  1.
         23    2    1    2    0    0  0.29022177495E+03 -0.10875681123E+04  0.10017412931E+04  0.15092796259E+04  0.86059822947E+02 0.  0.
         13    1    3    3    0    0  0.89054878171E+02 -0.47424897312E+03  0.45853699010E+03  0.66565684187E+03  0.00000000000E+00 0. -1.
        -13    1    3    3    0    0  0.20116689678E+03 -0.61331913921E+03  0.54320430304E+03  0.84362278402E+03  0.00000000000E+00 0.  1.
         22    1    1    2    0    0 -0.29022177495E+03  0.10875681123E+04 -0.13937597242E+04  0.17915354438E+04  0.00000000000E+00 0.  1.
<mgrwt>
<rscale>  0 0.32774535E+04</rscale>
<asrwt>0</asrwt>
<pdfrwt beam="1">  1        2 0.28406411E+00 0.32774535E+04</pdfrwt>
<pdfrwt beam="2">  1       -2 0.22375359E+00 0.32774535E+04</pdfrwt>
<totfact> 0.63678483E-01</totfact>
</mgrwt>
</event>
<event>
 6    1  0.5040916E-004  0.3597127E+04  0.7818608E-02  0.8091150E-01
         -2   -1    0    0    0  501 -0.00000000000E+00  0.00000000000E+00  0.10817963373E+04  0.10817963373E+04  0.00000000000E+00 0. -1.
          2   -1    0    0  501    0  0.00000000000E+00 -0.00000000000E+00 -0.29902396548E+04  0.29902396548E+04  0.00000000000E+00 0.  1.
         23    2    1    2    0    0 -0.23054191083E+03  0.23257521761E+03 -0.29555368709E+04  0.29749281058E+04  0.88080845433E+02 0.  0.
         11    1    3    3    0    0 -0.10278532321E+03  0.16105131464E+03 -0.15263411680E+04  0.15382521607E+04  0.00000000000E+00 0. -1.
        -11    1    3    3    0    0 -0.12775658762E+03  0.71523902975E+02 -0.14291957028E+04  0.14366759451E+04  0.00000000000E+00 0.  1.
         22    1    1    2    0    0  0.23054191083E+03 -0.23257521761E+03  0.10470935534E+04  0.10971078862E+04  0.00000000000E+00 0. -1.
<mgrwt>
<rscale>  0 0.35971268E+04</rscale>
<asrwt>0</asrwt>
<pdfrwt beam="1">  1        2 0.46003688E+00 0.35971268E+04</pdfrwt>
<pdfrwt beam="2">  1       -2 0.16643020E+00 0.35971268E+04</pdfrwt>
<totfact> 0.32521724E-01</totfact>
</mgrwt>
</event>
<event>
 6    1  0.5040916E-004  0.4283669E+04  0.7818608E-02  0.7949645E-01
          2   -1    0    0  501    0  0.00000000000E+00  0.00000000000E+00  0.33429806391E+04  0.33429806391E+04  0.00000000000E+00 0.  1.
         -2   -1    0    0    0  501 -0.00000000000E+00 -0.00000000000E+00 -0.13722648896E+04  0.13722648896E+04  0.00000000000E+00 0. -1.
         23    2    1    2    0    0 -0.98400228939E+03  0.18497033658E+04  0.50128151005E+03  0.21561636560E+04  0.89975063710E+02 0.  0.
         11    1    3    3    0    0 -0.34535579746E+03  0.69634202450E+03  0.14756112496E+03  0.79116188453E+03  0.00000000000E+00 0. -1.
        -11    1    3    3    0    0 -0.63864649192E+03  0.11533613413E+04  0.35372038509E+03  0.13650017715E+04  0.00000000000E+00 0.  1.
         22    1    1    2    0    0  0.98400228939E+03 -0.18497033658E+04  0.14694342395E+04  0.25590818727E+04  0.00000000000E+00 0.  1.
<mgrwt>
<rscale>  0 0.42836690E+04</rscale>
<asrwt>0</asrwt>
<pdfrwt beam="1">  1        2 0.51430471E+00 0.42836690E+04</pdfrwt>
<pdfrwt beam="2">  1       -2 0.21111768E+00 0.42836690E+04</pdfrwt>
<totfact> 0.90389023E-02</totfact>
</mgrwt>
</event>
<event>
 6    1  0.5040916E-004  0.3182955E+04  0.7818608E-02  0.8193333E-01
         -2   -1    0    0    0  501 -0.00000000000E+00  0.00000000000E+00  0.70467529678E+03  0.70467529678E+03  0.00000000000E+00 0. -1.
          2   -1    0    0  501    0  0.00000000000E+00 -0.00000000000E+00 -0.35942804849E+04  0.35942804849E+04  0.00000000000E+00 0.  1.
         23    2    1    2    0    0  0.15838112027E+04 -0.10746696486E+03 -0.15696423266E+04  0.22344197490E+04  0.94061188857E+02 0.  0.
         11    1    3    3    0    0  0.52152431288E+03 -0.56039307434E+02 -0.46415938989E+03  0.70040841809E+03  0.00000000000E+00 0.  1.
        -11    1    3    3    0    0  0.10622868898E+04 -0.51427657431E+02 -0.11054829367E+04  0.15340113309E+04  0.00000000000E+00 0. -1.
         22    1    1    2    0    0 -0.15838112027E+04  0.10746696486E+03 -0.13199628615E+04  0.20645360326E+04  0.00000000000E+00 0.  1.
<mgrwt>
<rscale>  0 0.31829550E+04</rscale>
<asrwt>0</asrwt>
<pdfrwt beam="1">  1        2 0.55296623E+00 0.31829550E+04</pdfrwt>
<pdfrwt beam="2">  1       -2 0.10841158E+00 0.31829550E+04</pdfrwt>
<totfact> 0.39944124E-01</totfact>
</mgrwt>
</event>
<event>
 6    1  0.5040916E-004  0.3859056E+04  0.7818608E-02  0.8033599E-01
          2   -1    0    0  501    0  0.00000000000E+00  0.00000000000E+00  0.26326271403E+04  0.26326271403E+04  0.00000000000E+00 0.  1.
         -2   -1    0    0    0  501 -0.00000000000E+00 -0.00000000000E+00 -0.14142066818E+04  0.14142066818E+04  0.00000000000E+00 0. -1.
         23    2    1    2    0    0  0.16672112584E+04 -0.46770139029E+03 -0.28053532236E+03  0.17565922621E+04  0.92619314985E+02 0.  0.
         11    1    3    3    0    0  0.92332131459E+03 -0.30648955354E+03 -0.15248785634E+03  0.98473887033E+03  0.00000000000E+00 0.  1.
        -11    1    3    3    0    0  0.74388994379E+03 -0.16121183674E+03 -0.12804746602E+03  0.77185339174E+03  0.00000000000E+00 0. -1.
         22    1    1    2    0    0 -0.16672112584E+04  0.46770139029E+03  0.14989557808E+04  0.22902415601E+04  0.00000000000E+00 0.  1.
<mgrwt>
<rscale>  0 0.38590563E+04</rscale>
<asrwt>0</asrwt>
<pdfrwt beam="1">  1        2 0.40501956E+00 0.38590563E+04</pdfrwt>
<pdfrwt beam="2">  1       -2 0.21757026E+00 0.38590563E+04</pdfrwt>
<totfact> 0.23789326E-01</totfact>
</mgrwt>
</event>
<event>
 6    1  0.5040916E-004  0.1351348E+04  0.7818608E-02  0.8989808E-01
          2   -1    0    0  501    0  0.00000000000E+00  0.00000000000E+00  0.10955486582E+04  0.10955486582E+04  0.00000000000E+00 0.  1.
         -2   -1    0    0    0  501 -0.00000000000E+00 -0.00000000000E+00 -0.41671846544E+03  0.41671846544E+03  0.00000000000E+00 0. -1.
         23    2    1    2    0    0  0.45263060195E+03  0.39889980618E+03  0.83703665334E+01  0.61031818065E+03  0.91775276640E+02 0.  0.
         13    1    3    3    0    0  0.31874519600E+03  0.31162291440E+03  0.39434244272E+02  0.44750687187E+03  0.00000000000E+00 0. -1.
        -13    1    3    3    0    0  0.13388540595E+03  0.87276891779E+02 -0.31063877738E+02  0.16281130877E+03  0.00000000000E+00 0.  1.
         22    1    1    2    0    0 -0.45263060195E+03 -0.39889980618E+03  0.67045982622E+03  0.90194894299E+03  0.00000000000E+00 0.  1.
<mgrwt>
<rscale>  0 0.13513480E+04</rscale>
<asrwt>0</asrwt>
<pdfrwt beam="1">  1        2 0.16854595E+00 0.13513480E+04</pdfrwt>
<pdfrwt beam="2">  1       -2 0.64110534E-01 0.13513480E+04</pdfrwt>
<totfact> 0.48159357E+01</totfact>
</mgrwt>
</event>
<event>
 6    1  0.5040916E-004  0.1835999E+04  0.7818608E-02  0.8687386E-01
          2   -1    0    0  501    0  0.00000000000E+00  0.00000000000E+00  0.16413642674E+04  0.16413642674E+04  0.00000000000E+00 0.  1.
         -2   -1    0    0    0  501 -0.00000000000E+00 -0.00000000000E+00 -0.51342863170E+03  0.51342863170E+03  0.00000000000E+00 0. -1.
         23    2    1    2    0    0  0.48650369481E+03  0.55582398276E+03  0.11987718576E+04  0.14127390498E+04  0.11468003883E+03 0.  0.
         13    1    3    3    0    0  0.31196441476E+03  0.40664560545E+03  0.74627492286E+03  0.90532243151E+03  0.00000000000E+00 0.  1.
        -13    1    3    3    0    0  0.17453928005E+03  0.14917837731E+03  0.45249693479E+03  0.50741661831E+03  0.00000000000E+00 0. -1.
         22    1    1    2    0    0 -0.48650369481E+03 -0.55582398276E+03 -0.70836221971E+02  0.74205384927E+03  0.00000000000E+00 0. -1.
<mgrwt>
<rscale>  0 0.18359994E+04</rscale>
<asrwt>0</asrwt>
<pdfrwt beam="1">  1        2 0.25251758E+00 0.18359994E+04</pdfrwt>
<pdfrwt beam="2">  1       -2 0.78989021E-01 0.18359994E+04</pdfrwt>
<totfact> 0.14156839E+01</totfact>
</mgrwt>
</event>
<event>
 6    1  0.5040916E-004  0.1925421E+04  0.7818608E-02  0.8642305E-01
          2   -1    0    0  501    0  0.00000000000E+00  0.00000000000E+00  0.26725118366E+04  0.26725118366E+04  0.00000000000E+00 0.  1.
         -2   -1    0    0    0  501 -0.00000000000E+00 -0.00000000000E+00 -0.34679414665E+03  0.34679414665E+03  0.00000000000E+00 0. -1.
         23    2    1    2    0    0 -0.41392294351E+03  0.63532163964E+03  0.20903360217E+04  0.22253473453E+04  0.87751551465E+02 0.  0.
         11    1    3    3    0    0 -0.20844298264E+03  0.35063051979E+03  0.12403461820E+04  0.13056986213E+04  0.00000000000E+00 0. -1.
        -11    1    3    3    0    0 -0.20547996088E+03  0.28469111985E+03  0.84998983964E+03  0.91964872399E+03  0.00000000000E+00 0.  1.
         22    1    1    2    0    0  0.41392294351E+03 -0.63532163964E+03  0.23538166825E+03  0.79395863791E+03  0.00000000000E+00 0. -1.
<mgrwt>
<rscale>  0 0.19254210E+04</rscale>
<asrwt>0</asrwt>
<pdfrwt beam="1">  1        2 0.41115565E+00 0.19254210E+04</pdfrwt>
<pdfrwt beam="2">  1       -2 0.53352947E-01 0.19254210E+04</pdfrwt>
<totfact> 0.85459095E+00</totfact>
</mgrwt>
</event>
<event>
 6    1  0.5040916E-004  0.1086934E+04  0.7818608E-02  0.9218021E-01
         -2   -1    0    0    0  501 -0.00000000000E+00  0.00000000000E+00  0.39467382974E+03  0.39467382974E+03  0.00000000000E+00 0. -1.
          2   -1    0    0  501    0  0.00000000000E+00 -0.00000000000E+00 -0.74835558610E+03  0.74835558610E+03  0.00000000000E+00 0.  1.
         23    2    1    2    0    0 -0.60295838881E+02  0.13359658699E+03 -0.72426921455E+03  0.74450877597E+03  0.90795297896E+02 0.  0.
         11    1    3    3    0    0  0.15053791250E+02  0.16784874319E+02 -0.37042819284E+02  0.43364952408E+02  0.00000000000E+00 0. -1.
        -11    1    3    3    0    0 -0.75349630130E+02  0.11681171267E+03 -0.68722639526E+03  0.70114382357E+03  0.00000000000E+00 0.  1.
         22    1    1    2    0    0  0.60295838881E+02 -0.13359658699E+03  0.37058745818E+03  0.39852063987E+03  0.00000000000E+00 0. -1.
<mgrwt>
<rscale>  0 0.10869340E+04</rscale>
<asrwt>0</asrwt>
<pdfrwt beam="1">  1        2 0.11513163E+00 0.10869340E+04</pdfrwt>
<pdfrwt beam="2">  1       -2 0.60719051E-01 0.10869340E+04</pdfrwt>
<totfact> 0.94405975E+01</totfact>
</mgrwt>
</event>
<event>
 6    1  0.5040916E-004  0.1955310E+04  0.7818608E-02  0.8627805E-01
         -2   -1    0    0    0  501 -0.00000000000E+00  0.00000000000E+00  0.35216893567E+03  0.35216893567E+03  0.00000000000E+00 0. -1.
          2   -1    0    0  501    0  0.00000000000E+00 -0.00000000000E+00 -0.27140634028E+04  0.27140634028E+04  0.00000000000E+00 0.  1.
         23    2    1    2    0    0 -0.38506263252E+02 -0.92865715768E+02 -0.27050384679E+04  0.27086647523E+04  0.97595357452E+02 0.  0.
         11    1    3    3    0    0  0.29907834914E+02 -0.17780083672E+02 -0.45180264283E+03  0.45314041756E+03  0.00000000000E+00 0. -1.
        -11    1    3    3    0    0 -0.68414098165E+02 -0.75085632096E+02 -0.22532358251E+04  0.22555243347E+04  0.00000000000E+00 0.  1.
         22    1    1    2    0    0  0.38506263252E+02  0.92865715768E+02  0.34314400076E+03  0.35756758624E+03  0.00000000000E+00 0. -1.
<mgrwt>
<rscale>  0 0.19553095E+04</rscale>
<asrwt>0</asrwt>
<pdfrwt beam="1">  1        2 0.41754820E+00 0.19553095E+04</pdfrwt>
<pdfrwt beam="2">  1       -2 0.54179839E-01 0.19553095E+04</pdfrwt>
<totfact> 0.78008293E+00</totfact>
</mgrwt>
</event>
<event>
 6    1  0.5040916E-004  0.2336322E+04  0.7818608E-02  0.8463736E-01
          2   -1    0    0  501    0  0.00000000000E+00  0.00000000000E+00  0.10223493979E+04  0.10223493979E+04  0.00000000000E+00 0.  1.
         -2   -1    0    0    0  501 -0.00000000000E+00 -0.00000000000E+00 -0.13347684315E+04  0.13347684315E+04  0.00000000000E+00 0. -1.
         23    2    1    2    0    0 -0.42652389665E+03 -0.18165642161E+03 -0.12362765617E+04  0.13234668137E+04  0.90900936027E+02 0.  0.
         13    1    3    3    0    0 -0.29208429630E+03 -0.16870409797E+03 -0.87338289493E+03  0.93625423362E+03  0.00000000000E+00 0.  1.
        -13    1    3    3    0    0 -0.13443960035E+03 -0.12952323633E+02 -0.36289366673E+03  0.38721258009E+03  0.00000000000E+00 0. -1.
         22    1    1    2    0    0  0.42652389665E+03  0.18165642161E+03  0.92385752811E+03  0.10336510157E+04  0.00000000000E+00 0.  1.
<mgrwt>
<rscale>  0 0.23363216E+04</rscale>
<asrwt>0</asrwt>
<pdfrwt beam="1">  1        2 0.15728452E+00 0.23363216E+04</pdfrwt>
<pdfrwt beam="2">  1       -2 0.20534899E+00 0.23363216E+04</pdfrwt>
<totfact> 0.27029795E+00</totfact>
</mgrwt>
</event>
<event>
 6    1  0.5040916E-004  0.4456281E+03  0.7818608E-02  0.1029034E+00
          2   -1    0    0  501    0  0.00000000000E+00  0.00000000000E+00  0.41933876068E+03  0.41933876068E+03  0.00000000000E+00 0.  1.
         -2   -1    0    0    0  501 -0.00000000000E+00 -0.00000000000E+00 -0.11839140449E+03  0.11839140449E+03  0.00000000000E+00 0. -1.
         23    2    1    2    0    0  0.11346210545E+03 -0.74511177134E+02 -0.40387084320E+02  0.17039548784E+03  0.94751996321E+02 0.  0.
         11    1    3    3    0    0  0.12369421855E+03 -0.49680819263E+02 -0.16247125814E+02  0.13428481896E+03  0.00000000000E+00 0. -1.
        -11    1    3    3    0    0 -0.10232113104E+02 -0.24830357870E+02 -0.24139958506E+02  0.36110668883E+02  0.00000000000E+00 0.  1.
         22    1    1    2    0    0 -0.11346210545E+03  0.74511177134E+02  0.34133444051E+03  0.36733467733E+03  0.00000000000E+00 0.  1.
<mgrwt>
<rscale>  0 0.44562812E+03</rscale>
<asrwt>0</asrwt>
<pdfrwt beam="1">  1        2 0.64513655E-01 0.44562812E+03</pdfrwt>
<pdfrwt beam="2">  1       -2 0.18214062E-01 0.44562812E+03</pdfrwt>
<totfact> 0.18823768E+03</totfact>
</mgrwt>
</event>
<event>
 6    1  0.5040916E-004  0.3084392E+04  0.7818608E-02  0.8220035E-01
          2   -1    0    0  501    0  0.00000000000E+00  0.00000000000E+00  0.13380257168E+04  0.13380257168E+04  0.00000000000E+00 0.  1.
         -2   -1    0    0    0  501 -0.00000000000E+00 -0.00000000000E+00 -0.17775202887E+04  0.17775202887E+04  0.00000000000E+00 0. -1.
         23    2    1    2    0    0  0.54000109391E+03  0.10109692911E+04 -0.12602316120E+04  0.17058405831E+04  0.89712263902E+02 0.  0.
         13    1    3    3    0    0  0.61962117428E+02  0.15674881404E+03 -0.22442404542E+03  0.28066999637E+03  0.00000000000E+00 0. -1.
        -13    1    3    3    0    0  0.47803897649E+03  0.85422047701E+03 -0.10358075666E+04  0.14251705867E+04  0.00000000000E+00 0.  1.
         22    1    1    2    0    0 -0.54000109391E+03 -0.10109692911E+04  0.82073704012E+03  0.14097054224E+04  0.00000000000E+00 0.  1.
<mgrwt>
<rscale>  0 0.30843916E+04</rscale>
<asrwt>0</asrwt>
<pdfrwt beam="1">  1        2 0.20585011E+00 0.30843916E+04</pdfrwt>
<pdfrwt beam="2">  1       -2 0.27346466E+00 0.30843916E+04</pdfrwt>
<totfact> 0.61651501E-01</totfact>
</mgrwt>
</event>
<event>
 6    1  0.5040916E-004  0.3239602E+04  0.7818608E-02  0.8178436E-01
          2   -1    0    0  501    0  0.00000000000E+00  0.00000000000E+00  0.21991093878E+04  0.21991093878E+04  0.00000000000E+00 0.  1.
         -2   -1    0    0    0  501 -0.00000000000E+00 -0.00000000000E+00 -0.11930991412E+04  0.11930991412E+04  0.00000000000E+00 0. -1.
         23    2    1    2    0    0 -0.49456074112E+03  0.43001090298E+03  0.20530099366E+04  0.21570129759E+04  0.91408288168E+02 0.  0.
         11    1    3    3    0    0 -0.28492176809E+03  0.24563494876E+03  0.13228324080E+04  0.13752827061E+04  0.00000000000E+00 0.  1.
        -11    1    3    3    0    0 -0.20963897302E+03  0.18437595422E+03  0.73017752866E+03  0.78173026989E+03  0.00000000000E+00 0. -1.
         22    1    1    2    0    0  0.49456074112E+03 -0.43001090298E+03 -0.10469996901E+04  0.12351955531E+04  0.00000000000E+00 0. -1.
<mgrwt>
<rscale>  0 0.32396021E+04</rscale>
<asrwt>0</asrwt>
<pdfrwt beam="1">  1        2 0.33832452E+00 0.32396021E+04</pdfrwt>
<pdfrwt beam="2">  1       -2 0.18355371E+00 0.32396021E+04</pdfrwt>
<totfact> 0.74374621E-01</totfact>
</mgrwt>
</event>
<event>
 6    1  0.6372933E-004  0.3390245E+04  0.7818608E-02  0.8140305E-01
         -2   -1    0    0    0  501 -0.00000000000E+00  0.00000000000E+00  0.11575033116E+04  0.11575033116E+04  0.00000000000E+00 0. -1.
          2   -1    0    0  501    0  0.00000000000E+00 -0.00000000000E+00 -0.24824460271E+04  0.24824460271E+04  0.00000000000E+00 0.  1.
         23    2    1    2    0    0 -0.13368970053E+04 -0.41668221099E+03  0.36022689613E+03  0.14488961017E+04  0.92837648769E+02 0.  0.
         13    1    3    3    0    0 -0.86683199501E+03 -0.29191642694E+03  0.27528027471E+03  0.95519219927E+03  0.00000000000E+00 0.  1.
        -13    1    3    3    0    0 -0.47006501027E+03 -0.12476578405E+03  0.84946621412E+02  0.49370390240E+03  0.00000000000E+00 0. -1.
         22    1    1    2    0    0  0.13368970053E+04  0.41668221099E+03 -0.16851696116E+04  0.21910532370E+04  0.00000000000E+00 0.  1.
<mgrwt>
<rscale>  0 0.33902445E+04</rscale>
<asrwt>0</asrwt>
<pdfrwt beam="1">  1        2 0.38191477E+00 0.33902445E+04</pdfrwt>
<pdfrwt beam="2">  1       -2 0.17807744E+00 0.33902445E+04</pdfrwt>
<totfact> 0.55238085E-01</totfact>
</mgrwt>
</event>
<event>
 6    1  0.5040916E-004  0.3464656E+04  0.7818608E-02  0.8122217E-01
          2   -1    0    0  501    0  0.00000000000E+00  0.00000000000E+00  0.25114789081E+04  0.25114789081E+04  0.00000000000E+00 0.  1.
         -2   -1    0    0    0  501 -0.00000000000E+00 -0.00000000000E+00 -0.11948975860E+04  0.11948975860E+04  0.00000000000E+00 0. -1.
         23    2    1    2    0    0 -0.13186327487E+04 -0.61440614015E+03 -0.34507982740E+03  0.14978917178E+04  0.91171706083E+02 0.  0.
         13    1    3    3    0    0 -0.76833396054E+03 -0.33506205837E+03 -0.23974834634E+03  0.87182734957E+03  0.00000000000E+00 0. -1.
        -13    1    3    3    0    0 -0.55029878818E+03 -0.27934408178E+03 -0.10533148106E+03  0.62606436825E+03  0.00000000000E+00 0.  1.
         22    1    1    2    0    0  0.13186327487E+04  0.61440614015E+03  0.16616611495E+04  0.22084847762E+04  0.00000000000E+00 0.  1.
<mgrwt>
<rscale>  0 0.34646559E+04</rscale>
<asrwt>0</asrwt>
<pdfrwt beam="1">  1        2 0.38638137E+00 0.34646559E+04</pdfrwt>
<pdfrwt beam="2">  1       -2 0.18383040E+00 0.34646559E+04</pdfrwt>
<totfact> 0.48205635E-01</totfact>
</mgrwt>
</event>
<event>
 6    1  0.5300790E-004  0.2255082E+04  0.7818608E-02  0.8495845E-01
         -2   -1    0    0    0  501 -0.00000000000E+00  0.00000000000E+00  0.24408651050E+04  0.24408651050E+04  0.00000000000E+00 0. -1.
          2   -1    0    0  501    0  0.00000000000E+00 -0.00000000000E+00 -0.52086003745E+03  0.52086003745E+03  0.00000000000E+00 0.  1.
         23    2    1    2    0    0 -0.10820056558E+04 -0.18055259801E+03  0.63909168265E+03  0.12752867121E+04  0.12075818513E+03 0.  0.
         11    1    3    3    0    0 -0.66038088337E+03 -0.16706819217E+03  0.41445975615E+03  0.79736540019E+03  0.00000000000E+00 0. -1.
        -11    1    3    3    0    0 -0.42162477245E+03 -0.13484405841E+02  0.22463192650E+03  0.47792131188E+03  0.00000000000E+00 0.  1.
         22    1    1    2    0    0  0.10820056558E+04  0.18055259801E+03  0.12809133849E+04  0.16864384304E+04  0.00000000000E+00 0.  1.
<mgrwt>
<rscale>  0 0.22550823E+04</rscale>
<asrwt>0</asrwt>
<pdfrwt beam="1">  1        2 0.80132315E-01 0.22550823E+04</pdfrwt>
<pdfrwt beam="2">  1       -2 0.37551770E+00 0.22550823E+04</pdfrwt>
<totfact> 0.57241197E-01</totfact>
</mgrwt>
</event>
<event>
 6    1  0.5040916E-004  0.2304106E+04  0.7818608E-02  0.8476304E-01
         -2   -1    0    0    0  501 -0.00000000000E+00  0.00000000000E+00  0.49324635991E+03  0.49324635991E+03  0.00000000000E+00 0. -1.
          2   -1    0    0  501    0  0.00000000000E+00 -0.00000000000E+00 -0.26907983923E+04  0.26907983923E+04  0.00000000000E+00 0.  1.
         23    2    1    2    0    0  0.79343229473E+03  0.77617918652E+03 -0.68267656362E+03  0.13060573663E+04  0.88031912092E+02 0.  0.
         11    1    3    3    0    0  0.62228714914E+03  0.55618232674E+03 -0.50439451480E+03  0.97518916274E+03  0.00000000000E+00 0. -1.
        -11    1    3    3    0    0  0.17114514559E+03  0.21999685978E+03 -0.17828204882E+03  0.33086820352E+03  0.00000000000E+00 0.  1.
         22    1    1    2    0    0 -0.79343229473E+03 -0.77617918652E+03 -0.15148754688E+04  0.18779873860E+04  0.00000000000E+00 0.  1.
<mgrwt>
<rscale>  0 0.23041063E+04</rscale>
<asrwt>0</asrwt>
<pdfrwt beam="1">  1        2 0.41396898E+00 0.23041063E+04</pdfrwt>
<pdfrwt beam="2">  1       -2 0.75884056E-01 0.23041063E+04</pdfrwt>
<totfact> 0.37925114E+00</totfact>
</mgrwt>
</event>
<event>
 6    1  0.5040916E-004  0.4096154E+04  0.7818608E-02  0.7985425E-01
          2   -1    0    0  501    0  0.00000000000E+00  0.00000000000E+00  0.23941540246E+04  0.23941540246E+04  0.00000000000E+00 0.  1.
         -2   -1    0    0    0  501 -0.00000000000E+00 -0.00000000000E+00 -0.17520259083E+04  0.17520259083E+04  0.00000000000E+00 0. -1.
         23    2    1    2    0    0  0.33791749347E+03 -0.63459971736E+03 -0.16188377081E+04  0.17736556458E+04  0.91179991083E+02 0.  0.
         13    1    3    3    0    0  0.71793590083E+02 -0.20406468369E+03 -0.42273619496E+03  0.47487114592E+03  0.00000000000E+00 0.  1.
        -13    1    3    3    0    0  0.26612390339E+03 -0.43053503368E+03 -0.11961015132E+04  0.12987844998E+04  0.00000000000E+00 0. -1.
         22    1    1    2    0    0 -0.33791749347E+03  0.63459971736E+03  0.22609658244E+04  0.23725242871E+04  0.00000000000E+00 0.  1.
<mgrwt>
<rscale>  0 0.40961542E+04</rscale>
<asrwt>0</asrwt>
<pdfrwt beam="1">  1        2 0.36833139E+00 0.40961542E+04</pdfrwt>
<pdfrwt beam="2">  1       -2 0.26954245E+00 0.40961542E+04</pdfrwt>
<totfact> 0.15298534E-01</totfact>
</mgrwt>
</event>
<event>
 6    1  0.5040916E-004  0.2144752E+04  0.7818608E-02  0.8541782E-01
         -2   -1    0    0    0  501 -0.00000000000E+00  0.00000000000E+00  0.50822697022E+03  0.50822697022E+03  0.00000000000E+00 0. -1.
          2   -1    0    0  501    0  0.00000000000E+00 -0.00000000000E+00 -0.22627501397E+04  0.22627501397E+04  0.00000000000E+00 0.  1.
         23    2    1    2    0    0 -0.48212403729E+02  0.67047797701E+03 -0.19550720287E+04  0.20694894062E+04  0.92814932109E+02 0.  0.
         11    1    3    3    0    0  0.26079448793E+02  0.27134556046E+03 -0.78236102557E+03  0.82849099281E+03  0.00000000000E+00 0. -1.
        -11    1    3    3    0    0 -0.74291852522E+02  0.39913241655E+03 -0.11727110031E+04  0.12409984134E+04  0.00000000000E+00 0.  1.
         22    1    1    2    0    0  0.48212403729E+02 -0.67047797701E+03  0.20054885919E+03  0.70148770371E+03  0.00000000000E+00 0. -1.
<mgrwt>
<rscale>  0 0.21447523E+04</rscale>
<asrwt>0</asrwt>
<pdfrwt beam="1">  1        2 0.34811540E+00 0.21447523E+04</pdfrwt>
<pdfrwt beam="2">  1       -2 0.78188765E-01 0.21447523E+04</pdfrwt>
<totfact> 0.63591454E+00</totfact>
</mgrwt>
</event>
<event>
 6    1  0.5040916E-004  0.8562389E+03  0.7818608E-02  0.9482001E-01
          2   -1    0    0  501    0  0.00000000000E+00  0.00000000000E+00  0.38745077539E+03  0.38745077539E+03  0.00000000000E+00 0.  1.
         -2   -1    0    0    0  501 -0.00000000000E+00 -0.00000000000E+00 -0.47305693877E+03  0.47305693877E+03  0.00000000000E+00 0. -1.
         23    2    1    2    0    0  0.41768339733E+03  0.43207235126E+02 -0.94764448204E+02  0.44049561939E+03  0.93433422748E+02 0.  0.
         11    1    3    3    0    0  0.24039147770E+03 -0.99141959293E+00 -0.14223622653E+02  0.24081394665E+03  0.00000000000E+00 0.  1.
        -11    1    3    3    0    0  0.17729191964E+03  0.44198654719E+02 -0.80540825551E+02  0.19968167274E+03  0.00000000000E+00 0. -1.
         22    1    1    2    0    0 -0.41768339733E+03 -0.43207235126E+02  0.91582848233E+01  0.42001209477E+03  0.00000000000E+00 0.  1.
<mgrwt>
<rscale>  0 0.85623893E+03</rscale>
<asrwt>0</asrwt>
<pdfrwt beam="1">  1        2 0.59607812E-01 0.85623893E+03</pdfrwt>
<pdfrwt beam="2">  1       -2 0.72777990E-01 0.85623893E+03</pdfrwt>
<totfact> 0.14150254E+02</totfact>
</mgrwt>
</event>
<event>
 6    1  0.5040916E-004  0.2198660E+04  0.7818608E-02  0.8518986E-01
          2   -1    0    0  501    0  0.00000000000E+00  0.00000000000E+00  0.17867660018E+04  0.17867660018E+04  0.00000000000E+00 0.  1.
         -2   -1    0    0    0  501 -0.00000000000E+00 -0.00000000000E+00 -0.67637656973E+03  0.67637656973E+03  0.00000000000E+00 0. -1.
         23    2    1    2    0    0  0.69648832551E+03 -0.18015718485E+03  0.14843193977E+04  0.16523551654E+04  0.97575197258E+02 0.  0.
         11    1    3    3    0    0  0.36844531808E+03 -0.70901236998E+02  0.86910008861E+03  0.94663292878E+03  0.00000000000E+00 0. -1.
        -11    1    3    3    0    0  0.32804300743E+03 -0.10925594785E+03  0.61521930914E+03  0.70572223658E+03  0.00000000000E+00 0.  1.
         22    1    1    2    0    0 -0.69648832551E+03  0.18015718485E+03 -0.37392996566E+03  0.81078740620E+03  0.00000000000E+00 0. -1.
<mgrwt>
<rscale>  0 0.21986602E+04</rscale>
<asrwt>0</asrwt>
<pdfrwt beam="1">  1        2 0.27488708E+00 0.21986602E+04</pdfrwt>
<pdfrwt beam="2">  1       -2 0.10405793E+00 0.21986602E+04</pdfrwt>
<totfact> 0.60263651E+00</totfact>
</mgrwt>
</event>
<event>
 6    1  0.5040916E-004  0.1870918E+04  0.7818608E-02  0.8669470E-01
         -2   -1    0    0    0  501 -0.00000000000E+00  0.00000000000E+00  0.42594723024E+03  0.42594723024E+03  0.00000000000E+00 0.  1.
          2   -1    0    0  501    0  0.00000000000E+00 -0.00000000000E+00 -0.20544402913E+04  0.20544402913E+04  0.00000000000E+00 0. -1.
         23    2    1    2    0    0  0.78806026136E+03 -0.34795989849E+03 -0.12920251374E+04  0.15555493032E+04  0.91047309460E+02 0.  0.
         13    1    3    3    0    0  0.22813410708E+03 -0.10789549147E+03 -0.45487385564E+03  0.52018922753E+03  0.00000000000E+00 0.  1.
        -13    1    3    3    0    0  0.55992615428E+03 -0.24006440702E+03 -0.83715128173E+03  0.10353600757E+04  0.00000000000E+00 0. -1.
         22    1    1    2    0    0 -0.78806026136E+03  0.34795989849E+03 -0.33646792372E+03  0.92483821838E+03  0.00000000000E+00 0.  1.
<mgrwt>
<rscale>  0 0.18709176E+04</rscale>
<asrwt>0</asrwt>
<pdfrwt beam="1">  1        2 0.31606773E+00 0.18709176E+04</pdfrwt>
<pdfrwt beam="2">  1       -2 0.65530344E-01 0.18709176E+04</pdfrwt>
<totfact> 0.12547054E+01</totfact>
</mgrwt>
</event>
<event>
 6    1  0.5040916E-004  0.1303262E+04  0.7818608E-02  0.9026982E-01
         -2   -1    0    0    0  501 -0.00000000000E+00  0.00000000000E+00  0.39649461307E+03  0.39649461307E+03  0.00000000000E+00 0. -1.
          2   -1    0    0  501    0  0.00000000000E+00 -0.00000000000E+00 -0.10709422839E+04  0.10709422839E+04  0.00000000000E+00 0.  1.
         23    2    1    2    0    0 -0.50334061516E+03 -0.34242491636E+03 -0.59029384347E+03  0.85287325920E+03  0.91320186198E+02 0.  0.
         11    1    3    3    0    0 -0.31641136912E+03 -0.17970790011E+03 -0.39734469976E+03  0.53878928562E+03  0.00000000000E+00 0. -1.
        -11    1    3    3    0    0 -0.18692924603E+03 -0.16271701625E+03 -0.19294914371E+03  0.31408397358E+03  0.00000000000E+00 0.  1.
         22    1    1    2    0    0  0.50334061516E+03  0.34242491636E+03 -0.84153827370E+02  0.61456363777E+03  0.00000000000E+00 0. -1.
<mgrwt>
<rscale>  0 0.13032618E+04</rscale>
<asrwt>0</asrwt>
<pdfrwt beam="1">  1        2 0.16476035E+00 0.13032618E+04</pdfrwt>
<pdfrwt beam="2">  1       -2 0.60999173E-01 0.13032618E+04</pdfrwt>
<totfact> 0.55661632E+01</totfact>
</mgrwt>
</event>
<event>
 6    1  0.5040916E-004  0.3419353E+04  0.7818608E-02  0.8133173E-01
          1   -1    0    0  501    0  0.00000000000E+00  0.00000000000E+00  0.14996629346E+04  0.14996629346E+04  0.00000000000E+00 0.  1.
         -1   -1    0    0    0  501 -0.00000000000E+00 -0.00000000000E+00 -0.19491001746E+04  0.19491001746E+04  0.00000000000E+00 0. -1.
         23    2    1    2    0    0  0.10472090139E+04  0.14093045907E+02 -0.15862858446E+04  0.19030367161E+04  0.91654947036E+02 0.  0.
         13    1    3    3    0    0  0.26205180195E+03  0.34368861664E+02 -0.44604385828E+03  0.51846647825E+03  0.00000000000E+00 0. -1.
        -13    1    3    3    0    0  0.78515721196E+03 -0.20275815757E+02 -0.11402419863E+04  0.13845702378E+04  0.00000000000E+00 0.  1.
         22    1    1    2    0    0 -0.10472090139E+04 -0.14093045907E+02  0.11368486046E+04  0.15457263932E+04  0.00000000000E+00 0.  1.
<mgrwt>
<rscale>  0 0.34193527E+04</rscale>
<asrwt>0</asrwt>
<pdfrwt beam="1">  1        1 0.23071737E+00 0.34193527E+04</pdfrwt>
<pdfrwt beam="2">  1       -1 0.29986157E+00 0.34193527E+04</pdfrwt>
<totfact> 0.17788493E-01</totfact>
</mgrwt>
</event>
<event>
 6    1  0.5040916E-004  0.1972352E+04  0.7818608E-02  0.8619657E-01
         -2   -1    0    0    0  501 -0.00000000000E+00  0.00000000000E+00  0.57264845048E+03  0.57264845048E+03  0.00000000000E+00 0. -1.
          2   -1    0    0  501    0  0.00000000000E+00 -0.00000000000E+00 -0.16983247598E+04  0.16983247598E+04  0.00000000000E+00 0.  1.
         23    2    1    2    0    0 -0.54290684961E+03  0.47834898583E+03 -0.13319639959E+04  0.15185636083E+04  0.91333162974E+02 0.  0.
         11    1    3    3    0    0 -0.24603931613E+03  0.17840332150E+03 -0.63080034018E+03  0.70019437257E+03  0.00000000000E+00 0.  1.
        -11    1    3    3    0    0 -0.29686753348E+03  0.29994566433E+03 -0.70116365567E+03  0.81836923575E+03  0.00000000000E+00 0. -1.
         22    1    1    2    0    0  0.54290684961E+03 -0.47834898583E+03  0.20628768649E+03  0.75240960201E+03  0.00000000000E+00 0. -1.
<mgrwt>
<rscale>  0 0.19723519E+04</rscale>
<asrwt>0</asrwt>
<pdfrwt beam="1">  1        2 0.26128073E+00 0.19723519E+04</pdfrwt>
<pdfrwt beam="2">  1       -2 0.88099764E-01 0.19723519E+04</pdfrwt>
<totfact> 0.10158269E+01</totfact>
</mgrwt>
</event>
<event>
 6    1  0.5040916E-004  0.1722756E+04  0.7818608E-02  0.8748491E-01
         -2   -1    0    0    0  501 -0.00000000000E+00  0.00000000000E+00  0.53745263805E+03  0.53745263805E+03  0.00000000000E+00 0. -1.
          2   -1    0    0  501    0  0.00000000000E+00 -0.00000000000E+00 -0.13805348907E+04  0.13805348907E+04  0.00000000000E+00 0.  1.
         23    2    1    2    0    0 -0.57361584244E+03 -0.58358915847E+03 -0.71361172443E+03  0.10895105778E+04  0.90444266703E+02 0.  0.
         13    1    3    3    0    0 -0.45729135146E+03 -0.41757036117E+03 -0.51057557312E+03  0.80260064946E+03  0.00000000000E+00 0. -1.
        -13    1    3    3    0    0 -0.11632449098E+03 -0.16601879729E+03 -0.20303615131E+03  0.28690992837E+03  0.00000000000E+00 0.  1.
         22    1    1    2    0    0  0.57361584244E+03  0.58358915847E+03 -0.12947052826E+03  0.82847695096E+03  0.00000000000E+00 0. -1.
<mgrwt>
<rscale>  0 0.17227561E+04</rscale>
<asrwt>0</asrwt>
<pdfrwt beam="1">  1        2 0.21238998E+00 0.17227561E+04</pdfrwt>
<pdfrwt beam="2">  1       -2 0.82685024E-01 0.17227561E+04</pdfrwt>
<totfact> 0.18094665E+01</totfact>
</mgrwt>
</event>
<event>
 6    1  0.5040916E-004  0.8601903E+03  0.7818608E-02  0.9476761E-01
         -2   -1    0    0    0  501 -0.00000000000E+00  0.00000000000E+00  0.26884390066E+03  0.26884390066E+03  0.00000000000E+00 0. -1.
          2   -1    0    0  501    0  0.00000000000E+00 -0.00000000000E+00 -0.68806413486E+03  0.68806413486E+03  0.00000000000E+00 0.  1.
         23    2    1    2    0    0 -0.27449875019E+01  0.38997081339E+03 -0.23046907806E+02  0.40099610473E+03  0.90454108772E+02 0.  0.
         13    1    3    3    0    0 -0.87231293247E+01  0.19688499564E+03 -0.56332540866E+02  0.20497109468E+03  0.00000000000E+00 0. -1.
        -13    1    3    3    0    0  0.59781418228E+01  0.19308581775E+03  0.33285633061E+02  0.19602501005E+03  0.00000000000E+00 0.  1.
         22    1    1    2    0    0  0.27449875019E+01 -0.38997081339E+03 -0.39617332639E+03  0.55591193079E+03  0.00000000000E+00 0.  1.
<mgrwt>
<rscale>  0 0.86019032E+03</rscale>
<asrwt>0</asrwt>
<pdfrwt beam="1">  1        2 0.10585602E+00 0.86019032E+03</pdfrwt>
<pdfrwt beam="2">  1       -2 0.41360601E-01 0.86019032E+03</pdfrwt>
<totfact> 0.23283334E+02</totfact>
</mgrwt>
</event>
<event>
 6    1  0.5040916E-004  0.2546958E+04  0.7818608E-02  0.8386445E-01
         -2   -1    0    0    0  501 -0.00000000000E+00  0.00000000000E+00  0.52189698905E+03  0.52189698905E+03  0.00000000000E+00 0. -1.
          2   -1    0    0  501    0  0.00000000000E+00 -0.00000000000E+00 -0.31074108180E+04  0.31074108180E+04  0.00000000000E+00 0.  1.
         23    2    1    2    0    0 -0.43641356736E+03  0.43353171532E+03 -0.28808353356E+04  0.29469432840E+04  0.82800596206E+02 0.  0.
         13    1    3    3    0    0 -0.21222567123E+03  0.15542714309E+03 -0.11680667909E+04  0.11973209095E+04  0.00000000000E+00 0. -1.
        -13    1    3    3    0    0 -0.22418789613E+03  0.27810457223E+03 -0.17127685447E+04  0.17496223746E+04  0.00000000000E+00 0.  1.
         22    1    1    2    0    0  0.43641356736E+03 -0.43353171532E+03  0.29532150663E+03  0.68236452300E+03  0.00000000000E+00 0. -1.
<mgrwt>
<rscale>  0 0.25469577E+04</rscale>
<asrwt>0</asrwt>
<pdfrwt beam="1">  1        2 0.47806322E+00 0.25469577E+04</pdfrwt>
<pdfrwt beam="2">  1       -2 0.80291841E-01 0.25469577E+04</pdfrwt>
<totfact> 0.18134134E+00</totfact>
</mgrwt>
</event>
<event>
 6    1  0.5040916E-004  0.1300653E+04  0.7818608E-02  0.9029048E-01
          2   -1    0    0  501    0  0.00000000000E+00  0.00000000000E+00  0.15031292573E+04  0.15031292573E+04  0.00000000000E+00 0.  1.
         -2   -1    0    0    0  501 -0.00000000000E+00 -0.00000000000E+00 -0.28136260033E+03  0.28136260033E+03  0.00000000000E+00 0. -1.
         23    2    1    2    0    0 -0.47728706354E+03 -0.39540914710E+03  0.86884302878E+03  0.10712552756E+04  0.92457136879E+02 0.  0.
         13    1    3    3    0    0 -0.47297088876E+03 -0.37676111745E+03  0.82041397743E+03  0.10191807963E+04  0.00000000000E+00 0.  1.
        -13    1    3    3    0    0 -0.43161747776E+01 -0.18648029649E+02  0.48429051352E+02  0.52074479251E+02  0.00000000000E+00 0. -1.
         22    1    1    2    0    0  0.47728706354E+03  0.39540914710E+03  0.35292362817E+03  0.71323658204E+03  0.00000000000E+00 0. -1.
<mgrwt>
<rscale>  0 0.13006527E+04</rscale>
<asrwt>0</asrwt>
<pdfrwt beam="1">  1        2 0.23125065E+00 0.13006527E+04</pdfrwt>
<pdfrwt beam="2">  1       -2 0.43286555E-01 0.13006527E+04</pdfrwt>
<totfact> 0.62680828E+01</totfact>
</mgrwt>
</event>
<event>
 6    1  0.5040916E-004  0.3664683E+04  0.7818608E-02  0.8075834E-01
         -2   -1    0    0    0  501 -0.00000000000E+00  0.00000000000E+00  0.20324746213E+04  0.20324746213E+04  0.00000000000E+00 0. -1.
          2   -1    0    0  501    0  0.00000000000E+00 -0.00000000000E+00 -0.16519145798E+04  0.16519145798E+04  0.00000000000E+00 0.  1.
         23    2    1    2    0    0  0.16486357095E+04 -0.53640756942E+03  0.78318036901E+03  0.19045476600E+04  0.90540132581E+02 0.  0.
         11    1    3    3    0    0  0.54618972546E+03 -0.13451262029E+03  0.24242892681E+03  0.61252644495E+03  0.00000000000E+00 0.  1.
        -11    1    3    3    0    0  0.11024459840E+04 -0.40189494913E+03  0.54075144221E+03  0.12920212150E+04  0.00000000000E+00 0. -1.
         22    1    1    2    0    0 -0.16486357095E+04  0.53640756942E+03 -0.40262032752E+03  0.17798415410E+04  0.00000000000E+00 0.  1.
<mgrwt>
<rscale>  0 0.36646825E+04</rscale>
<asrwt>0</asrwt>
<pdfrwt beam="1">  1        2 0.25414070E+00 0.36646825E+04</pdfrwt>
<pdfrwt beam="2">  1       -2 0.31268840E+00 0.36646825E+04</pdfrwt>
<totfact> 0.22461968E-01</totfact>
</mgrwt>
</event>
<event>
 6    1  0.5040916E-004  0.4687175E+04  0.7818608E-02  0.7878663E-01
          2   -1    0    0  501    0  0.00000000000E+00  0.00000000000E+00  0.35850757769E+04  0.35850757769E+04  0.00000000000E+00 0.  1.
         -2   -1    0    0    0  501 -0.00000000000E+00 -0.00000000000E+00 -0.15320186973E+04  0.15320186973E+04  0.00000000000E+00 0. -1.
         23    2    1    2    0    0 -0.41751586024E+03 -0.22206978303E+04  0.17021789787E+04  0.28304082717E+04  0.89327274000E+02 0.  0.
         11    1    3    3    0    0 -0.27949491288E+03 -0.15220727492E+04  0.12165544397E+04  0.19684581695E+04  0.00000000000E+00 0.  1.
        -11    1    3    3    0    0 -0.13802094735E+03 -0.69862508109E+03  0.48562453903E+03  0.86195010224E+03  0.00000000000E+00 0. -1.
         22    1    1    2    0    0  0.41751586024E+03  0.22206978303E+04  0.35087810087E+03  0.22866862025E+04  0.00000000000E+00 0. -1.
<mgrwt>
<rscale>  0 0.46871753E+04</rscale>
<asrwt>0</asrwt>
<pdfrwt beam="1">  1        2 0.55155012E+00 0.46871753E+04</pdfrwt>
<pdfrwt beam="2">  1       -2 0.23569518E+00 0.46871753E+04</pdfrwt>
<totfact> 0.41511106E-02</totfact>
</mgrwt>
</event>
<event>
 6    1  0.5040916E-004  0.1088292E+04  0.7818608E-02  0.9216679E-01
         -2   -1    0    0    0  501 -0.00000000000E+00  0.00000000000E+00  0.22885156096E+03  0.22885156096E+03  0.00000000000E+00 0. -1.
          2   -1    0    0  501    0  0.00000000000E+00 -0.00000000000E+00 -0.12938304592E+04  0.12938304592E+04  0.00000000000E+00 0.  1.
         23    2    1    2    0    0  0.20740654618E+03 -0.16847916482E+03 -0.11931983670E+04  0.12262989293E+04  0.93188071316E+02 0.  0.
         11    1    3    3    0    0  0.88170532196E+02 -0.32772961136E+02 -0.55962260347E+03  0.56747296679E+03  0.00000000000E+00 0.  1.
        -11    1    3    3    0    0  0.11923601398E+03 -0.13570620368E+03 -0.63357576354E+03  0.65882596252E+03  0.00000000000E+00 0. -1.
         22    1    1    2    0    0 -0.20740654618E+03  0.16847916482E+03  0.12821946875E+03  0.29638309085E+03  0.00000000000E+00 0. -1.
<mgrwt>
<rscale>  0 0.10882925E+04</rscale>
<asrwt>0</asrwt>
<pdfrwt beam="1">  1        2 0.19905085E+00 0.10882925E+04</pdfrwt>
<pdfrwt beam="2">  1       -2 0.35207931E-01 0.10882925E+04</pdfrwt>
<totfact> 0.12531797E+02</totfact>
</mgrwt>
</event>
<event>
 6    1  0.5040916E-004  0.5112751E+04  0.7818608E-02  0.7811346E-01
          2   -1    0    0  501    0  0.00000000000E+00  0.00000000000E+00  0.20328244946E+04  0.20328244946E+04  0.00000000000E+00 0.  1.
         -2   -1    0    0    0  501 -0.00000000000E+00 -0.00000000000E+00 -0.32147660876E+04  0.32147660876E+04  0.00000000000E+00 0. -1.
         23    2    1    2    0    0  0.54263620410E+03  0.22334466391E+04 -0.17376159420E+04  0.28829527829E+04  0.96796934607E+02 0.  0.
         11    1    3    3    0    0  0.40362813816E+03  0.16281638187E+04 -0.13204172548E+04  0.21347915170E+04  0.00000000000E+00 0.  1.
        -11    1    3    3    0    0  0.13900806594E+03  0.60528282040E+03 -0.41719868725E+03  0.74816126585E+03  0.00000000000E+00 0. -1.
         22    1    1    2    0    0 -0.54263620410E+03 -0.22334466391E+04  0.55567434895E+03  0.23646377993E+04  0.00000000000E+00 0.  1.
<mgrwt>
<rscale>  0 0.51127508E+04</rscale>
<asrwt>0</asrwt>
<pdfrwt beam="1">  1        2 0.31274223E+00 0.51127508E+04</pdfrwt>
<pdfrwt beam="2">  1       -2 0.49457940E+00 0.51127508E+04</pdfrwt>
<totfact> 0.82987683E-03</totfact>
</mgrwt>
</event>
<event>
 6    1  0.5040916E-004  0.3125135E+04  0.7818608E-02  0.8208874E-01
         -2   -1    0    0    0  501 -0.00000000000E+00  0.00000000000E+00  0.68107868216E+03  0.68107868216E+03  0.00000000000E+00 0. -1.
          2   -1    0    0  501    0  0.00000000000E+00 -0.00000000000E+00 -0.35849258685E+04  0.35849258685E+04  0.00000000000E+00 0.  1.
         23    2    1    2    0    0  0.44244556666E+03 -0.12079196173E+04 -0.26607969278E+04  0.29568440144E+04  0.90875482564E+02 0.  0.
         13    1    3    3    0    0  0.11920606224E+03 -0.43919133184E+03 -0.89654786066E+03  0.10054338256E+04  0.00000000000E+00 0. -1.
        -13    1    3    3    0    0  0.32323950442E+03 -0.76872828550E+03 -0.17642490671E+04  0.19514101888E+04  0.00000000000E+00 0.  1.
         22    1    1    2    0    0 -0.44244556666E+03  0.12079196173E+04 -0.24305025855E+03  0.13091605362E+04  0.00000000000E+00 0.  1.
<mgrwt>
<rscale>  0 0.31251346E+04</rscale>
<asrwt>0</asrwt>
<pdfrwt beam="1">  1        2 0.55152705E+00 0.31251346E+04</pdfrwt>
<pdfrwt beam="2">  1       -2 0.10478134E+00 0.31251346E+04</pdfrwt>
<totfact> 0.44252792E-01</totfact>
</mgrwt>
</event>
<event>
 6    1  0.5040916E-004  0.1455267E+04  0.7818608E-02  0.8914757E-01
          2   -1    0    0  501    0  0.00000000000E+00  0.00000000000E+00  0.19651414108E+04  0.19651414108E+04  0.00000000000E+00 0.  1.
         -2   -1    0    0    0  501 -0.00000000000E+00 -0.00000000000E+00 -0.26942121694E+03  0.26942121694E+03  0.00000000000E+00 0. -1.
         23    2    1    2    0    0 -0.34119584603E+03  0.27815010648E+03 -0.30629200020E+02  0.45297223800E+03  0.10229180524E+03 0.  0.
         13    1    3    3    0    0 -0.14204882946E+03  0.88401264190E+02  0.33248072392E+02  0.17058161618E+03  0.00000000000E+00 0.  1.
        -13    1    3    3    0    0 -0.19914701658E+03  0.18974884229E+03 -0.63877272412E+02  0.28239062182E+03  0.00000000000E+00 0. -1.
         22    1    1    2    0    0  0.34119584603E+03 -0.27815010648E+03  0.17263493939E+04  0.17815903897E+04  0.00000000000E+00 0.  1.
<mgrwt>
<rscale>  0 0.14552674E+04</rscale>
<asrwt>0</asrwt>
<pdfrwt beam="1">  1        2 0.30232944E+00 0.14552674E+04</pdfrwt>
<pdfrwt beam="2">  1       -2 0.41449419E-01 0.14552674E+04</pdfrwt>
<totfact> 0.37360231E+01</totfact>
</mgrwt>
</event>
<event>
 6    1  0.5040916E-004  0.1272922E+04  0.7818608E-02  0.9051318E-01
          2   -1    0    0  501    0  0.00000000000E+00  0.00000000000E+00  0.19101963598E+04  0.19101963598E+04  0.00000000000E+00 0.  1.
         -2   -1    0    0    0  501 -0.00000000000E+00 -0.00000000000E+00 -0.21206339865E+03  0.21206339865E+03  0.00000000000E+00 0. -1.
         23    2    1    2    0    0  0.39879767380E+02  0.43896246604E+03  0.16112067987E+04  0.16729997000E+04  0.93070969867E+02 0.  0.
         13    1    3    3    0    0  0.35953375406E+02  0.26564051221E+03  0.80834743768E+03  0.85163554819E+03  0.00000000000E+00 0. -1.
        -13    1    3    3    0    0  0.39263919741E+01  0.17332195383E+03  0.80285936102E+03  0.82136415177E+03  0.00000000000E+00 0.  1.
         22    1    1    2    0    0 -0.39879767380E+02 -0.43896246604E+03  0.86926162453E+02  0.44926005849E+03  0.00000000000E+00 0. -1.
<mgrwt>
<rscale>  0 0.12729222E+04</rscale>
<asrwt>0</asrwt>
<pdfrwt beam="1">  1        2 0.29387635E+00 0.12729222E+04</pdfrwt>
<pdfrwt beam="2">  1       -2 0.32625140E-01 0.12729222E+04</pdfrwt>
<totfact> 0.64492462E+01</totfact>
</mgrwt>
</event>
<event>
 6    1  0.5040916E-004  0.1969238E+04  0.7818608E-02  0.8621139E-01
         -2   -1    0    0    0  501 -0.00000000000E+00  0.00000000000E+00  0.67463465121E+03  0.67463465121E+03  0.00000000000E+00 0. -1.
          2   -1    0    0  501    0  0.00000000000E+00 -0.00000000000E+00 -0.14370369065E+04  0.14370369065E+04  0.00000000000E+00 0.  1.
         23    2    1    2    0    0 -0.95719352006E+03  0.56122643286E+02 -0.61241896802E+03  0.11411746889E+04  0.88619931263E+02 0.  0.
         13    1    3    3    0    0 -0.25913682628E+03 -0.23919819624E+01 -0.12456921511E+03  0.28753279059E+03  0.00000000000E+00 0.  1.
        -13    1    3    3    0    0 -0.69805669377E+03  0.58514625249E+02 -0.48784975292E+03  0.85364189829E+03  0.00000000000E+00 0. -1.
         22    1    1    2    0    0  0.95719352006E+03 -0.56122643286E+02 -0.14998328724E+03  0.97049686882E+03  0.00000000000E+00 0. -1.
<mgrwt>
<rscale>  0 0.19692383E+04</rscale>
<asrwt>0</asrwt>
<pdfrwt beam="1">  1        2 0.22108260E+00 0.19692383E+04</pdfrwt>
<pdfrwt beam="2">  1       -2 0.10378995E+00 0.19692383E+04</pdfrwt>
<totfact> 0.97034080E+00</totfact>
</mgrwt>
</event>
<event>
 6    1  0.5040916E-004  0.1854225E+04  0.7818608E-02  0.8677983E-01
         -2   -1    0    0    0  501 -0.00000000000E+00  0.00000000000E+00  0.57208758999E+03  0.57208758999E+03  0.00000000000E+00 0. -1.
          2   -1    0    0  501    0  0.00000000000E+00 -0.00000000000E+00 -0.15024587559E+04  0.15024587559E+04  0.00000000000E+00 0.  1.
         23    2    1    2    0    0  0.62342682601E+03  0.64021389909E+03 -0.73361608195E+03  0.11595341017E+04  0.88271928449E+02 0.  0.
         11    1    3    3    0    0  0.21458392836E+03  0.28214983729E+03 -0.28748672534E+03  0.45640268430E+03  0.00000000000E+00 0. -1.
        -11    1    3    3    0    0  0.40884289766E+03  0.35806406180E+03 -0.44612935661E+03  0.70313141741E+03  0.00000000000E+00 0.  1.
         22    1    1    2    0    0 -0.62342682601E+03 -0.64021389909E+03 -0.19675508399E+03  0.91501224421E+03  0.00000000000E+00 0.  1.
<mgrwt>
<rscale>  0 0.18542255E+04</rscale>
<asrwt>0</asrwt>
<pdfrwt beam="1">  1        2 0.23114750E+00 0.18542255E+04</pdfrwt>
<pdfrwt beam="2">  1       -2 0.88013477E-01 0.18542255E+04</pdfrwt>
<totfact> 0.13233330E+01</totfact>
</mgrwt>
</event>
<event>
 6    1  0.5040916E-004  0.2594830E+04  0.7818608E-02  0.8369960E-01
          2   -1    0    0  501    0  0.00000000000E+00  0.00000000000E+00  0.13390130158E+04  0.13390130158E+04  0.00000000000E+00 0.  1.
         -2   -1    0    0    0  501 -0.00000000000E+00 -0.00000000000E+00 -0.12571089907E+04  0.12571089907E+04  0.00000000000E+00 0. -1.
         23    2    1    2    0    0  0.74641628775E+03  0.10239197349E+04 -0.22963205097E+03  0.12912834628E+04  0.95567799734E+02 0.  0.
         13    1    3    3    0    0  0.30013476781E+03  0.33454457107E+03 -0.76680078345E+02  0.45593945135E+03  0.00000000000E+00 0. -1.
        -13    1    3    3    0    0  0.44628151994E+03  0.68937516386E+03 -0.15295197263E+03  0.83534401148E+03  0.00000000000E+00 0.  1.
         22    1    1    2    0    0 -0.74641628775E+03 -0.10239197349E+04  0.31153607610E+03  0.13048385436E+04  0.00000000000E+00 0.  1.
<mgrwt>
<rscale>  0 0.25948297E+04</rscale>
<asrwt>0</asrwt>
<pdfrwt beam="1">  1        2 0.20600200E+00 0.25948297E+04</pdfrwt>
<pdfrwt beam="2">  1       -2 0.19340138E+00 0.25948297E+04</pdfrwt>
<totfact> 0.20423178E+00</totfact>
</mgrwt>
</event>
<event>
 6    1  0.5040916E-004  0.1571080E+04  0.7818608E-02  0.8838514E-01
          2   -1    0    0  501    0  0.00000000000E+00  0.00000000000E+00  0.32174229956E+04  0.32174229956E+04  0.00000000000E+00 0. -1.
         -2   -1    0    0    0  501 -0.00000000000E+00 -0.00000000000E+00 -0.19179121130E+03  0.19179121130E+03  0.00000000000E+00 0.  1.
         23    2    1    2    0    0  0.70989945666E+03 -0.44394588312E+02  0.80737133141E+03  0.10797061999E+04  0.89380608623E+02 0.  0.
         11    1    3    3    0    0  0.39060953288E+03 -0.37184616477E+02  0.38034725561E+03  0.54646366552E+03  0.00000000000E+00 0.  1.
        -11    1    3    3    0    0  0.31928992377E+03 -0.72099718353E+01  0.42702407580E+03  0.53324253434E+03  0.00000000000E+00 0. -1.
         22    1    1    2    0    0 -0.70989945666E+03  0.44394588312E+02  0.22182604529E+04  0.23295080071E+04  0.00000000000E+00 0. -1.
<mgrwt>
<rscale>  0 0.15710805E+04</rscale>
<asrwt>0</asrwt>
<pdfrwt beam="1">  1        2 0.49498811E+00 0.15710805E+04</pdfrwt>
<pdfrwt beam="2">  1       -2 0.29506343E-01 0.15710805E+04</pdfrwt>
<totfact> 0.12952509E+01</totfact>
</mgrwt>
</event>
<event>
 6    1  0.5040916E-004  0.5087433E+04  0.7818608E-02  0.7815160E-01
          2   -1    0    0  501    0  0.00000000000E+00  0.00000000000E+00  0.26411337082E+04  0.26411337082E+04  0.00000000000E+00 0.  1.
         -2   -1    0    0    0  501 -0.00000000000E+00 -0.00000000000E+00 -0.24498925773E+04  0.24498925773E+04  0.00000000000E+00 0. -1.
         23    2    1    2    0    0  0.11125764299E+04  0.10604494877E+04 -0.19315806447E+04  0.24701959364E+04  0.92112699281E+02 0.  0.
         13    1    3    3    0    0  0.25712852723E+03  0.29444635576E+03 -0.46179000193E+03  0.60503201718E+03  0.00000000000E+00 0. -1.
        -13    1    3    3    0    0  0.85544790268E+03  0.76600313189E+03 -0.14697906427E+04  0.18651639193E+04  0.00000000000E+00 0.  1.
         22    1    1    2    0    0 -0.11125764299E+04 -0.10604494877E+04  0.21228217755E+04  0.26208303491E+04  0.00000000000E+00 0.  1.
<mgrwt>
<rscale>  0 0.50874331E+04</rscale>
<asrwt>0</asrwt>
<pdfrwt beam="1">  1        2 0.40632826E+00 0.50874331E+04</pdfrwt>
<pdfrwt beam="2">  1       -2 0.37690655E+00 0.50874331E+04</pdfrwt>
<totfact> 0.21819061E-02</totfact>
</mgrwt>
</event>
<event>
 6    1  0.5040916E-004  0.1136729E+04  0.7818608E-02  0.9170115E-01
          2   -1    0    0  501    0  0.00000000000E+00  0.00000000000E+00  0.14066511292E+04  0.14066511292E+04  0.00000000000E+00 0.  1.
         -2   -1    0    0    0  501 -0.00000000000E+00 -0.00000000000E+00 -0.22965037805E+03  0.22965037805E+03  0.00000000000E+00 0. -1.
         23    2    1    2    0    0  0.53350796538E+03  0.12922822363E+03  0.40125737765E+03  0.68598131677E+03  0.90731477043E+02 0.  0.
         13    1    3    3    0    0  0.27318358377E+03  0.83412730775E+02  0.26015688085E+03  0.38635289148E+03  0.00000000000E+00 0. -1.
        -13    1    3    3    0    0  0.26032438161E+03  0.45815492860E+02  0.14110049680E+03  0.29962842529E+03  0.00000000000E+00 0.  1.
         22    1    1    2    0    0 -0.53350796538E+03 -0.12922822363E+03  0.77574337348E+03  0.95032019046E+03  0.00000000000E+00 0. -1.
<mgrwt>
<rscale>  0 0.11367286E+04</rscale>
<asrwt>0</asrwt>
<pdfrwt beam="1">  1        2 0.21640786E+00 0.11367286E+04</pdfrwt>
<pdfrwt beam="2">  1       -2 0.35330828E-01 0.11367286E+04</pdfrwt>
<totfact> 0.10683282E+02</totfact>
</mgrwt>
</event>
<event>
 6    1  0.5040916E-004  0.8366731E+03  0.7818608E-02  0.9508400E-01
          2   -1    0    0  501    0  0.00000000000E+00  0.00000000000E+00  0.22726095615E+04  0.22726095615E+04  0.00000000000E+00 0.  1.
         -2   -1    0    0    0  501 -0.00000000000E+00 -0.00000000000E+00 -0.77006400638E+02  0.77006400638E+02  0.00000000000E+00 0. -1.
         23    2    1    2    0    0 -0.34259613528E+03 -0.22981296899E+03  0.10293269226E+04  0.11125281008E+04  0.89547467617E+02 0.  0.
         13    1    3    3    0    0 -0.21057838532E+03 -0.94712366733E+02  0.62393269746E+03  0.66528617882E+03  0.00000000000E+00 0. -1.
        -13    1    3    3    0    0 -0.13201774996E+03 -0.13510060226E+03  0.40539422510E+03  0.44724192198E+03  0.00000000000E+00 0.  1.
         22    1    1    2    0    0  0.34259613528E+03  0.22981296899E+03  0.11662762383E+04  0.12370878613E+04  0.00000000000E+00 0.  1.
<mgrwt>
<rscale>  0 0.83667313E+03</rscale>
<asrwt>0</asrwt>
<pdfrwt beam="1">  1        2 0.34963219E+00 0.83667313E+03</pdfrwt>
<pdfrwt beam="2">  1       -2 0.11847140E-01 0.83667313E+03</pdfrwt>
<totfact> 0.24994471E+02</totfact>
</mgrwt>
</event>
<event>
 6    1  0.5040916E-004  0.1718710E+04  0.7818608E-02  0.8750764E-01
          2   -1    0    0  501    0  0.00000000000E+00  0.00000000000E+00  0.56359799556E+03  0.56359799556E+03  0.00000000000E+00 0.  1.
         -2   -1    0    0    0  501 -0.00000000000E+00 -0.00000000000E+00 -0.13103158925E+04  0.13103158925E+04  0.00000000000E+00 0. -1.
         23    2    1    2    0    0  0.84171768157E+03 -0.15455009475E+03 -0.41308359934E+03  0.95538994615E+03  0.98780068383E+02 0.  0.
         11    1    3    3    0    0  0.11276942905E+03  0.28623170307E+01 -0.28671528099E+02  0.11639241174E+03  0.00000000000E+00 0.  1.
        -11    1    3    3    0    0  0.72894825252E+03 -0.15741241178E+03 -0.38441207124E+03  0.83899753442E+03  0.00000000000E+00 0. -1.
         22    1    1    2    0    0 -0.84171768157E+03  0.15455009475E+03 -0.33363429756E+03  0.91852394186E+03  0.00000000000E+00 0.  1.
<mgrwt>
<rscale>  0 0.17187105E+04</rscale>
<asrwt>0</asrwt>
<pdfrwt beam="1">  1        2 0.86707384E-01 0.17187105E+04</pdfrwt>
<pdfrwt beam="2">  1       -2 0.20158706E+00 0.17187105E+04</pdfrwt>
<totfact> 0.65916041E+00</totfact>
</mgrwt>
</event>
<event>
 6    1  0.5040916E-004  0.2887941E+04  0.7818608E-02  0.8276474E-01
          4   -1    0    0  501    0  0.00000000000E+00  0.00000000000E+00  0.17675225496E+04  0.17675225496E+04  0.00000000000E+00 0.  1.
         -4   -1    0    0    0  501 -0.00000000000E+00 -0.00000000000E+00 -0.11796458293E+04  0.11796458293E+04  0.00000000000E+00 0. -1.
         23    2    1    2    0    0  0.70241234800E+03 -0.51946389041E+02  0.15790374681E+04  0.17312402716E+04  0.88045547075E+02 0.  0.
         13    1    3    3    0    0  0.19176889901E+03  0.20909707950E+02  0.47364907065E+03  0.51142542823E+03  0.00000000000E+00 0. -1.
        -13    1    3    3    0    0  0.51064344899E+03 -0.72856096990E+02  0.11053883975E+04  0.12198148434E+04  0.00000000000E+00 0.  1.
         22    1    1    2    0    0 -0.70241234800E+03  0.51946389041E+02 -0.99116074789E+03  0.12159281073E+04  0.00000000000E+00 0. -1.
<mgrwt>
<rscale>  0 0.28879409E+04</rscale>
<asrwt>0</asrwt>
<pdfrwt beam="1">  1        4 0.27192655E+00 0.28879409E+04</pdfrwt>
<pdfrwt beam="2">  1       -4 0.18148397E+00 0.28879409E+04</pdfrwt>
<totfact> 0.13911862E-02</totfact>
</mgrwt>
</event>
<event>
 6    1  0.5040916E-004  0.2907211E+04  0.7818608E-02  0.8270735E-01
          2   -1    0    0  501    0  0.00000000000E+00  0.00000000000E+00  0.32733290249E+04  0.32733290249E+04  0.00000000000E+00 0. -1.
         -2   -1    0    0    0  501 -0.00000000000E+00 -0.00000000000E+00 -0.64551059216E+03  0.64551059216E+03  0.00000000000E+00 0.  1.
         23    2    1    2    0    0 -0.11557929645E+03  0.23276984775E+01  0.32665453973E+04  0.32697355212E+04  0.86530652986E+02 0.  0.
         13    1    3    3    0    0 -0.58820622924E+02  0.14387949429E+02  0.72396348921E+03  0.72649157771E+03  0.00000000000E+00 0. -1.
        -13    1    3    3    0    0 -0.56758673522E+02 -0.12060250951E+02  0.25425819081E+04  0.25432439435E+04  0.00000000000E+00 0.  1.
         22    1    1    2    0    0  0.11557929645E+03 -0.23276984775E+01 -0.63872696459E+03  0.64910409585E+03  0.00000000000E+00 0.  1.
<mgrwt>
<rscale>  0 0.29072107E+04</rscale>
<asrwt>0</asrwt>
<pdfrwt beam="1">  1        2 0.50358907E+00 0.29072107E+04</pdfrwt>
<pdfrwt beam="2">  1       -2 0.99309323E-01 0.29072107E+04</pdfrwt>
<totfact> 0.83990906E-01</totfact>
</mgrwt>
</event>
<event>
 6    1  0.5040916E-004  0.1493993E+04  0.7818608E-02  0.8888457E-01
          2   -1    0    0  501    0  0.00000000000E+00  0.00000000000E+00  0.84448910100E+03  0.84448910100E+03  0.00000000000E+00 0.  1.
         -2   -1    0    0    0  501 -0.00000000000E+00 -0.00000000000E+00 -0.66075880157E+03  0.66075880157E+03  0.00000000000E+00 0. -1.
         23    2    1    2    0    0  0.11587573625E+03  0.22522086666E+02  0.83244806336E+03  0.84587762125E+03  0.92761744789E+02 0.  0.
         11    1    3    3    0    0 -0.34203407095E+01 -0.21067335358E+02  0.80648649235E+02  0.83425032053E+02  0.00000000000E+00 0. -1.
        -11    1    3    3    0    0  0.11929607696E+03  0.43589422024E+02  0.75179941413E+03  0.76245258920E+03  0.00000000000E+00 0.  1.
         22    1    1    2    0    0 -0.11587573625E+03 -0.22522086666E+02 -0.64871776393E+03  0.65937028132E+03  0.00000000000E+00 0. -1.
<mgrwt>
<rscale>  0 0.14939928E+04</rscale>
<asrwt>0</asrwt>
<pdfrwt beam="1">  1        2 0.12992140E+00 0.14939928E+04</pdfrwt>
<pdfrwt beam="2">  1       -2 0.10165520E+00 0.14939928E+04</pdfrwt>
<totfact> 0.24592294E+01</totfact>
</mgrwt>
</event>
<event>
 6    1  0.5040916E-004  0.2386931E+04  0.7818608E-02  0.8444412E-01
         -2   -1    0    0    0  501 -0.00000000000E+00  0.00000000000E+00  0.24933218931E+04  0.24933218931E+04  0.00000000000E+00 0. -1.
          2   -1    0    0  501    0  0.00000000000E+00 -0.00000000000E+00 -0.57127016593E+03  0.57127016593E+03  0.00000000000E+00 0.  1.
         23    2    1    2    0    0  0.99490659976E+03 -0.65245723801E+03  0.87421369390E+03  0.14791885982E+04  0.90607597287E+02 0.  0.
         13    1    3    3    0    0  0.42507827720E+03 -0.23336981759E+03  0.38449416184E+03  0.61886086804E+03  0.00000000000E+00 0.  1.
        -13    1    3    3    0    0  0.56982832257E+03 -0.41908742042E+03  0.48971953206E+03  0.86032773013E+03  0.00000000000E+00 0. -1.
         22    1    1    2    0    0 -0.99490659976E+03  0.65245723801E+03  0.10478380333E+04  0.15854034608E+04  0.00000000000E+00 0.  1.
<mgrwt>
<rscale>  0 0.23869314E+04</rscale>
<asrwt>0</asrwt>
<pdfrwt beam="1">  1        2 0.87887719E-01 0.23869314E+04</pdfrwt>
<pdfrwt beam="2">  1       -2 0.38358798E+00 0.23869314E+04</pdfrwt>
<totfact> 0.44995879E-01</totfact>
</mgrwt>
</event>
<event>
 6    1  0.5040916E-004  0.3799351E+04  0.7818608E-02  0.8046294E-01
         -2   -1    0    0    0  501 -0.00000000000E+00  0.00000000000E+00  0.87068483500E+03  0.87068483500E+03  0.00000000000E+00 0. -1.
          2   -1    0    0  501    0  0.00000000000E+00 -0.00000000000E+00 -0.41447463334E+04  0.41447463334E+04  0.00000000000E+00 0.  1.
         23    2    1    2    0    0 -0.80634348227E+03  0.10403876126E+04  0.16864427541E+03  0.13296721908E+04  0.83612483927E+02 0.  0.
         11    1    3    3    0    0 -0.40505193863E+03  0.47061178941E+03  0.10664901357E+03  0.63001312797E+03  0.00000000000E+00 0. -1.
        -11    1    3    3    0    0 -0.40129154364E+03  0.56977582320E+03  0.61995261846E+02  0.69965906283E+03  0.00000000000E+00 0.  1.
         22    1    1    2    0    0  0.80634348227E+03 -0.10403876126E+04 -0.34427057738E+04  0.36857589776E+04  0.00000000000E+00 0.  1.
<mgrwt>
<rscale>  0 0.37993514E+04</rscale>
<asrwt>0</asrwt>
<pdfrwt beam="1">  1        2 0.63765328E+00 0.37993514E+04</pdfrwt>
<pdfrwt beam="2">  1       -2 0.13395151E+00 0.37993514E+04</pdfrwt>
<totfact> 0.83376418E-02</totfact>
</mgrwt>
</event>
<event>
 6    1  0.5040916E-004  0.3559120E+04  0.7818608E-02  0.8099920E-01
          2   -1    0    0  501    0  0.00000000000E+00  0.00000000000E+00  0.44470917040E+04  0.44470917040E+04  0.00000000000E+00 0.  1.
         -2   -1    0    0    0  501 -0.00000000000E+00 -0.00000000000E+00 -0.71211354498E+03  0.71211354498E+03  0.00000000000E+00 0. -1.
         23    2    1    2    0    0  0.99352055216E+03  0.84139720409E+02  0.40033361703E+04  0.41266460001E+04  0.91346251086E+02 0.  0.
         13    1    3    3    0    0  0.64809827345E+03  0.29014190999E+02  0.27425418797E+04  0.28182280173E+04  0.00000000000E+00 0.  1.
        -13    1    3    3    0    0  0.34542227871E+03  0.55125529410E+02  0.12607942906E+04  0.13084179828E+04  0.00000000000E+00 0. -1.
         22    1    1    2    0    0 -0.99352055216E+03 -0.84139720409E+02 -0.26835801132E+03  0.10325592488E+04  0.00000000000E+00 0. -1.
<mgrwt>
<rscale>  0 0.35591202E+04</rscale>
<asrwt>0</asrwt>
<pdfrwt beam="1">  1        2 0.68416793E+00 0.35591202E+04</pdfrwt>
<pdfrwt beam="2">  1       -2 0.10955593E+00 0.35591202E+04</pdfrwt>
<totfact> 0.74775155E-02</totfact>
</mgrwt>
</event>
<event>
 6    1  0.5040916E-004  0.2797570E+04  0.7818608E-02  0.8304023E-01
         -2   -1    0    0    0  501 -0.00000000000E+00  0.00000000000E+00  0.15472958759E+04  0.15472958759E+04  0.00000000000E+00 0. -1.
          2   -1    0    0  501    0  0.00000000000E+00 -0.00000000000E+00 -0.12645283968E+04  0.12645283968E+04  0.00000000000E+00 0.  1.
         23    2    1    2    0    0 -0.94495777626E+03  0.38931134970E+03 -0.81630247932E+03  0.13110033976E+04  0.88722290574E+02 0.  0.
         11    1    3    3    0    0 -0.65826042732E+03  0.30208795978E+03 -0.54031390217E+03  0.90360557684E+03  0.00000000000E+00 0. -1.
        -11    1    3    3    0    0 -0.28669734894E+03  0.87223389916E+02 -0.27598857715E+03  0.40739782075E+03  0.00000000000E+00 0.  1.
         22    1    1    2    0    0  0.94495777626E+03 -0.38931134970E+03  0.10990699584E+04  0.15008208752E+04  0.00000000000E+00 0. -1.
<mgrwt>
<rscale>  0 0.27975701E+04</rscale>
<asrwt>0</asrwt>
<pdfrwt beam="1">  1        2 0.19454283E+00 0.27975701E+04</pdfrwt>
<pdfrwt beam="2">  1       -2 0.23804552E+00 0.27975701E+04</pdfrwt>
<totfact> 0.11496993E+00</totfact>
</mgrwt>
</event>
<event>
 6    1  0.7275122E-004  0.2532674E+04  0.7818608E-02  0.8391437E-01
          2   -1    0    0  501    0  0.00000000000E+00  0.00000000000E+00  0.28038101302E+04  0.28038101302E+04  0.00000000000E+00 0.  1.
         -2   -1    0    0    0  501 -0.00000000000E+00 -0.00000000000E+00 -0.57193937928E+03  0.57193937928E+03  0.00000000000E+00 0. -1.
         23    2    1    2    0    0 -0.44782189282E+03  0.53191649664E+02  0.26922622259E+04  0.27312853059E+04  0.90938055313E+02 0.  0.
         13    1    3    3    0    0 -0.30784753785E+03  0.73016115641E+02  0.17298956678E+04  0.17585904814E+04  0.00000000000E+00 0. -1.
        -13    1    3    3    0    0 -0.13997435497E+03 -0.19824465978E+02  0.96236655814E+03  0.97269482456E+03  0.00000000000E+00 0.  1.
         22    1    1    2    0    0  0.44782189282E+03 -0.53191649664E+02 -0.46039147506E+03  0.64446420350E+03  0.00000000000E+00 0. -1.
<mgrwt>
<rscale>  0 0.25326740E+04</rscale>
<asrwt>0</asrwt>
<pdfrwt beam="1">  1        2 0.43135540E+00 0.25326740E+04</pdfrwt>
<pdfrwt beam="2">  1       -2 0.87990675E-01 0.25326740E+04</pdfrwt>
<totfact> 0.22773916E+00</totfact>
</mgrwt>
</event>
<event>
 6    1  0.5040916E-004  0.3531939E+04  0.7818608E-02  0.8106262E-01
         -1   -1    0    0    0  501 -0.00000000000E+00  0.00000000000E+00  0.18239830935E+04  0.18239830935E+04  0.00000000000E+00 0.  1.
          1   -1    0    0  501    0  0.00000000000E+00 -0.00000000000E+00 -0.17098009865E+04  0.17098009865E+04  0.00000000000E+00 0. -1.
         23    2    1    2    0    0  0.15244669006E+04 -0.85782234890E+03 -0.17727482808E+03  0.17604240888E+04  0.88363422037E+02 0.  0.
         11    1    3    3    0    0  0.10710158517E+04 -0.60129885457E+03 -0.83777555380E+02  0.12311189812E+04  0.00000000000E+00 0. -1.
        -11    1    3    3    0    0  0.45345104893E+03 -0.25652349433E+03 -0.93497272697E+02  0.52930510759E+03  0.00000000000E+00 0.  1.
         22    1    1    2    0    0 -0.15244669006E+04  0.85782234890E+03  0.29145693514E+03  0.17733599912E+04  0.00000000000E+00 0. -1.
<mgrwt>
<rscale>  0 0.35319389E+04</rscale>
<asrwt>0</asrwt>
<pdfrwt beam="1">  1        1 0.26304631E+00 0.35319389E+04</pdfrwt>
<pdfrwt beam="2">  1       -1 0.28061278E+00 0.35319389E+04</pdfrwt>
<totfact> 0.16840498E-01</totfact>
</mgrwt>
</event>
<event>
 6    1  0.5040916E-004  0.3856912E+04  0.7818608E-02  0.8034051E-01
         -2   -1    0    0    0  501 -0.00000000000E+00  0.00000000000E+00  0.13279286418E+04  0.13279286418E+04  0.00000000000E+00 0. -1.
          2   -1    0    0  501    0  0.00000000000E+00 -0.00000000000E+00 -0.28005590145E+04  0.28005590145E+04  0.00000000000E+00 0.  1.
         23    2    1    2    0    0  0.72477712859E+02 -0.96078878397E+03 -0.25234747810E+04  0.27027800857E+04  0.93419028626E+02 0.  0.
         11    1    3    3    0    0  0.19773218752E+02 -0.56439065122E+03 -0.15875743242E+04  0.16850281963E+04  0.00000000000E+00 0.  1.
        -11    1    3    3    0    0  0.52704494107E+02 -0.39639813275E+03 -0.93590045677E+03  0.10177518894E+04  0.00000000000E+00 0. -1.
         22    1    1    2    0    0 -0.72477712859E+02  0.96078878397E+03  0.10508444083E+04  0.14257075706E+04  0.00000000000E+00 0. -1.
<mgrwt>
<rscale>  0 0.38569120E+04</rscale>
<asrwt>0</asrwt>
<pdfrwt beam="1">  1        2 0.43085523E+00 0.38569120E+04</pdfrwt>
<pdfrwt beam="2">  1       -2 0.20429672E+00 0.38569120E+04</pdfrwt>
<totfact> 0.22981943E-01</totfact>
</mgrwt>
</event>
<event>
 6    1  0.5040916E-004  0.1175611E+04  0.7818608E-02  0.9134476E-01
          2   -1    0    0  501    0  0.00000000000E+00  0.00000000000E+00  0.15229471870E+04  0.15229471870E+04  0.00000000000E+00 0.  1.
         -2   -1    0    0    0  501 -0.00000000000E+00 -0.00000000000E+00 -0.22687279988E+03  0.22687279988E+03  0.00000000000E+00 0. -1.
         23    2    1    2    0    0  0.42240437596E+02 -0.41852697387E+03  0.48376355029E+02  0.43311976978E+03  0.91122888612E+02 0.  0.
         11    1    3    3    0    0  0.69654270822E+02 -0.34000584184E+03  0.43867770728E+02  0.34982863124E+03  0.00000000000E+00 0.  1.
        -11    1    3    3    0    0 -0.27413833226E+02 -0.78521132027E+02  0.45085843003E+01  0.83291138541E+02  0.00000000000E+00 0. -1.
         22    1    1    2    0    0 -0.42240437596E+02  0.41852697387E+03  0.12476980320E+04  0.13167002171E+04  0.00000000000E+00 0.  1.
<mgrwt>
<rscale>  0 0.11756110E+04</rscale>
<asrwt>0</asrwt>
<pdfrwt beam="1">  1        2 0.23429956E+00 0.11756110E+04</pdfrwt>
<pdfrwt beam="2">  1       -2 0.34903509E-01 0.11756110E+04</pdfrwt>
<totfact> 0.93720759E+01</totfact>
</mgrwt>
</event>
<event>
 6    1  0.5040916E-004  0.1566016E+04  0.7818608E-02  0.8841702E-01
          2   -1    0    0  501    0  0.00000000000E+00  0.00000000000E+00  0.13334863092E+04  0.13334863092E+04  0.00000000000E+00 0.  1.
         -2   -1    0    0    0  501 -0.00000000000E+00 -0.00000000000E+00 -0.45977335731E+03  0.45977335731E+03  0.00000000000E+00 0. -1.
         23    2    1    2    0    0 -0.30707809040E+03  0.27180970956E+03 -0.32189292346E+03  0.52927751435E+03  0.91335432404E+02 0.  0.
         11    1    3    3    0    0 -0.14611573591E+03  0.18869976573E+03 -0.17252872241E+03  0.29448865840E+03  0.00000000000E+00 0.  1.
        -11    1    3    3    0    0 -0.16096235449E+03  0.83109943823E+02 -0.14936420105E+03  0.23478885595E+03  0.00000000000E+00 0. -1.
         22    1    1    2    0    0  0.30707809040E+03 -0.27180970956E+03  0.11956058753E+04  0.12639821521E+04  0.00000000000E+00 0.  1.
<mgrwt>
<rscale>  0 0.15660159E+04</rscale>
<asrwt>0</asrwt>
<pdfrwt beam="1">  1        2 0.20515174E+00 0.15660159E+04</pdfrwt>
<pdfrwt beam="2">  1       -2 0.70734363E-01 0.15660159E+04</pdfrwt>
<totfact> 0.27610670E+01</totfact>
</mgrwt>
</event>
<event>
 6    1  0.5040916E-004  0.2212999E+04  0.7818608E-02  0.8513037E-01
          2   -1    0    0  501    0  0.00000000000E+00  0.00000000000E+00  0.20071035533E+04  0.20071035533E+04  0.00000000000E+00 0.  1.
         -2   -1    0    0    0  501 -0.00000000000E+00 -0.00000000000E+00 -0.61000409873E+03  0.61000409873E+03  0.00000000000E+00 0. -1.
         23    2    1    2    0    0  0.10227952089E+04  0.41288465934E+03  0.62981368900E+03  0.12734889460E+04  0.92331096975E+02 0.  0.
         13    1    3    3    0    0  0.33477158899E+03  0.94685277871E+02  0.17446429223E+03  0.38919803173E+03  0.00000000000E+00 0. -1.
        -13    1    3    3    0    0  0.68802361988E+03  0.31819938147E+03  0.45534939676E+03  0.88429091425E+03  0.00000000000E+00 0.  1.
         22    1    1    2    0    0 -0.10227952089E+04 -0.41288465934E+03  0.76728576556E+03  0.13436187060E+04  0.00000000000E+00 0. -1.
<mgrwt>
<rscale>  0 0.22129992E+04</rscale>
<asrwt>0</asrwt>
<pdfrwt beam="1">  1        2 0.30878516E+00 0.22129992E+04</pdfrwt>
<pdfrwt beam="2">  1       -2 0.93846785E-01 0.22129992E+04</pdfrwt>
<totfact> 0.57966110E+00</totfact>
</mgrwt>
</event>
<event>
 6    1  0.5040916E-004  0.2012939E+04  0.7818608E-02  0.8600595E-01
         -2   -1    0    0    0  501 -0.00000000000E+00  0.00000000000E+00  0.11284507984E+04  0.11284507984E+04  0.00000000000E+00 0. -1.
          2   -1    0    0  501    0  0.00000000000E+00 -0.00000000000E+00 -0.89767347789E+03  0.89767347789E+03  0.00000000000E+00 0.  1.
         23    2    1    2    0    0  0.89418002945E+03  0.61543052083E+02 -0.34055138398E+03  0.96322166508E+03  0.92061167845E+02 0.  0.
         11    1    3    3    0    0  0.39669331671E+03  0.20365336347E+02 -0.10277378028E+03  0.41029597166E+03  0.00000000000E+00 0.  1.
        -11    1    3    3    0    0  0.49748671274E+03  0.41177715736E+02 -0.23777760369E+03  0.55292569342E+03  0.00000000000E+00 0. -1.
         22    1    1    2    0    0 -0.89418002945E+03 -0.61543052083E+02  0.57132870446E+03  0.10629026112E+04  0.00000000000E+00 0. -1.
<mgrwt>
<rscale>  0 0.20129385E+04</rscale>
<asrwt>0</asrwt>
<pdfrwt beam="1">  1        2 0.13810361E+00 0.20129385E+04</pdfrwt>
<pdfrwt beam="2">  1       -2 0.17360781E+00 0.20129385E+04</pdfrwt>
<totfact> 0.54868644E+00</totfact>
</mgrwt>
</event>
<event>
 6    1  0.5040916E-004  0.2950424E+04  0.7818608E-02  0.8258031E-01
          2   -1    0    0  501    0  0.00000000000E+00  0.00000000000E+00  0.15486759023E+04  0.15486759023E+04  0.00000000000E+00 0.  1.
         -2   -1    0    0    0  501 -0.00000000000E+00 -0.00000000000E+00 -0.14052332456E+04  0.14052332456E+04  0.00000000000E+00 0. -1.
         23    2    1    2    0    0  0.12267254579E+04 -0.77948387911E+03 -0.17225645334E+03  0.14665906229E+04  0.93623195172E+02 0.  0.
         13    1    3    3    0    0  0.41030331073E+03 -0.25582587444E+03 -0.13186435964E+02  0.48370400755E+03  0.00000000000E+00 0. -1.
        -13    1    3    3    0    0  0.81642214713E+03 -0.52365800467E+03 -0.15907001738E+03  0.98288661534E+03  0.00000000000E+00 0.  1.
         22    1    1    2    0    0 -0.12267254579E+04  0.77948387911E+03  0.31569911002E+03  0.14873185250E+04  0.00000000000E+00 0.  1.
<mgrwt>
<rscale>  0 0.29504243E+04</rscale>
<asrwt>0</asrwt>
<pdfrwt beam="1">  1        2 0.23825783E+00 0.29504243E+04</pdfrwt>
<pdfrwt beam="2">  1       -2 0.21618973E+00 0.29504243E+04</pdfrwt>
<totfact> 0.10704757E+00</totfact>
</mgrwt>
</event>
<event>
 6    1  0.5040916E-004  0.2575609E+04  0.7818608E-02  0.8376534E-01
         -1   -1    0    0    0  501 -0.00000000000E+00  0.00000000000E+00  0.78355366505E+03  0.78355366505E+03  0.00000000000E+00 0. -1.
          1   -1    0    0  501    0  0.00000000000E+00 -0.00000000000E+00 -0.21165628822E+04  0.21165628822E+04  0.00000000000E+00 0.  1.
         23    2    1    2    0    0 -0.11672359764E+04  0.46401617237E+03 -0.97872139062E+03  0.15950224139E+04  0.91924467952E+02 0.  0.
         11    1    3    3    0    0 -0.10822984406E+04  0.43607360268E+03 -0.87759997558E+03  0.14600382935E+04  0.00000000000E+00 0. -1.
        -11    1    3    3    0    0 -0.84937535791E+02  0.27942569687E+02 -0.10112141505E+03  0.13498412043E+03  0.00000000000E+00 0.  1.
         22    1    1    2    0    0  0.11672359764E+04 -0.46401617237E+03 -0.35428782650E+03  0.13050941333E+04  0.00000000000E+00 0. -1.
<mgrwt>
<rscale>  0 0.25756091E+04</rscale>
<asrwt>0</asrwt>
<pdfrwt beam="1">  1        1 0.32562505E+00 0.25756091E+04</pdfrwt>
<pdfrwt beam="2">  1       -1 0.12054672E+00 0.25756091E+04</pdfrwt>
<totfact> 0.13414613E+00</totfact>
</mgrwt>
</event>
<event>
 6    1  0.5040916E-004  0.1701669E+04  0.7818608E-02  0.8760413E-01
          2   -1    0    0  501    0  0.00000000000E+00  0.00000000000E+00  0.24871941883E+04  0.24871941883E+04  0.00000000000E+00 0.  1.
         -2   -1    0    0    0  501 -0.00000000000E+00 -0.00000000000E+00 -0.29105872241E+03  0.29105872241E+03  0.00000000000E+00 0. -1.
         23    2    1    2    0    0 -0.40432869771E+03  0.24020509473E+03  0.22540868004E+04  0.23043979324E+04  0.90345690246E+02 0.  0.
         13    1    3    3    0    0 -0.26663380866E+02  0.20218215336E+02  0.30925206575E+03  0.31105715276E+03  0.00000000000E+00 0.  1.
        -13    1    3    3    0    0 -0.37766531684E+03  0.21998687940E+03  0.19448347347E+04  0.19933407796E+04  0.00000000000E+00 0. -1.
         22    1    1    2    0    0  0.40432869771E+03 -0.24020509473E+03 -0.57951334495E+02  0.47385497834E+03  0.00000000000E+00 0. -1.
<mgrwt>
<rscale>  0 0.17016693E+04</rscale>
<asrwt>0</asrwt>
<pdfrwt beam="1">  1        2 0.38264525E+00 0.17016693E+04</pdfrwt>
<pdfrwt beam="2">  1       -2 0.44778267E-01 0.17016693E+04</pdfrwt>
<totfact> 0.15960005E+01</totfact>
</mgrwt>
</event>
<event>
 6    1  0.5040916E-004  0.1837094E+04  0.7818608E-02  0.8686818E-01
          2   -1    0    0  501    0  0.00000000000E+00  0.00000000000E+00  0.14130687533E+04  0.14130687533E+04  0.00000000000E+00 0. -1.
         -2   -1    0    0    0  501 -0.00000000000E+00 -0.00000000000E+00 -0.59708977459E+03  0.59708977459E+03  0.00000000000E+00 0.  1.
         23    2    1    2    0    0 -0.57383865310E+03  0.65720559956E+03  0.71564646874E+03  0.11319349729E+04  0.88977046786E+02 0.  0.
         11    1    3    3    0    0 -0.49620852063E+03  0.57454249519E+03  0.58148000552E+03  0.95626406998E+03  0.00000000000E+00 0.  1.
        -11    1    3    3    0    0 -0.77630132473E+02  0.82663104375E+02  0.13416646322E+03  0.17567090296E+03  0.00000000000E+00 0. -1.
         22    1    1    2    0    0  0.57383865310E+03 -0.65720559956E+03  0.10033250994E+03  0.87822355493E+03  0.00000000000E+00 0. -1.
<mgrwt>
<rscale>  0 0.18370943E+04</rscale>
<asrwt>0</asrwt>
<pdfrwt beam="1">  1        2 0.21739519E+00 0.18370943E+04</pdfrwt>
<pdfrwt beam="2">  1       -2 0.91859966E-01 0.18370943E+04</pdfrwt>
<totfact> 0.13495583E+01</totfact>
</mgrwt>
</event>
<event>
 6    1  0.5040916E-004  0.1660111E+04  0.7818608E-02  0.8784447E-01
         -2   -1    0    0    0  501 -0.00000000000E+00  0.00000000000E+00  0.56393523702E+03  0.56393523702E+03  0.00000000000E+00 0. -1.
          2   -1    0    0  501    0  0.00000000000E+00 -0.00000000000E+00 -0.12217573502E+04  0.12217573502E+04  0.00000000000E+00 0.  1.
         23    2    1    2    0    0  0.19117024787E+03 -0.61261889986E+03  0.23220848987E+03  0.68842213080E+03  0.90312054986E+02 0.  0.
         11    1    3    3    0    0  0.90884934348E+02 -0.19704424635E+03  0.11276717135E+03  0.24454639896E+03  0.00000000000E+00 0.  1.
        -11    1    3    3    0    0  0.10028531352E+03 -0.41557465351E+03  0.11944131853E+03  0.44387573184E+03  0.00000000000E+00 0. -1.
         22    1    1    2    0    0 -0.19117024787E+03  0.61261889986E+03 -0.89003060301E+03  0.10972704564E+04  0.00000000000E+00 0.  1.
<mgrwt>
<rscale>  0 0.16601109E+04</rscale>
<asrwt>0</asrwt>
<pdfrwt beam="1">  1        2 0.18796267E+00 0.16601109E+04</pdfrwt>
<pdfrwt beam="2">  1       -2 0.86759268E-01 0.16601109E+04</pdfrwt>
<totfact> 0.20178204E+01</totfact>
</mgrwt>
</event>
<event>
 6    1  0.5040916E-004  0.4040122E+04  0.7818608E-02  0.7996501E-01
         -2   -1    0    0    0  501 -0.00000000000E+00  0.00000000000E+00  0.10007390252E+04  0.10007390252E+04  0.00000000000E+00 0. -1.
          2   -1    0    0  501    0  0.00000000000E+00 -0.00000000000E+00 -0.40776319667E+04  0.40776319667E+04  0.00000000000E+00 0.  1.
         23    2    1    2    0    0 -0.66137368187E+02 -0.10835248647E+04 -0.36791140549E+04  0.38369723639E+04  0.89868841170E+02 0.  0.
         13    1    3    3    0    0 -0.37181497907E+02 -0.27465586126E+03 -0.10608891595E+04  0.10964962903E+04  0.00000000000E+00 0.  1.
        -13    1    3    3    0    0 -0.28955870280E+02 -0.80886900344E+03 -0.26182248955E+04  0.27404760737E+04  0.00000000000E+00 0. -1.
         22    1    1    2    0    0  0.66137368187E+02  0.10835248647E+04  0.60222111349E+03  0.12413986279E+04  0.00000000000E+00 0. -1.
<mgrwt>
<rscale>  0 0.40401215E+04</rscale>
<asrwt>0</asrwt>
<pdfrwt beam="1">  1        2 0.62732800E+00 0.40401215E+04</pdfrwt>
<pdfrwt beam="2">  1       -2 0.15395985E+00 0.40401215E+04</pdfrwt>
<totfact> 0.64666790E-02</totfact>
</mgrwt>
</event>
<event>
 6    1  0.5040916E-004  0.4607926E+04  0.7818608E-02  0.7892010E-01
          2   -1    0    0  501    0  0.00000000000E+00  0.00000000000E+00  0.12804090373E+04  0.12804090373E+04  0.00000000000E+00 0.  1.
         -2   -1    0    0    0  501 -0.00000000000E+00 -0.00000000000E+00 -0.41457413525E+04  0.41457413525E+04  0.00000000000E+00 0. -1.
         23    2    1    2    0    0 -0.14070464589E+04 -0.88099974404E+03  0.44589294811E+03  0.17220778972E+04  0.10388203147E+03 0.  0.
         11    1    3    3    0    0 -0.30443741582E+03 -0.15424585883E+03  0.62333213363E+02  0.34692845747E+03  0.00000000000E+00 0. -1.
        -11    1    3    3    0    0 -0.11026090431E+04 -0.72675388522E+03  0.38355973474E+03  0.13751494398E+04  0.00000000000E+00 0.  1.
         22    1    1    2    0    0  0.14070464589E+04  0.88099974404E+03 -0.33112252633E+04  0.37040724927E+04  0.00000000000E+00 0. -1.
<mgrwt>
<rscale>  0 0.46079256E+04</rscale>
<asrwt>0</asrwt>
<pdfrwt beam="1">  1        2 0.19698601E+00 0.46079256E+04</pdfrwt>
<pdfrwt beam="2">  1       -2 0.63780636E+00 0.46079256E+04</pdfrwt>
<totfact> 0.47378678E-03</totfact>
</mgrwt>
</event>
<event>
 6    1  0.6443887E-004  0.4481947E+04  0.7818608E-02  0.7913805E-01
         -2   -1    0    0    0  501 -0.00000000000E+00  0.00000000000E+00  0.21860629361E+04  0.21860629361E+04  0.00000000000E+00 0. -1.
          2   -1    0    0  501    0  0.00000000000E+00 -0.00000000000E+00 -0.22972629796E+04  0.22972629796E+04  0.00000000000E+00 0.  1.
         23    2    1    2    0    0 -0.12697320402E+03  0.16505096124E+04  0.14539750433E+04  0.22051518162E+04  0.91361540096E+02 0.  0.
         11    1    3    3    0    0 -0.35259566806E+02  0.96400549366E+03  0.87673830349E+03  0.13035412850E+04  0.00000000000E+00 0.  1.
        -11    1    3    3    0    0 -0.91713637216E+02  0.68650411875E+03  0.57723673979E+03  0.90161053126E+03  0.00000000000E+00 0. -1.
         22    1    1    2    0    0  0.12697320402E+03 -0.16505096124E+04 -0.15651750868E+04  0.22781740995E+04  0.00000000000E+00 0.  1.
<mgrwt>
<rscale>  0 0.44819467E+04</rscale>
<asrwt>0</asrwt>
<pdfrwt beam="1">  1        2 0.35342507E+00 0.44819467E+04</pdfrwt>
<pdfrwt beam="2">  1       -2 0.33631738E+00 0.44819467E+04</pdfrwt>
<totfact> 0.65458589E-02</totfact>
</mgrwt>
</event>
<event>
 6    1  0.5040916E-004  0.5094180E+04  0.7818608E-02  0.7814141E-01
          2   -1    0    0  501    0  0.00000000000E+00  0.00000000000E+00  0.35891730060E+04  0.35891730060E+04  0.00000000000E+00 0.  1.
         -2   -1    0    0    0  501 -0.00000000000E+00 -0.00000000000E+00 -0.18075660092E+04  0.18075660092E+04  0.00000000000E+00 0. -1.
         23    2    1    2    0    0 -0.53668133132E+03 -0.47847783450E+03 -0.16966102053E+04  0.18449841258E+04  0.92262376849E+02 0.  0.
         11    1    3    3    0    0 -0.27668612072E+03 -0.30741346317E+03 -0.95418073185E+03  0.10399611126E+04  0.00000000000E+00 0.  1.
        -11    1    3    3    0    0 -0.25999521060E+03 -0.17106437133E+03 -0.74242947342E+03  0.80502301313E+03  0.00000000000E+00 0. -1.
         22    1    1    2    0    0  0.53668133132E+03  0.47847783450E+03  0.34782172021E+04  0.35517548894E+04  0.00000000000E+00 0.  1.
<mgrwt>
<rscale>  0 0.50941799E+04</rscale>
<asrwt>0</asrwt>
<pdfrwt beam="1">  1        2 0.55218046E+00 0.50941799E+04</pdfrwt>
<pdfrwt beam="2">  1       -2 0.27808708E+00 0.50941799E+04</pdfrwt>
<totfact> 0.21919075E-02</totfact>
</mgrwt>
</event>
<event>
 6    1  0.5040916E-004  0.8651077E+03  0.7818608E-02  0.9470281E-01
          2   -1    0    0  501    0  0.00000000000E+00  0.00000000000E+00  0.23265172644E+04  0.23265172644E+04  0.00000000000E+00 0.  1.
         -2   -1    0    0    0  501 -0.00000000000E+00 -0.00000000000E+00 -0.80421848065E+02  0.80421848065E+02  0.00000000000E+00 0. -1.
         23    2    1    2    0    0 -0.39168988712E+03  0.11128189929E+03  0.77104379029E+03  0.87671627631E+03  0.91204571333E+02 0.  0.
         11    1    3    3    0    0 -0.62962763947E+02  0.54802847082E+02  0.14214539627E+03  0.16484227423E+03  0.00000000000E+00 0. -1.
        -11    1    3    3    0    0 -0.32872712317E+03  0.56479052211E+02  0.62889839402E+03  0.71187400208E+03  0.00000000000E+00 0.  1.
         22    1    1    2    0    0  0.39168988712E+03 -0.11128189929E+03  0.14750516261E+04  0.15302228362E+04  0.00000000000E+00 0.  1.
<mgrwt>
<rscale>  0 0.86510766E+03</rscale>
<asrwt>0</asrwt>
<pdfrwt beam="1">  1        2 0.35792568E+00 0.86510766E+03</pdfrwt>
<pdfrwt beam="2">  1       -2 0.12372594E-01 0.86510766E+03</pdfrwt>
<totfact> 0.21651417E+02</totfact>
</mgrwt>
</event>
<event>
 6    1  0.5040916E-004  0.1067746E+04  0.7818608E-02  0.9237212E-01
          2   -1    0    0  501    0  0.00000000000E+00  0.00000000000E+00  0.11075453836E+04  0.11075453836E+04  0.00000000000E+00 0.  1.
         -2   -1    0    0    0  501 -0.00000000000E+00 -0.00000000000E+00 -0.25734427870E+03  0.25734427870E+03  0.00000000000E+00 0. -1.
         23    2    1    2    0    0 -0.71246134732E+02 -0.45669485089E+03  0.75956863914E+03  0.89386902327E+03  0.91712129283E+02 0.  0.
         11    1    3    3    0    0  0.19471003635E+02 -0.43994378663E+02  0.91659194180E+02  0.10351827478E+03  0.00000000000E+00 0.  1.
        -11    1    3    3    0    0 -0.90717138367E+02 -0.41270047222E+03  0.66790944496E+03  0.79035074849E+03  0.00000000000E+00 0. -1.
         22    1    1    2    0    0  0.71246134732E+02  0.45669485089E+03  0.90632465768E+02  0.47102063903E+03  0.00000000000E+00 0.  1.
<mgrwt>
<rscale>  0 0.10677462E+04</rscale>
<asrwt>0</asrwt>
<pdfrwt beam="1">  1        2 0.17039159E+00 0.10677462E+04</pdfrwt>
<pdfrwt beam="2">  1       -2 0.39591428E-01 0.10677462E+04</pdfrwt>
<totfact> 0.12926708E+02</totfact>
</mgrwt>
</event>
<event>
 6    1  0.5793747E-004  0.3285933E+04  0.7818608E-02  0.8166484E-01
          2   -1    0    0  501    0  0.00000000000E+00  0.00000000000E+00  0.14476249289E+04  0.14476249289E+04  0.00000000000E+00 0.  1.
         -2   -1    0    0    0  501 -0.00000000000E+00 -0.00000000000E+00 -0.18646668359E+04  0.18646668359E+04  0.00000000000E+00 0. -1.
         23    2    1    2    0    0  0.13841176889E+04  0.75451223825E+03  0.25315686338E+03  0.15993303273E+04  0.93266306851E+02 0.  0.
         11    1    3    3    0    0  0.50370636626E+03  0.32506658814E+03  0.86868869775E+02  0.60575126138E+03  0.00000000000E+00 0. -1.
        -11    1    3    3    0    0  0.88041132263E+03  0.42944565011E+03  0.16628799360E+03  0.99357906592E+03  0.00000000000E+00 0.  1.
         22    1    1    2    0    0 -0.13841176889E+04 -0.75451223825E+03 -0.67019877045E+03  0.17129614375E+04  0.00000000000E+00 0. -1.
<mgrwt>
<rscale>  0 0.32859326E+04</rscale>
<asrwt>0</asrwt>
<pdfrwt beam="1">  1        2 0.22271153E+00 0.32859326E+04</pdfrwt>
<pdfrwt beam="2">  1       -2 0.28687182E+00 0.32859326E+04</pdfrwt>
<totfact> 0.43453823E-01</totfact>
</mgrwt>
</event>
<event>
 6    1  0.5040916E-004  0.3301967E+04  0.7818608E-02  0.8162395E-01
         -2   -1    0    0    0  501 -0.00000000000E+00  0.00000000000E+00  0.14069417631E+04  0.14069417631E+04  0.00000000000E+00 0. -1.
          2   -1    0    0  501    0  0.00000000000E+00 -0.00000000000E+00 -0.19373556209E+04  0.19373556209E+04  0.00000000000E+00 0.  1.
         23    2    1    2    0    0  0.59757111998E+03 -0.18919520695E+03  0.12801558317E+04  0.14282992968E+04  0.91399441428E+02 0.  0.
         11    1    3    3    0    0  0.44634341504E+03 -0.10778029128E+03  0.98598758073E+03  0.10876628819E+04  0.00000000000E+00 0. -1.
        -11    1    3    3    0    0  0.15122770494E+03 -0.81414915670E+02  0.29416825102E+03  0.34063641488E+03  0.00000000000E+00 0.  1.
         22    1    1    2    0    0 -0.59757111998E+03  0.18919520695E+03 -0.18105696895E+04  0.19159980873E+04  0.00000000000E+00 0.  1.
<mgrwt>
<rscale>  0 0.33019670E+04</rscale>
<asrwt>0</asrwt>
<pdfrwt beam="1">  1        2 0.29805471E+00 0.33019670E+04</pdfrwt>
<pdfrwt beam="2">  1       -2 0.21645258E+00 0.33019670E+04</pdfrwt>
<totfact> 0.62938567E-01</totfact>
</mgrwt>
</event>
<event>
 6    1  0.5040916E-004  0.1871101E+04  0.7818608E-02  0.8669377E-01
         -2   -1    0    0    0  501 -0.00000000000E+00  0.00000000000E+00  0.87033611449E+03  0.87033611449E+03  0.00000000000E+00 0. -1.
          2   -1    0    0  501    0  0.00000000000E+00 -0.00000000000E+00 -0.10056512826E+04  0.10056512826E+04  0.00000000000E+00 0.  1.
         23    2    1    2    0    0  0.80782481459E+03 -0.40476149493E+03  0.16668496112E+03  0.92329811041E+03  0.91009480656E+02 0.  0.
         13    1    3    3    0    0  0.13159911780E+03 -0.96833989323E+02  0.84710917983E+01  0.16360595554E+03  0.00000000000E+00 0. -1.
        -13    1    3    3    0    0  0.67622569680E+03 -0.30792750561E+03  0.15821386933E+03  0.75969215487E+03  0.00000000000E+00 0.  1.
         22    1    1    2    0    0 -0.80782481459E+03  0.40476149493E+03 -0.30200012921E+03  0.95268928665E+03  0.00000000000E+00 0. -1.
<mgrwt>
<rscale>  0 0.18711009E+04</rscale>
<asrwt>0</asrwt>
<pdfrwt beam="1">  1        2 0.15471558E+00 0.18711009E+04</pdfrwt>
<pdfrwt beam="2">  1       -2 0.13389786E+00 0.18711009E+04</pdfrwt>
<totfact> 0.94463088E+00</totfact>
</mgrwt>
</event>
<event>
 6    1  0.5040916E-004  0.2990974E+04  0.7818608E-02  0.8246313E-01
         -2   -1    0    0    0  501 -0.00000000000E+00  0.00000000000E+00  0.19371923507E+04  0.19371923507E+04  0.00000000000E+00 0. -1.
          2   -1    0    0  501    0  0.00000000000E+00 -0.00000000000E+00 -0.11544965373E+04  0.11544965373E+04  0.00000000000E+00 0.  1.
         23    2    1    2    0    0  0.49216597165E+03  0.11475782948E+04 -0.45641951192E+03  0.13325498725E+04  0.90593075958E+02 0.  0.
         13    1    3    3    0    0  0.23331150707E+03  0.49227079280E+03 -0.24174539084E+03  0.59599129756E+03  0.00000000000E+00 0.  1.
        -13    1    3    3    0    0  0.25885446458E+03  0.65530750203E+03 -0.21467412109E+03  0.73655857494E+03  0.00000000000E+00 0. -1.
         22    1    1    2    0    0 -0.49216597165E+03 -0.11475782948E+04  0.12391153253E+04  0.17591390155E+04  0.00000000000E+00 0. -1.
<mgrwt>
<rscale>  0 0.29909743E+04</rscale>
<asrwt>0</asrwt>
<pdfrwt beam="1">  1        2 0.17761485E+00 0.29909743E+04</pdfrwt>
<pdfrwt beam="2">  1       -2 0.29802959E+00 0.29909743E+04</pdfrwt>
<totfact> 0.56475170E-01</totfact>
</mgrwt>
</event>
<event>
 6    1  0.5040916E-004  0.1437001E+04  0.7818608E-02  0.8927462E-01
          2   -1    0    0  501    0  0.00000000000E+00  0.00000000000E+00  0.71741673952E+03  0.71741673952E+03  0.00000000000E+00 0.  1.
         -2   -1    0    0    0  501 -0.00000000000E+00 -0.00000000000E+00 -0.71958602833E+03  0.71958602833E+03  0.00000000000E+00 0. -1.
         23    2    1    2    0    0  0.22222862562E+03  0.65609191569E+03  0.17820000553E+03  0.72119885182E+03  0.92360045551E+02 0.  0.
         11    1    3    3    0    0  0.10431653548E+03  0.23902065911E+03  0.27100639949E+02  0.26219698652E+03  0.00000000000E+00 0.  1.
        -11    1    3    3    0    0  0.11791209014E+03  0.41707125657E+03  0.15109936558E+03  0.45900186529E+03  0.00000000000E+00 0. -1.
         22    1    1    2    0    0 -0.22222862562E+03 -0.65609191569E+03 -0.18036929434E+03  0.71580391604E+03  0.00000000000E+00 0.  1.
<mgrwt>
<rscale>  0 0.14370011E+04</rscale>
<asrwt>0</asrwt>
<pdfrwt beam="1">  1        2 0.11037181E+00 0.14370011E+04</pdfrwt>
<pdfrwt beam="2">  1       -2 0.11070554E+00 0.14370011E+04</pdfrwt>
<totfact> 0.24937549E+01</totfact>
</mgrwt>
</event>
<event>
 6    1  0.5040916E-004  0.2904752E+04  0.7818608E-02  0.8271465E-01
         -2   -1    0    0    0  501 -0.00000000000E+00  0.00000000000E+00  0.81343660149E+03  0.81343660149E+03  0.00000000000E+00 0. -1.
          2   -1    0    0  501    0  0.00000000000E+00 -0.00000000000E+00 -0.25931908556E+04  0.25931908556E+04  0.00000000000E+00 0.  1.
         23    2    1    2    0    0  0.35584899173E+03 -0.39109929808E+03 -0.24754136862E+04  0.25328258713E+04  0.89144885862E+02 0.  0.
         13    1    3    3    0    0  0.19607078618E+03 -0.25934562678E+03 -0.16588259442E+04  0.16903867665E+04  0.00000000000E+00 0. -1.
        -13    1    3    3    0    0  0.15977820556E+03 -0.13175367130E+03 -0.81658774201E+03  0.84243910479E+03  0.00000000000E+00 0.  1.
         22    1    1    2    0    0 -0.35584899173E+03  0.39109929808E+03  0.69565943208E+03  0.87380158579E+03  0.00000000000E+00 0. -1.
<mgrwt>
<rscale>  0 0.29047522E+04</rscale>
<asrwt>0</asrwt>
<pdfrwt beam="1">  1        2 0.39895244E+00 0.29047522E+04</pdfrwt>
<pdfrwt beam="2">  1       -2 0.12514409E+00 0.29047522E+04</pdfrwt>
<totfact> 0.12664817E+00</totfact>
</mgrwt>
</event>
<event>
 6    1  0.5040916E-004  0.1465003E+04  0.7818608E-02  0.8908065E-01
         -2   -1    0    0    0  501 -0.00000000000E+00  0.00000000000E+00  0.94217016397E+03  0.94217016397E+03  0.00000000000E+00 0. -1.
          2   -1    0    0  501    0  0.00000000000E+00 -0.00000000000E+00 -0.56949230555E+03  0.56949230555E+03  0.00000000000E+00 0.  1.
         23    2    1    2    0    0  0.12885107852E+03  0.66377917170E+03 -0.95868608976E+02  0.68901966652E+03  0.91388847509E+02 0.  0.
         11    1    3    3    0    0  0.52898351751E+02  0.48020930562E+03 -0.80371796648E+02  0.48975385503E+03  0.00000000000E+00 0. -1.
        -11    1    3    3    0    0  0.75952726773E+02  0.18356986608E+03 -0.15496812328E+02  0.19926581149E+03  0.00000000000E+00 0.  1.
         22    1    1    2    0    0 -0.12885107852E+03 -0.66377917170E+03  0.46854646739E+03  0.82264280300E+03  0.00000000000E+00 0. -1.
<mgrwt>
<rscale>  0 0.14650033E+04</rscale>
<asrwt>0</asrwt>
<pdfrwt beam="1">  1        2 0.87614201E-01 0.14650033E+04</pdfrwt>
<pdfrwt beam="2">  1       -2 0.14494926E+00 0.14650033E+04</pdfrwt>
<totfact> 0.16767688E+01</totfact>
</mgrwt>
</event>
<event>
 6    1  0.5040916E-004  0.4566042E+03  0.7818608E-02  0.1025771E+00
         -2   -1    0    0    0  501 -0.00000000000E+00  0.00000000000E+00  0.36943649399E+02  0.36943649399E+02  0.00000000000E+00 0. -1.
          2   -1    0    0  501    0  0.00000000000E+00 -0.00000000000E+00 -0.14108473019E+04  0.14108473019E+04  0.00000000000E+00 0.  1.
         23    2    1    2    0    0  0.79438640383E+02 -0.50968415300E+02 -0.13418573361E+04  0.13481152604E+04  0.89024536915E+02 0.  0.
         13    1    3    3    0    0  0.95502932618E+01  0.23085749252E+02 -0.16767026489E+03  0.16952131915E+03  0.00000000000E+00 0. -1.
        -13    1    3    3    0    0  0.69888347122E+02 -0.74054164552E+02 -0.11741870712E+04  0.11785939413E+04  0.00000000000E+00 0.  1.
         22    1    1    2    0    0 -0.79438640383E+02  0.50968415300E+02 -0.32046316405E+02  0.99675690814E+02  0.00000000000E+00 0. -1.
<mgrwt>
<rscale>  0 0.45660420E+03</rscale>
<asrwt>0</asrwt>
<pdfrwt beam="1">  1        2 0.21705337E+00 0.45660420E+03</pdfrwt>
<pdfrwt beam="2">  1       -2 0.56836401E-02 0.45660420E+03</pdfrwt>
<totfact> 0.24483693E+03</totfact>
</mgrwt>
</event>
<event>
 6    1  0.5040916E-004  0.5864439E+04  0.7818608E-02  0.7707441E-01
         -2   -1    0    0    0  501 -0.00000000000E+00  0.00000000000E+00  0.25111261242E+04  0.25111261242E+04  0.00000000000E+00 0. -1.
          2   -1    0    0  501    0  0.00000000000E+00 -0.00000000000E+00 -0.34239261760E+04  0.34239261760E+04  0.00000000000E+00 0.  1.
         23    2    1    2    0    0 -0.18499751640E+04  0.22448233347E+04 -0.88700128440E+02  0.29116799125E+04  0.91500210213E+02 0.  0.
         13    1    3    3    0    0 -0.10216796333E+04  0.12808780602E+04 -0.12847209126E+02  0.16384880008E+04  0.00000000000E+00 0. -1.
        -13    1    3    3    0    0 -0.82829553067E+03  0.96394527454E+03 -0.75852919314E+02  0.12731919116E+04  0.00000000000E+00 0.  1.
         22    1    1    2    0    0  0.18499751640E+04 -0.22448233347E+04 -0.82409992338E+03  0.30233723878E+04  0.00000000000E+00 0.  1.
<mgrwt>
<rscale>  0 0.58644388E+04</rscale>
<asrwt>0</asrwt>
<pdfrwt beam="1">  1        2 0.52675787E+00 0.58644388E+04</pdfrwt>
<pdfrwt beam="2">  1       -2 0.38632710E+00 0.58644388E+04</pdfrwt>
<totfact> 0.56841043E-03</totfact>
</mgrwt>
</event>
<event>
 6    1  0.5040916E-004  0.2706779E+04  0.7818608E-02  0.8332809E-01
          2   -1    0    0  501    0  0.00000000000E+00  0.00000000000E+00  0.34210252458E+04  0.34210252458E+04  0.00000000000E+00 0.  1.
         -2   -1    0    0    0  501 -0.00000000000E+00 -0.00000000000E+00 -0.53541339808E+03  0.53541339808E+03  0.00000000000E+00 0. -1.
         23    2    1    2    0    0  0.12539623121E+04 -0.31454780985E+03  0.20219191852E+04  0.24016631552E+04  0.92015838382E+02 0.  0.
         11    1    3    3    0    0  0.63812661005E+03 -0.12277853175E+03  0.10674070745E+04  0.12496551529E+04  0.00000000000E+00 0.  1.
        -11    1    3    3    0    0  0.61583570208E+03 -0.19176927810E+03  0.95451211071E+03  0.11520080023E+04  0.00000000000E+00 0. -1.
         22    1    1    2    0    0 -0.12539623121E+04  0.31454780985E+03  0.86369266245E+03  0.15547754886E+04  0.00000000000E+00 0. -1.
<mgrwt>
<rscale>  0 0.27067787E+04</rscale>
<asrwt>0</asrwt>
<pdfrwt beam="1">  1        2 0.52631156E+00 0.27067787E+04</pdfrwt>
<pdfrwt beam="2">  1       -2 0.82371294E-01 0.27067787E+04</pdfrwt>
<totfact> 0.10465355E+00</totfact>
</mgrwt>
</event>
<event>
 6    1  0.5040916E-004  0.7466904E+03  0.7818608E-02  0.9640557E-01
         -2   -1    0    0    0  501 -0.00000000000E+00  0.00000000000E+00  0.16753572627E+03  0.16753572627E+03  0.00000000000E+00 0. -1.
          2   -1    0    0  501    0  0.00000000000E+00 -0.00000000000E+00 -0.83198149614E+03  0.83198149614E+03  0.00000000000E+00 0.  1.
         23    2    1    2    0    0 -0.22010132105E+02 -0.36189469973E+03 -0.41752435525E+03  0.56085744011E+03  0.93713719874E+02 0.  0.
         13    1    3    3    0    0 -0.19605697997E+02 -0.95429040142E+02 -0.17624159488E+03  0.20137573057E+03  0.00000000000E+00 0. -1.
        -13    1    3    3    0    0 -0.24044341079E+01 -0.26646565959E+03 -0.24128276037E+03  0.35948170954E+03  0.00000000000E+00 0.  1.
         22    1    1    2    0    0  0.22010132105E+02  0.36189469973E+03 -0.24692141463E+03  0.43865978230E+03  0.00000000000E+00 0.  1.
<mgrwt>
<rscale>  0 0.74669036E+03</rscale>
<asrwt>0</asrwt>
<pdfrwt beam="1">  1        2 0.12799715E+00 0.74669036E+03</pdfrwt>
<pdfrwt beam="2">  1       -2 0.25774727E-01 0.74669036E+03</pdfrwt>
<totfact> 0.44557471E+02</totfact>
</mgrwt>
</event>
<event>
 6    1  0.5040916E-004  0.6386949E+03  0.7818608E-02  0.9828227E-01
          2   -1    0    0  501    0  0.00000000000E+00  0.00000000000E+00  0.14231630682E+04  0.14231630682E+04  0.00000000000E+00 0.  1.
         -2   -1    0    0    0  501 -0.00000000000E+00 -0.00000000000E+00 -0.71659249455E+02  0.71659249455E+02  0.00000000000E+00 0. -1.
         23    2    1    2    0    0  0.16294115436E+03 -0.11316448421E+03  0.12556752396E+04  0.12745063245E+04  0.91049675866E+02 0.  0.
         11    1    3    3    0    0  0.33848662669E+02 -0.73830203364E+02  0.38914723306E+03  0.39753264004E+03  0.00000000000E+00 0. -1.
        -11    1    3    3    0    0  0.12909249169E+03 -0.39334280846E+02  0.86652800654E+03  0.87697368443E+03  0.00000000000E+00 0.  1.
         22    1    1    2    0    0 -0.16294115436E+03  0.11316448421E+03  0.95828579129E+02  0.22031599318E+03  0.00000000000E+00 0. -1.
<mgrwt>
<rscale>  0 0.63869491E+03</rscale>
<asrwt>0</asrwt>
<pdfrwt beam="1">  1        2 0.21894814E+00 0.63869491E+03</pdfrwt>
<pdfrwt beam="2">  1       -2 0.11024501E-01 0.63869491E+03</pdfrwt>
<totfact> 0.83434460E+02</totfact>
</mgrwt>
</event>
<event>
 6    1  0.5040916E-004  0.3182066E+04  0.7818608E-02  0.8193570E-01
         -2   -1    0    0    0  501 -0.00000000000E+00  0.00000000000E+00  0.16481159765E+04  0.16481159765E+04  0.00000000000E+00 0. -1.
          2   -1    0    0  501    0  0.00000000000E+00 -0.00000000000E+00 -0.15359273360E+04  0.15359273360E+04  0.00000000000E+00 0.  1.
         23    2    1    2    0    0 -0.59266666527E+03 -0.12327321195E+04 -0.75400905283E+03  0.15650372291E+04  0.99647489225E+02 0.  0.
         13    1    3    3    0    0 -0.91260578795E+02 -0.28436807209E+03 -0.16078789568E+03  0.33918496585E+03  0.00000000000E+00 0. -1.
        -13    1    3    3    0    0 -0.50140608648E+03 -0.94836404737E+03 -0.59322115715E+03  0.12258522632E+04  0.00000000000E+00 0.  1.
         22    1    1    2    0    0  0.59266666527E+03  0.12327321195E+04  0.86619769332E+03  0.16190060835E+04  0.00000000000E+00 0. -1.
<mgrwt>
<rscale>  0 0.31820662E+04</rscale>
<asrwt>0</asrwt>
<pdfrwt beam="1">  1        2 0.23629651E+00 0.31820662E+04</pdfrwt>
<pdfrwt beam="2">  1       -2 0.25355630E+00 0.31820662E+04</pdfrwt>
<totfact> 0.62431471E-01</totfact>
</mgrwt>
</event>
<event>
 6    1  0.5040916E-004  0.1943608E+04  0.7818608E-02  0.8633449E-01
          2   -1    0    0  501    0  0.00000000000E+00  0.00000000000E+00  0.16249389744E+04  0.16249389744E+04  0.00000000000E+00 0.  1.
         -2   -1    0    0    0  501 -0.00000000000E+00 -0.00000000000E+00 -0.58119319145E+03  0.58119319145E+03  0.00000000000E+00 0. -1.
         23    2    1    2    0    0  0.55274018818E+03 -0.74222220490E+03  0.19416949221E+03  0.94986969691E+03  0.90194968411E+02 0.  0.
         13    1    3    3    0    0  0.43808526420E+03 -0.59925563738E+03  0.19138425012E+03  0.76658590440E+03  0.00000000000E+00 0. -1.
        -13    1    3    3    0    0  0.11465492398E+03 -0.14296656752E+03  0.27852420948E+01  0.18328379251E+03  0.00000000000E+00 0.  1.
         22    1    1    2    0    0 -0.55274018818E+03  0.74222220490E+03  0.84957629072E+03  0.12562624689E+04  0.00000000000E+00 0. -1.
<mgrwt>
<rscale>  0 0.19436085E+04</rscale>
<asrwt>0</asrwt>
<pdfrwt beam="1">  1        2 0.24999061E+00 0.19436085E+04</pdfrwt>
<pdfrwt beam="2">  1       -2 0.89414338E-01 0.19436085E+04</pdfrwt>
<totfact> 0.10813356E+01</totfact>
</mgrwt>
</event>
<event>
 6    1  0.5040916E-004  0.2100255E+04  0.7818608E-02  0.8561131E-01
          2   -1    0    0  501    0  0.00000000000E+00  0.00000000000E+00  0.71472142362E+03  0.71472142362E+03  0.00000000000E+00 0.  1.
         -2   -1    0    0    0  501 -0.00000000000E+00 -0.00000000000E+00 -0.15429341272E+04  0.15429341272E+04  0.00000000000E+00 0. -1.
         23    2    1    2    0    0 -0.91091981056E+03  0.32484016001E+03  0.17447154464E+02  0.97296234762E+03  0.10514416697E+03 0.  0.
         11    1    3    3    0    0 -0.76002631436E+03  0.24104517930E+03 -0.14324155301E+02  0.79746345271E+03  0.00000000000E+00 0. -1.
        -11    1    3    3    0    0 -0.15089349620E+03  0.83794980713E+02  0.31771309765E+02  0.17549889490E+03  0.00000000000E+00 0.  1.
         22    1    1    2    0    0  0.91091981056E+03 -0.32484016001E+03 -0.84565985801E+03  0.12846932032E+04  0.00000000000E+00 0. -1.
<mgrwt>
<rscale>  0 0.21002553E+04</rscale>
<asrwt>0</asrwt>
<pdfrwt beam="1">  1        2 0.10995714E+00 0.21002553E+04</pdfrwt>
<pdfrwt beam="2">  1       -2 0.23737448E+00 0.21002553E+04</pdfrwt>
<totfact> 0.28269218E+00</totfact>
</mgrwt>
</event>
<event>
 6    1  0.5040916E-004  0.5147924E+04  0.7818608E-02  0.7806085E-01
         -2   -1    0    0    0  501 -0.00000000000E+00  0.00000000000E+00  0.37297705158E+04  0.37297705158E+04  0.00000000000E+00 0. -1.
          2   -1    0    0  501    0  0.00000000000E+00 -0.00000000000E+00 -0.17763235635E+04  0.17763235635E+04  0.00000000000E+00 0.  1.
         23    2    1    2    0    0 -0.16627123292E+04 -0.80382697642E+03  0.28934471908E+04  0.34338125960E+04  0.91006596073E+02 0.  0.
         11    1    3    3    0    0 -0.12496775383E+04 -0.59949573779E+03  0.20970091758E+04  0.25136699411E+04  0.00000000000E+00 0.  1.
        -11    1    3    3    0    0 -0.41303479096E+03 -0.20433123864E+03  0.79643801502E+03  0.92014265491E+03  0.00000000000E+00 0. -1.
         22    1    1    2    0    0  0.16627123292E+04  0.80382697642E+03 -0.94000023856E+03  0.20722814834E+04  0.00000000000E+00 0.  1.
<mgrwt>
<rscale>  0 0.51479236E+04</rscale>
<asrwt>0</asrwt>
<pdfrwt beam="1">  1        2 0.27328055E+00 0.51479236E+04</pdfrwt>
<pdfrwt beam="2">  1       -2 0.57381085E+00 0.51479236E+04</pdfrwt>
<totfact> 0.42416656E-03</totfact>
</mgrwt>
</event>
<event>
 6    1  0.5040916E-004  0.1269557E+04  0.7818608E-02  0.9054061E-01
          2   -1    0    0  501    0  0.00000000000E+00  0.00000000000E+00  0.16809741848E+04  0.16809741848E+04  0.00000000000E+00 0.  1.
         -2   -1    0    0    0  501 -0.00000000000E+00 -0.00000000000E+00 -0.23970845985E+03  0.23970845985E+03  0.00000000000E+00 0. -1.
         23    2    1    2    0    0 -0.39339186783E+03 -0.49042247755E+03  0.81539822619E+03  0.10335628702E+04  0.90036499716E+02 0.  0.
         13    1    3    3    0    0 -0.14106622190E+03 -0.11604179524E+03  0.20935491058E+03  0.27783962242E+03  0.00000000000E+00 0.  1.
        -13    1    3    3    0    0 -0.25232564593E+03 -0.37438068231E+03  0.60604331561E+03  0.75572324780E+03  0.00000000000E+00 0. -1.
         22    1    1    2    0    0  0.39339186783E+03  0.49042247755E+03  0.62586749878E+03  0.88711977443E+03  0.00000000000E+00 0.  1.
<mgrwt>
<rscale>  0 0.12695570E+04</rscale>
<asrwt>0</asrwt>
<pdfrwt beam="1">  1        2 0.25861141E+00 0.12695570E+04</pdfrwt>
<pdfrwt beam="2">  1       -2 0.36878226E-01 0.12695570E+04</pdfrwt>
<totfact> 0.68364497E+01</totfact>
</mgrwt>
</event>
<event>
 6    1  0.5040916E-004  0.1694554E+04  0.7818608E-02  0.8764477E-01
         -2   -1    0    0    0  501 -0.00000000000E+00  0.00000000000E+00  0.27090746647E+03  0.27090746647E+03  0.00000000000E+00 0.  1.
          2   -1    0    0  501    0  0.00000000000E+00 -0.00000000000E+00 -0.26499012961E+04  0.26499012961E+04  0.00000000000E+00 0. -1.
         23    2    1    2    0    0 -0.77002224207E+03 -0.28142461099E+03 -0.84014163774E+03  0.11771917939E+04  0.88365622378E+02 0.  0.
         11    1    3    3    0    0 -0.39598599357E+03 -0.10486616743E+03 -0.38454712439E+03  0.56185257056E+03  0.00000000000E+00 0. -1.
        -11    1    3    3    0    0 -0.37403624850E+03 -0.17655844356E+03 -0.45559451335E+03  0.61533922334E+03  0.00000000000E+00 0.  1.
         22    1    1    2    0    0  0.77002224207E+03  0.28142461099E+03 -0.15388521919E+04  0.17436169687E+04  0.00000000000E+00 0. -1.
<mgrwt>
<rscale>  0 0.16945537E+04</rscale>
<asrwt>0</asrwt>
<pdfrwt beam="1">  1        2 0.40767713E+00 0.16945537E+04</pdfrwt>
<pdfrwt beam="2">  1       -2 0.41678071E-01 0.16945537E+04</pdfrwt>
<totfact> 0.14803586E+01</totfact>
</mgrwt>
</event>
<event>
 6    1  0.5040916E-004  0.2932483E+04  0.7818608E-02  0.8263278E-01
          2   -1    0    0  501    0  0.00000000000E+00  0.00000000000E+00  0.14737791014E+04  0.14737791014E+04  0.00000000000E+00 0.  1.
         -2   -1    0    0    0  501 -0.00000000000E+00 -0.00000000000E+00 -0.14587422465E+04  0.14587422465E+04  0.00000000000E+00 0. -1.
         23    2    1    2    0    0  0.37822703679E+03  0.12844482230E+02  0.14226432617E+04  0.14749286516E+04  0.90994533863E+02 0.  0.
         11    1    3    3    0    0  0.21788319237E+03 -0.33828888898E+02  0.73968488453E+03  0.77184921303E+03  0.00000000000E+00 0. -1.
        -11    1    3    3    0    0  0.16034384442E+03  0.46673371127E+02  0.68295837715E+03  0.70307943857E+03  0.00000000000E+00 0.  1.
         22    1    1    2    0    0 -0.37822703679E+03 -0.12844482230E+02 -0.14076064068E+04  0.14575926964E+04  0.00000000000E+00 0. -1.
<mgrwt>
<rscale>  0 0.29324828E+04</rscale>
<asrwt>0</asrwt>
<pdfrwt beam="1">  1        2 0.22673525E+00 0.29324828E+04</pdfrwt>
<pdfrwt beam="2">  1       -2 0.22442188E+00 0.29324828E+04</pdfrwt>
<totfact> 0.10479090E+00</totfact>
</mgrwt>
</event>
<event>
 6    1  0.5040916E-004  0.1735936E+04  0.7818608E-02  0.8741130E-01
          2   -1    0    0  501    0  0.00000000000E+00  0.00000000000E+00  0.23480034492E+04  0.23480034492E+04  0.00000000000E+00 0.  1.
         -2   -1    0    0    0  501 -0.00000000000E+00 -0.00000000000E+00 -0.32085485038E+03  0.32085485038E+03  0.00000000000E+00 0. -1.
         23    2    1    2    0    0  0.83356036363E+03  0.13531031382E+03  0.72477236629E+03  0.11166612722E+04  0.92226097061E+02 0.  0.
         11    1    3    3    0    0  0.43299560329E+03  0.54762405568E+02  0.31707320631E+03  0.53946226160E+03  0.00000000000E+00 0.  1.
        -11    1    3    3    0    0  0.40056476033E+03  0.80547908248E+02  0.40769915997E+03  0.57719901056E+03  0.00000000000E+00 0. -1.
         22    1    1    2    0    0 -0.83356036363E+03 -0.13531031382E+03  0.13023762325E+04  0.15521970274E+04  0.00000000000E+00 0. -1.
<mgrwt>
<rscale>  0 0.17359358E+04</rscale>
<asrwt>0</asrwt>
<pdfrwt beam="1">  1        2 0.36123129E+00 0.17359358E+04</pdfrwt>
<pdfrwt beam="2">  1       -2 0.49362286E-01 0.17359358E+04</pdfrwt>
<totfact> 0.15706128E+01</totfact>
</mgrwt>
</event>
<event>
 6    1  0.5040916E-004  0.1515860E+04  0.7818608E-02  0.8873974E-01
         -2   -1    0    0    0  501 -0.00000000000E+00  0.00000000000E+00  0.25419294913E+03  0.25419294913E+03  0.00000000000E+00 0. -1.
          2   -1    0    0  501    0  0.00000000000E+00 -0.00000000000E+00 -0.22599279569E+04  0.22599279569E+04  0.00000000000E+00 0.  1.
         23    2    1    2    0    0 -0.51959523188E+02  0.60446472970E+03 -0.26120437971E+03  0.66710587801E+03  0.93408366775E+02 0.  0.
         11    1    3    3    0    0 -0.11736085334E+02  0.47363552468E+03 -0.17352856692E+03  0.50455971844E+03  0.00000000000E+00 0.  1.
        -11    1    3    3    0    0 -0.40223437854E+02  0.13082920503E+03 -0.87675812795E+02  0.16254615957E+03  0.00000000000E+00 0. -1.
         22    1    1    2    0    0  0.51959523188E+02 -0.60446472970E+03 -0.17445306280E+04  0.18470150280E+04  0.00000000000E+00 0.  1.
<mgrwt>
<rscale>  0 0.15158598E+04</rscale>
<asrwt>0</asrwt>
<pdfrwt beam="1">  1        2 0.34768124E+00 0.15158598E+04</pdfrwt>
<pdfrwt beam="2">  1       -2 0.39106605E-01 0.15158598E+04</pdfrwt>
<totfact> 0.28533590E+01</totfact>
</mgrwt>
</event>
<event>
 6    1  0.5040916E-004  0.2598904E+04  0.7818608E-02  0.8368574E-01
          2   -1    0    0  501    0  0.00000000000E+00  0.00000000000E+00  0.17731742529E+04  0.17731742529E+04  0.00000000000E+00 0.  1.
         -2   -1    0    0    0  501 -0.00000000000E+00 -0.00000000000E+00 -0.95228942628E+03  0.95228942628E+03  0.00000000000E+00 0. -1.
         23    2    1    2    0    0  0.11456330756E+04 -0.59623064029E+03  0.54730614693E+03  0.14053078496E+04  0.85907003935E+02 0.  0.
         13    1    3    3    0    0  0.60004339796E+03 -0.31357761968E+03  0.24029021681E+03  0.71841658618E+03  0.00000000000E+00 0.  1.
        -13    1    3    3    0    0  0.54558967766E+03 -0.28265302061E+03  0.30701593012E+03  0.68689126343E+03  0.00000000000E+00 0. -1.
         22    1    1    2    0    0 -0.11456330756E+04  0.59623064029E+03  0.27357867968E+03  0.13201558296E+04  0.00000000000E+00 0. -1.
<mgrwt>
<rscale>  0 0.25989037E+04</rscale>
<asrwt>0</asrwt>
<pdfrwt beam="1">  1        2 0.27279604E+00 0.25989037E+04</pdfrwt>
<pdfrwt beam="2">  1       -2 0.14650607E+00 0.25989037E+04</pdfrwt>
<totfact> 0.25194913E+00</totfact>
</mgrwt>
</event>
<event>
 6    1  0.5040916E-004  0.3606679E+04  0.7818608E-02  0.8088964E-01
         -2   -1    0    0    0  501 -0.00000000000E+00  0.00000000000E+00  0.96496164634E+03  0.96496164634E+03  0.00000000000E+00 0. -1.
          2   -1    0    0  501    0  0.00000000000E+00 -0.00000000000E+00 -0.33701160093E+04  0.33701160093E+04  0.00000000000E+00 0.  1.
         23    2    1    2    0    0  0.34227365749E+03 -0.88643957498E+03 -0.30439185402E+04  0.31901121318E+04  0.91918208602E+02 0.  0.
         13    1    3    3    0    0  0.13184139890E+03 -0.45449291748E+03 -0.15816252882E+04  0.16509041519E+04  0.00000000000E+00 0.  1.
        -13    1    3    3    0    0  0.21043225858E+03 -0.43194665750E+03 -0.14622932521E+04  0.15392079799E+04  0.00000000000E+00 0. -1.
         22    1    1    2    0    0 -0.34227365749E+03  0.88643957498E+03  0.63876417726E+03  0.11449655239E+04  0.00000000000E+00 0. -1.
<mgrwt>
<rscale>  0 0.36066786E+04</rscale>
<asrwt>0</asrwt>
<pdfrwt beam="1">  1        2 0.51847939E+00 0.36066786E+04</pdfrwt>
<pdfrwt beam="2">  1       -2 0.14845564E+00 0.36066786E+04</pdfrwt>
<totfact> 0.25028739E-01</totfact>
</mgrwt>
</event>
<event>
 6    1  0.5040916E-004  0.2793647E+04  0.7818608E-02  0.8305244E-01
         -2   -1    0    0    0  501 -0.00000000000E+00  0.00000000000E+00  0.17512863992E+04  0.17512863992E+04  0.00000000000E+00 0. -1.
          2   -1    0    0  501    0  0.00000000000E+00 -0.00000000000E+00 -0.11141041080E+04  0.11141041080E+04  0.00000000000E+00 0.  1.
         23    2    1    2    0    0  0.33637186558E+03 -0.87905444516E+03  0.13756129990E+04  0.16690783991E+04  0.87343173353E+02 0.  0.
         13    1    3    3    0    0  0.22955865222E+03 -0.56143556773E+03  0.95433042043E+03  0.11307756731E+04  0.00000000000E+00 0.  1.
        -13    1    3    3    0    0  0.10681321337E+03 -0.31761887743E+03  0.42128257857E+03  0.53830272603E+03  0.00000000000E+00 0. -1.
         22    1    1    2    0    0 -0.33637186558E+03  0.87905444516E+03 -0.73843070784E+03  0.11963121080E+04  0.00000000000E+00 0.  1.
<mgrwt>
<rscale>  0 0.27936466E+04</rscale>
<asrwt>0</asrwt>
<pdfrwt beam="1">  1        2 0.17140063E+00 0.27936466E+04</pdfrwt>
<pdfrwt beam="2">  1       -2 0.26942868E+00 0.27936466E+04</pdfrwt>
<totfact> 0.90830459E-01</totfact>
</mgrwt>
</event>
<event>
 6    1  0.5040916E-004  0.6019648E+03  0.7818608E-02  0.9901338E-01
          2   -1    0    0  501    0  0.00000000000E+00  0.00000000000E+00  0.28099400752E+03  0.28099400752E+03  0.00000000000E+00 0.  1.
         -2   -1    0    0    0  501 -0.00000000000E+00 -0.00000000000E+00 -0.32239270538E+03  0.32239270538E+03  0.00000000000E+00 0. -1.
         23    2    1    2    0    0  0.28207863889E+03 -0.56219134934E+02 -0.79781263811E+02  0.31321060944E+03  0.94904616103E+02 0.  0.
         13    1    3    3    0    0  0.91706278415E+02 -0.51133772248E+02  0.41833987902E+01  0.10508189659E+03  0.00000000000E+00 0. -1.
        -13    1    3    3    0    0  0.19037236048E+03 -0.50853626867E+01 -0.83964662601E+02  0.20812871285E+03  0.00000000000E+00 0.  1.
         22    1    1    2    0    0 -0.28207863889E+03  0.56219134934E+02  0.38382565960E+02  0.29017610346E+03  0.00000000000E+00 0. -1.
<mgrwt>
<rscale>  0 0.60196484E+03</rscale>
<asrwt>0</asrwt>
<pdfrwt beam="1">  1        2 0.43229848E-01 0.60196484E+03</pdfrwt>
<pdfrwt beam="2">  1       -2 0.49598877E-01 0.60196484E+03</pdfrwt>
<totfact> 0.45838500E+02</totfact>
</mgrwt>
</event>
<event>
 6    1  0.5040916E-004  0.2526155E+04  0.7818608E-02  0.8393726E-01
          2   -1    0    0  501    0  0.00000000000E+00  0.00000000000E+00  0.26375259457E+04  0.26375259457E+04  0.00000000000E+00 0.  1.
         -2   -1    0    0    0  501 -0.00000000000E+00 -0.00000000000E+00 -0.60487184371E+03  0.60487184371E+03  0.00000000000E+00 0. -1.
         23    2    1    2    0    0 -0.86085709319E+03 -0.52515256138E+02  0.21992578814E+04  0.23639960554E+04  0.88934437030E+02 0.  0.
         11    1    3    3    0    0 -0.18671306264E+03  0.16059991710E+02  0.41306631513E+03  0.45358954109E+03  0.00000000000E+00 0.  1.
        -11    1    3    3    0    0 -0.67414403055E+03 -0.68575247848E+02  0.17861915663E+04  0.19104065143E+04  0.00000000000E+00 0. -1.
         22    1    1    2    0    0  0.86085709319E+03  0.52515256138E+02 -0.16660377938E+03  0.87840173402E+03  0.00000000000E+00 0. -1.
<mgrwt>
<rscale>  0 0.25261553E+04</rscale>
<asrwt>0</asrwt>
<pdfrwt beam="1">  1        2 0.40577322E+00 0.25261553E+04</pdfrwt>
<pdfrwt beam="2">  1       -2 0.93057208E-01 0.25261553E+04</pdfrwt>
<totfact> 0.25169906E+00</totfact>
</mgrwt>
</event>
<event>
 6    1  0.5040916E-004  0.2529784E+04  0.7818608E-02  0.8392451E-01
          2   -1    0    0  501    0  0.00000000000E+00  0.00000000000E+00  0.15217895242E+04  0.15217895242E+04  0.00000000000E+00 0.  1.
         -2   -1    0    0    0  501 -0.00000000000E+00 -0.00000000000E+00 -0.10513617692E+04  0.10513617692E+04  0.00000000000E+00 0. -1.
         23    2    1    2    0    0  0.68276245744E+03 -0.34776465900E+03  0.12570385950E+04  0.14750340661E+04  0.92057783233E+02 0.  0.
         11    1    3    3    0    0  0.34755798459E+03 -0.16831993669E+03  0.54662371035E+03  0.66927246653E+03  0.00000000000E+00 0.  1.
        -11    1    3    3    0    0  0.33520447286E+03 -0.17944472231E+03  0.71041488468E+03  0.80576159959E+03  0.00000000000E+00 0. -1.
         22    1    1    2    0    0 -0.68276245744E+03  0.34776465900E+03 -0.78661083994E+03  0.10981172273E+04  0.00000000000E+00 0. -1.
<mgrwt>
<rscale>  0 0.25297836E+04</rscale>
<asrwt>0</asrwt>
<pdfrwt beam="1">  1        2 0.23412147E+00 0.25297836E+04</pdfrwt>
<pdfrwt beam="2">  1       -2 0.16174796E+00 0.25297836E+04</pdfrwt>
<totfact> 0.26849043E+00</totfact>
</mgrwt>
</event>
<event>
 6    1  0.5040916E-004  0.2545866E+04  0.7818608E-02  0.8386825E-01
         -2   -1    0    0    0  501 -0.00000000000E+00  0.00000000000E+00  0.80171330610E+03  0.80171330610E+03  0.00000000000E+00 0. -1.
          2   -1    0    0  501    0  0.00000000000E+00 -0.00000000000E+00 -0.20211195775E+04  0.20211195775E+04  0.00000000000E+00 0.  1.
         23    2    1    2    0    0 -0.33489193160E+03 -0.59601512129E+03  0.57793631036E+03  0.89985940826E+03  0.91378034231E+02 0.  0.
         11    1    3    3    0    0 -0.14296969543E+03 -0.34566957082E+03  0.30219805075E+03  0.48088610697E+03  0.00000000000E+00 0. -1.
        -11    1    3    3    0    0 -0.19192223618E+03 -0.25034555048E+03  0.27573825961E+03  0.41897330129E+03  0.00000000000E+00 0.  1.
         22    1    1    2    0    0  0.33489193160E+03  0.59601512129E+03 -0.17973425818E+04  0.19229734753E+04  0.00000000000E+00 0.  1.
<mgrwt>
<rscale>  0 0.25458660E+04</rscale>
<asrwt>0</asrwt>
<pdfrwt beam="1">  1        2 0.31094147E+00 0.25458660E+04</pdfrwt>
<pdfrwt beam="2">  1       -2 0.12334051E+00 0.25458660E+04</pdfrwt>
<totfact> 0.28647889E+00</totfact>
</mgrwt>
</event>
<event>
 6    1  0.5040916E-004  0.2328154E+04  0.7818608E-02  0.8466902E-01
          2   -1    0    0  501    0  0.00000000000E+00  0.00000000000E+00  0.27776307821E+04  0.27776307821E+04  0.00000000000E+00 0.  1.
         -2   -1    0    0    0  501 -0.00000000000E+00 -0.00000000000E+00 -0.48785306262E+03  0.48785306262E+03  0.00000000000E+00 0. -1.
         23    2    1    2    0    0 -0.19512872636E+03 -0.36607895074E+03  0.26695056617E+04  0.27030940083E+04  0.91475255050E+02 0.  0.
         13    1    3    3    0    0 -0.10694056964E+03 -0.28702383267E+03  0.19466459497E+04  0.19705962091E+04  0.00000000000E+00 0.  1.
        -13    1    3    3    0    0 -0.88188156713E+02 -0.79055118063E+02  0.72285971199E+03  0.73249779924E+03  0.00000000000E+00 0. -1.
         22    1    1    2    0    0  0.19512872636E+03  0.36607895074E+03 -0.37972794217E+03  0.56238983640E+03  0.00000000000E+00 0. -1.
<mgrwt>
<rscale>  0 0.23281544E+04</rscale>
<asrwt>0</asrwt>
<pdfrwt beam="1">  1        2 0.42732780E+00 0.23281544E+04</pdfrwt>
<pdfrwt beam="2">  1       -2 0.75054319E-01 0.23281544E+04</pdfrwt>
<totfact> 0.34409618E+00</totfact>
</mgrwt>
</event>
<event>
 6    1  0.5040916E-004  0.1817027E+04  0.7818608E-02  0.8697297E-01
         -2   -1    0    0    0  501 -0.00000000000E+00  0.00000000000E+00  0.31935254506E+03  0.31935254506E+03  0.00000000000E+00 0. -1.
          2   -1    0    0  501    0  0.00000000000E+00 -0.00000000000E+00 -0.25845950988E+04  0.25845950988E+04  0.00000000000E+00 0.  1.
         23    2    1    2    0    0 -0.43236247472E+03 -0.57880361906E+03 -0.26104608387E+03  0.77351237640E+03  0.90693988537E+02 0.  0.
         13    1    3    3    0    0 -0.65755332805E+02 -0.11712590964E+03 -0.16724202965E+02  0.13535856628E+03  0.00000000000E+00 0. -1.
        -13    1    3    3    0    0 -0.36660714192E+03 -0.46167770942E+03 -0.24432188091E+03  0.63815381012E+03  0.00000000000E+00 0.  1.
         22    1    1    2    0    0  0.43236247472E+03  0.57880361906E+03 -0.20041964698E+04  0.21304352674E+04  0.00000000000E+00 0.  1.
<mgrwt>
<rscale>  0 0.18170273E+04</rscale>
<asrwt>0</asrwt>
<pdfrwt beam="1">  1        2 0.39763001E+00 0.18170273E+04</pdfrwt>
<pdfrwt beam="2">  1       -2 0.49131162E-01 0.18170273E+04</pdfrwt>
<totfact> 0.11506086E+01</totfact>
</mgrwt>
</event>
<event>
 6    1  0.5040916E-004  0.5607276E+04  0.7818608E-02  0.7741098E-01
          2   -1    0    0  501    0  0.00000000000E+00  0.00000000000E+00  0.27778598530E+04  0.27778598530E+04  0.00000000000E+00 0.  1.
         -2   -1    0    0    0  501 -0.00000000000E+00 -0.00000000000E+00 -0.28296552358E+04  0.28296552358E+04  0.00000000000E+00 0. -1.
         23    2    1    2    0    0  0.10973405429E+04 -0.21398177643E+04  0.14140429539E+04  0.27911950856E+04  0.90973616940E+02 0.  0.
         11    1    3    3    0    0  0.83182722813E+03 -0.16172336334E+04  0.11140958566E+04  0.21327425396E+04  0.00000000000E+00 0.  1.
        -11    1    3    3    0    0  0.26551331476E+03 -0.52258413092E+03  0.29994709723E+03  0.65845254601E+03  0.00000000000E+00 0. -1.
         22    1    1    2    0    0 -0.10973405429E+04  0.21398177643E+04 -0.14658383367E+04  0.28163200033E+04  0.00000000000E+00 0. -1.
<mgrwt>
<rscale>  0 0.56072759E+04</rscale>
<asrwt>0</asrwt>
<pdfrwt beam="1">  1        2 0.42736306E+00 0.56072759E+04</pdfrwt>
<pdfrwt beam="2">  1       -2 0.43533157E+00 0.56072759E+04</pdfrwt>
<totfact> 0.72034232E-03</totfact>
</mgrwt>
</event>
<event>
 6    1  0.5040916E-004  0.3080540E+04  0.7818608E-02  0.8221099E-01
          2   -1    0    0  501    0  0.00000000000E+00  0.00000000000E+00  0.41909045521E+04  0.41909045521E+04  0.00000000000E+00 0.  1.
         -2   -1    0    0    0  501 -0.00000000000E+00 -0.00000000000E+00 -0.56609069055E+03  0.56609069055E+03  0.00000000000E+00 0. -1.
         23    2    1    2    0    0  0.14023137090E+04  0.11952095829E+03  0.85157673081E+03  0.16470735103E+04  0.83061556414E+02 0.  0.
         13    1    3    3    0    0  0.11755339845E+04  0.70702223776E+02  0.70071406866E+03  0.13703573108E+04  0.00000000000E+00 0.  1.
        -13    1    3    3    0    0  0.22677972444E+03  0.48818734515E+02  0.15086266215E+03  0.27671619954E+03  0.00000000000E+00 0. -1.
         22    1    1    2    0    0 -0.14023137090E+04 -0.11952095829E+03  0.27732371307E+04  0.31099217323E+04  0.00000000000E+00 0.  1.
<mgrwt>
<rscale>  0 0.30805402E+04</rscale>
<asrwt>0</asrwt>
<pdfrwt beam="1">  1        2 0.64475453E+00 0.30805402E+04</pdfrwt>
<pdfrwt beam="2">  1       -2 0.87090878E-01 0.30805402E+04</pdfrwt>
<totfact> 0.22924365E-01</totfact>
</mgrwt>
</event>
<event>
 6    1  0.5040916E-004  0.2347951E+04  0.7818608E-02  0.8459251E-01
          2   -1    0    0  501    0  0.00000000000E+00  0.00000000000E+00  0.34739685412E+04  0.34739685412E+04  0.00000000000E+00 0.  1.
         -2   -1    0    0    0  501 -0.00000000000E+00 -0.00000000000E+00 -0.39672748421E+03  0.39672748421E+03  0.00000000000E+00 0. -1.
         23    2    1    2    0    0 -0.57439123048E+03 -0.10056803053E+04  0.12577020424E+04  0.17138371085E+04  0.11876466155E+03 0.  0.
         11    1    3    3    0    0 -0.58207916500E+02 -0.69892620775E+02  0.61666057696E+02  0.10989013902E+03  0.00000000000E+00 0.  1.
        -11    1    3    3    0    0 -0.51618331398E+03 -0.93578768449E+03  0.11960359847E+04  0.16039469694E+04  0.00000000000E+00 0. -1.
         22    1    1    2    0    0  0.57439123048E+03  0.10056803053E+04  0.18195390146E+04  0.21568589170E+04  0.00000000000E+00 0.  1.
<mgrwt>
<rscale>  0 0.23479513E+04</rscale>
<asrwt>0</asrwt>
<pdfrwt beam="1">  1        2 0.53445668E+00 0.23479513E+04</pdfrwt>
<pdfrwt beam="2">  1       -2 0.61035000E-01 0.23479513E+04</pdfrwt>
<totfact> 0.19163675E+00</totfact>
</mgrwt>
</event>
<event>
 6    1  0.5421482E-004  0.4754656E+04  0.7818608E-02  0.7867510E-01
          2   -1    0    0  501    0  0.00000000000E+00  0.00000000000E+00  0.26266569180E+04  0.26266569180E+04  0.00000000000E+00 0.  1.
         -2   -1    0    0    0  501 -0.00000000000E+00 -0.00000000000E+00 -0.21516660635E+04  0.21516660635E+04  0.00000000000E+00 0. -1.
         23    2    1    2    0    0  0.83290965559E+03  0.10480959054E+03  0.24718252709E+04  0.26122040486E+04  0.94690428546E+02 0.  0.
         13    1    3    3    0    0  0.41819494093E+03  0.59630453644E+02  0.13883614533E+04  0.14512030611E+04  0.00000000000E+00 0. -1.
        -13    1    3    3    0    0  0.41471471466E+03  0.45179136897E+02  0.10834638176E+04  0.11610009875E+04  0.00000000000E+00 0.  1.
         22    1    1    2    0    0 -0.83290965559E+03 -0.10480959054E+03 -0.19968344164E+04  0.21661189328E+04  0.00000000000E+00 0. -1.
<mgrwt>
<rscale>  0 0.47546561E+04</rscale>
<asrwt>0</asrwt>
<pdfrwt beam="1">  1        2 0.40410106E+00 0.47546561E+04</pdfrwt>
<pdfrwt beam="2">  1       -2 0.33102555E+00 0.47546561E+04</pdfrwt>
<totfact> 0.44569912E-02</totfact>
</mgrwt>
</event>
<event>
 6    1  0.5040916E-004  0.1128320E+04  0.7818608E-02  0.9178021E-01
         -2   -1    0    0    0  501 -0.00000000000E+00  0.00000000000E+00  0.47334509972E+03  0.47334509972E+03  0.00000000000E+00 0. -1.
          2   -1    0    0  501    0  0.00000000000E+00 -0.00000000000E+00 -0.67239798484E+03  0.67239798484E+03  0.00000000000E+00 0.  1.
         23    2    1    2    0    0  0.41991358577E+03  0.46312491859E+01  0.27689958273E+03  0.51101509587E+03  0.90078750584E+02 0.  0.
         13    1    3    3    0    0  0.11935176904E+03  0.16511429761E+02  0.36320028623E+02  0.12584361948E+03  0.00000000000E+00 0. -1.
        -13    1    3    3    0    0  0.30056181673E+03 -0.11880180575E+02  0.24057955410E+03  0.38517147638E+03  0.00000000000E+00 0.  1.
         22    1    1    2    0    0 -0.41991358577E+03 -0.46312491859E+01 -0.47595246785E+03  0.63472798869E+03  0.00000000000E+00 0.  1.
<mgrwt>
<rscale>  0 0.11283196E+04</rscale>
<asrwt>0</asrwt>
<pdfrwt beam="1">  1        2 0.10344584E+00 0.11283196E+04</pdfrwt>
<pdfrwt beam="2">  1       -2 0.72822324E-01 0.11283196E+04</pdfrwt>
<totfact> 0.72861290E+01</totfact>
</mgrwt>
</event>
<event>
 6    1  0.5040916E-004  0.2461890E+04  0.7818608E-02  0.8416689E-01
         -1   -1    0    0    0  501 -0.00000000000E+00  0.00000000000E+00  0.17350630914E+04  0.17350630914E+04  0.00000000000E+00 0. -1.
          1   -1    0    0  501    0  0.00000000000E+00 -0.00000000000E+00 -0.87329742426E+03  0.87329742426E+03  0.00000000000E+00 0.  1.
         23    2    1    2    0    0 -0.75349140000E+03 -0.77887731296E+03 -0.18298577101E+03  0.11030682763E+04  0.94216087544E+02 0.  0.
         11    1    3    3    0    0 -0.25794967040E+03 -0.20999277368E+03 -0.37558272506E+02  0.33473216352E+03  0.00000000000E+00 0.  1.
        -11    1    3    3    0    0 -0.49554172960E+03 -0.56888453929E+03 -0.14542749850E+03  0.76833611273E+03  0.00000000000E+00 0. -1.
         22    1    1    2    0    0  0.75349140000E+03  0.77887731296E+03  0.10447514381E+04  0.15052922394E+04  0.00000000000E+00 0. -1.
<mgrwt>
<rscale>  0 0.24618904E+04</rscale>
<asrwt>0</asrwt>
<pdfrwt beam="1">  1        1 0.13435345E+00 0.24618904E+04</pdfrwt>
<pdfrwt beam="2">  1       -1 0.26693278E+00 0.24618904E+04</pdfrwt>
<totfact> 0.92310914E-01</totfact>
</mgrwt>
</event>
<event>
 6    1  0.5040916E-004  0.2154603E+04  0.7818608E-02  0.8537565E-01
         -1   -1    0    0    0  501 -0.00000000000E+00  0.00000000000E+00  0.42419242688E+03  0.42419242688E+03  0.00000000000E+00 0. -1.
          1   -1    0    0  501    0  0.00000000000E+00 -0.00000000000E+00 -0.27359715137E+04  0.27359715137E+04  0.00000000000E+00 0.  1.
         23    2    1    2    0    0  0.99038911709E+02 -0.11532430615E+02 -0.27284217803E+04  0.27317566146E+04  0.90923523842E+02 0.  0.
         13    1    3    3    0    0  0.13405392526E+02  0.73555948032E+01 -0.60779918008E+02  0.62673820346E+02  0.00000000000E+00 0. -1.
        -13    1    3    3    0    0  0.85633519183E+02 -0.18888025418E+02 -0.26676418623E+04  0.26690827942E+04  0.00000000000E+00 0.  1.
         22    1    1    2    0    0 -0.99038911709E+02  0.11532430615E+02  0.41664269344E+03  0.42840732602E+03  0.00000000000E+00 0. -1.
<mgrwt>
<rscale>  0 0.21546029E+04</rscale>
<asrwt>0</asrwt>
<pdfrwt beam="1">  1        1 0.42091870E+00 0.21546029E+04</pdfrwt>
<pdfrwt beam="2">  1       -1 0.65260373E-01 0.21546029E+04</pdfrwt>
<totfact> 0.20175403E+00</totfact>
</mgrwt>
</event>
<event>
 6    1  0.5040916E-004  0.1123831E+04  0.7818608E-02  0.9182271E-01
          2   -1    0    0  501    0  0.00000000000E+00  0.00000000000E+00  0.15038990347E+04  0.15038990347E+04  0.00000000000E+00 0.  1.
         -2   -1    0    0    0  501 -0.00000000000E+00 -0.00000000000E+00 -0.20995372762E+03  0.20995372762E+03  0.00000000000E+00 0. -1.
         23    2    1    2    0    0 -0.34664195900E+03 -0.25866143938E+03  0.11894670665E+04  0.12689009776E+04  0.90616779384E+02 0.  0.
         11    1    3    3    0    0 -0.22443559664E+03 -0.11159892870E+03  0.66619459291E+03  0.71178711252E+03  0.00000000000E+00 0. -1.
        -11    1    3    3    0    0 -0.12220636237E+03 -0.14706251068E+03  0.52327247357E+03  0.55711386506E+03  0.00000000000E+00 0.  1.
         22    1    1    2    0    0  0.34664195900E+03  0.25866143938E+03  0.10447824056E+03  0.44495178471E+03  0.00000000000E+00 0. -1.
<mgrwt>
<rscale>  0 0.11238313E+04</rscale>
<asrwt>0</asrwt>
<pdfrwt beam="1">  1        2 0.23136907E+00 0.11238313E+04</pdfrwt>
<pdfrwt beam="2">  1       -2 0.32300575E-01 0.11238313E+04</pdfrwt>
<totfact> 0.11167629E+02</totfact>
</mgrwt>
</event>
<event>
 6    1  0.5040916E-004  0.3545713E+03  0.7818608E-02  0.1060754E+00
          2   -1    0    0  501    0  0.00000000000E+00  0.00000000000E+00  0.28593587486E+03  0.28593587486E+03  0.00000000000E+00 0.  1.
         -2   -1    0    0    0  501 -0.00000000000E+00 -0.00000000000E+00 -0.10992043457E+03  0.10992043457E+03  0.00000000000E+00 0. -1.
         23    2    1    2    0    0 -0.15967354019E+03 -0.22138883060E+02  0.63902670303E+02  0.19950192884E+03  0.98649372812E+02 0.  0.
         11    1    3    3    0    0 -0.40490620660E+02  0.26754614630E+02 -0.11984622825E+02  0.49989308354E+02  0.00000000000E+00 0.  1.
        -11    1    3    3    0    0 -0.11918291953E+03 -0.48893497690E+02  0.75887293129E+02  0.14951262048E+03  0.00000000000E+00 0. -1.
         22    1    1    2    0    0  0.15967354019E+03  0.22138883060E+02  0.11211276999E+03  0.19635438059E+03  0.00000000000E+00 0.  1.
<mgrwt>
<rscale>  0 0.35457127E+03</rscale>
<asrwt>0</asrwt>
<pdfrwt beam="1">  1        2 0.43990134E-01 0.35457127E+03</pdfrwt>
<pdfrwt beam="2">  1       -2 0.16910836E-01 0.35457127E+03</pdfrwt>
<totfact> 0.32375569E+03</totfact>
</mgrwt>
</event>
<event>
 6    1  0.5040916E-004  0.2512984E+04  0.7818608E-02  0.8398375E-01
         -2   -1    0    0    0  501 -0.00000000000E+00  0.00000000000E+00  0.19150281336E+04  0.19150281336E+04  0.00000000000E+00 0. -1.
          2   -1    0    0  501    0  0.00000000000E+00 -0.00000000000E+00 -0.82441167984E+03  0.82441167984E+03  0.00000000000E+00 0.  1.
         23    2    1    2    0    0 -0.74245314111E+03 -0.38312450151E+03 -0.47463581994E+03  0.96516933498E+03  0.90838500643E+02 0.  0.
         11    1    3    3    0    0 -0.32922699584E+03 -0.14452034753E+03 -0.15956145648E+03  0.39336548405E+03  0.00000000000E+00 0. -1.
        -11    1    3    3    0    0 -0.41322614527E+03 -0.23860415398E+03 -0.31507436346E+03  0.57180385093E+03  0.00000000000E+00 0.  1.
         22    1    1    2    0    0  0.74245314111E+03  0.38312450151E+03  0.15652522737E+04  0.17742704785E+04  0.00000000000E+00 0. -1.
<mgrwt>
<rscale>  0 0.25129835E+04</rscale>
<asrwt>0</asrwt>
<pdfrwt beam="1">  1        2 0.12683257E+00 0.25129835E+04</pdfrwt>
<pdfrwt beam="2">  1       -2 0.29461971E+00 0.25129835E+04</pdfrwt>
<totfact> 0.10107592E+00</totfact>
</mgrwt>
</event>
<event>
 6    1  0.5040916E-004  0.3651879E+04  0.7818608E-02  0.8078710E-01
         -2   -1    0    0    0  501 -0.00000000000E+00  0.00000000000E+00  0.23337220635E+04  0.23337220635E+04  0.00000000000E+00 0. -1.
          2   -1    0    0  501    0  0.00000000000E+00 -0.00000000000E+00 -0.14286430835E+04  0.14286430835E+04  0.00000000000E+00 0.  1.
         23    2    1    2    0    0  0.11873999016E+03  0.12415334135E+04 -0.91952297176E+03  0.15522346793E+04  0.91682070303E+02 0.  0.
         13    1    3    3    0    0 -0.86850711630E+01  0.33455473742E+03 -0.24886566343E+03  0.41705685611E+03  0.00000000000E+00 0. -1.
        -13    1    3    3    0    0  0.12742506133E+03  0.90697867604E+03 -0.67065730833E+03  0.11351778232E+04  0.00000000000E+00 0.  1.
         22    1    1    2    0    0 -0.11873999016E+03 -0.12415334135E+04  0.18246019518E+04  0.22101304677E+04  0.00000000000E+00 0. -1.
<mgrwt>
<rscale>  0 0.36518795E+04</rscale>
<asrwt>0</asrwt>
<pdfrwt beam="1">  1        2 0.21979124E+00 0.36518795E+04</pdfrwt>
<pdfrwt beam="2">  1       -2 0.35903416E+00 0.36518795E+04</pdfrwt>
<totfact> 0.15417707E-01</totfact>
</mgrwt>
</event>
<event>
 6    1  0.5040916E-004  0.4257993E+04  0.7818608E-02  0.7954432E-01
          2   -1    0    0  501    0  0.00000000000E+00  0.00000000000E+00  0.44793908799E+04  0.44793908799E+04  0.00000000000E+00 0.  1.
         -2   -1    0    0    0  501 -0.00000000000E+00 -0.00000000000E+00 -0.10118843002E+04  0.10118843002E+04  0.00000000000E+00 0. -1.
         23    2    1    2    0    0 -0.19702349844E+04 -0.67531018331E+03  0.11716607069E+04  0.23914722817E+04  0.92093020300E+02 0.  0.
         11    1    3    3    0    0 -0.15459022490E+04 -0.51620629469E+03  0.95718430091E+03  0.18901017137E+04  0.00000000000E+00 0. -1.
        -11    1    3    3    0    0 -0.42433273539E+03 -0.15910388861E+03  0.21447640599E+03  0.50137056797E+03  0.00000000000E+00 0.  1.
         22    1    1    2    0    0  0.19702349844E+04  0.67531018331E+03  0.22958458728E+04  0.30998028985E+04  0.00000000000E+00 0. -1.
<mgrwt>
<rscale>  0 0.42579926E+04</rscale>
<asrwt>0</asrwt>
<pdfrwt beam="1">  1        2 0.68913705E+00 0.42579926E+04</pdfrwt>
<pdfrwt beam="2">  1       -2 0.15567451E+00 0.42579926E+04</pdfrwt>
<totfact> 0.26815396E-02</totfact>
</mgrwt>
</event>
<event>
 6    1  0.5040916E-004  0.5081329E+04  0.7818608E-02  0.7816083E-01
          2   -1    0    0  501    0  0.00000000000E+00  0.00000000000E+00  0.30642383649E+04  0.30642383649E+04  0.00000000000E+00 0.  1.
         -2   -1    0    0    0  501 -0.00000000000E+00 -0.00000000000E+00 -0.21065513590E+04  0.21065513590E+04  0.00000000000E+00 0. -1.
         23    2    1    2    0    0  0.16544996234E+04  0.17765409467E+04  0.12385268465E+04  0.27269530364E+04  0.94113623830E+02 0.  0.
         11    1    3    3    0    0  0.56280651922E+03  0.59153158101E+03  0.46578003289E+03  0.94000629171E+03  0.00000000000E+00 0.  1.
        -11    1    3    3    0    0  0.10916931042E+04  0.11850093657E+04  0.77274681359E+03  0.17869467447E+04  0.00000000000E+00 0. -1.
         22    1    1    2    0    0 -0.16544996234E+04 -0.17765409467E+04 -0.28083984053E+03  0.24438366875E+04  0.00000000000E+00 0.  1.
<mgrwt>
<rscale>  0 0.50813288E+04</rscale>
<asrwt>0</asrwt>
<pdfrwt beam="1">  1        2 0.47142129E+00 0.50813288E+04</pdfrwt>
<pdfrwt beam="2">  1       -2 0.32408482E+00 0.50813288E+04</pdfrwt>
<totfact> 0.25899491E-02</totfact>
</mgrwt>
</event>
<event>
 6    1  0.5040916E-004  0.1855547E+04  0.7818608E-02  0.8677306E-01
         -2   -1    0    0    0  501 -0.00000000000E+00  0.00000000000E+00  0.41496131162E+03  0.41496131162E+03  0.00000000000E+00 0. -1.
          2   -1    0    0  501    0  0.00000000000E+00 -0.00000000000E+00 -0.20743221608E+04  0.20743221608E+04  0.00000000000E+00 0.  1.
         23    2    1    2    0    0  0.49264046928E+03 -0.42402386765E+03  0.52002133343E+02  0.65864038043E+03  0.92801166782E+02 0.  0.
         11    1    3    3    0    0  0.32370639697E+02 -0.18379120137E+02 -0.17633881031E+02  0.41189854718E+02  0.00000000000E+00 0. -1.
        -11    1    3    3    0    0  0.46026982958E+03 -0.40564474752E+03  0.69636014374E+02  0.61745052571E+03  0.00000000000E+00 0.  1.
         22    1    1    2    0    0 -0.49264046928E+03  0.42402386765E+03 -0.17113629826E+04  0.18306430920E+04  0.00000000000E+00 0.  1.
<mgrwt>
<rscale>  0 0.18555468E+04</rscale>
<asrwt>0</asrwt>
<pdfrwt beam="1">  1        2 0.31912649E+00 0.18555468E+04</pdfrwt>
<pdfrwt beam="2">  1       -2 0.63840202E-01 0.18555468E+04</pdfrwt>
<totfact> 0.12953580E+01</totfact>
</mgrwt>
</event>
<event>
 6    1  0.5040916E-004  0.5902246E+04  0.7818608E-02  0.7702642E-01
         -2   -1    0    0    0  501 -0.00000000000E+00  0.00000000000E+00  0.25856310210E+04  0.25856310210E+04  0.00000000000E+00 0. -1.
          2   -1    0    0  501    0  0.00000000000E+00 -0.00000000000E+00 -0.33682785779E+04  0.33682785779E+04  0.00000000000E+00 0.  1.
         23    2    1    2    0    0 -0.25294451028E+04  0.43294109437E+03 -0.18598541743E+04  0.31707630674E+04  0.95657519316E+02 0.  0.
         13    1    3    3    0    0 -0.13311774284E+04  0.18504333767E+03 -0.10011803865E+04  0.16758987288E+04  0.00000000000E+00 0.  1.
        -13    1    3    3    0    0 -0.11982676744E+04  0.24789775670E+03 -0.85867378776E+03  0.14948643387E+04  0.00000000000E+00 0. -1.
         22    1    1    2    0    0  0.25294451028E+04 -0.43294109437E+03  0.10772066174E+04  0.27831465315E+04  0.00000000000E+00 0. -1.
<mgrwt>
<rscale>  0 0.59022455E+04</rscale>
<asrwt>0</asrwt>
<pdfrwt beam="1">  1        2 0.51819670E+00 0.59022455E+04</pdfrwt>
<pdfrwt beam="2">  1       -2 0.39778939E+00 0.59022455E+04</pdfrwt>
<totfact> 0.52127202E-03</totfact>
</mgrwt>
</event>
<event>
 6    1  0.5040916E-004  0.1190851E+04  0.7818608E-02  0.9120903E-01
         -2   -1    0    0    0  501 -0.00000000000E+00  0.00000000000E+00  0.92154419755E+03  0.92154419755E+03  0.00000000000E+00 0. -1.
          2   -1    0    0  501    0  0.00000000000E+00 -0.00000000000E+00 -0.38471460134E+03  0.38471460134E+03  0.00000000000E+00 0.  1.
         23    2    1    2    0    0 -0.18846968648E+03 -0.19784825885E+03 -0.30576622640E+03  0.42046397132E+03  0.92909685821E+02 0.  0.
         11    1    3    3    0    0 -0.14011278186E+03 -0.11459034646E+03 -0.14025431987E+03  0.22898430816E+03  0.00000000000E+00 0. -1.
        -11    1    3    3    0    0 -0.48356904623E+02 -0.83257912388E+02 -0.16551190653E+03  0.19147966316E+03  0.00000000000E+00 0.  1.
         22    1    1    2    0    0  0.18846968648E+03  0.19784825885E+03  0.84259582261E+03  0.88579482756E+03  0.00000000000E+00 0.  1.
<mgrwt>
<rscale>  0 0.11908510E+04</rscale>
<asrwt>0</asrwt>
<pdfrwt beam="1">  1        2 0.59186862E-01 0.11908510E+04</pdfrwt>
<pdfrwt beam="2">  1       -2 0.14177603E+00 0.11908510E+04</pdfrwt>
<totfact> 0.28486678E+01</totfact>
</mgrwt>
</event>
<event>
 6    1  0.5040916E-004  0.9514996E+03  0.7818608E-02  0.9363399E-01
         -2   -1    0    0    0  501 -0.00000000000E+00  0.00000000000E+00  0.25275872665E+03  0.25275872665E+03  0.00000000000E+00 0. -1.
          2   -1    0    0  501    0  0.00000000000E+00 -0.00000000000E+00 -0.89547009867E+03  0.89547009867E+03  0.00000000000E+00 0.  1.
         23    2    1    2    0    0 -0.19016708623E+02 -0.18175657829E+03  0.19984445301E+03  0.28608184989E+03  0.92238443590E+02 0.  0.
         11    1    3    3    0    0 -0.14823359636E+02  0.35732289925E+01  0.34341365493E+02  0.37574317562E+02  0.00000000000E+00 0.  1.
        -11    1    3    3    0    0 -0.41933489862E+01 -0.18532980729E+03  0.16550308752E+03  0.24850753233E+03  0.00000000000E+00 0. -1.
         22    1    1    2    0    0  0.19016708623E+02  0.18175657829E+03 -0.84255582503E+03  0.86214697543E+03  0.00000000000E+00 0.  1.
<mgrwt>
<rscale>  0 0.95149962E+03</rscale>
<asrwt>0</asrwt>
<pdfrwt beam="1">  1        2 0.13776463E+00 0.95149962E+03</pdfrwt>
<pdfrwt beam="2">  1       -2 0.38885958E-01 0.95149962E+03</pdfrwt>
<totfact> 0.18453101E+02</totfact>
</mgrwt>
</event>
<event>
 6    1  0.5040916E-004  0.1769075E+04  0.7818608E-02  0.8722920E-01
         -2   -1    0    0    0  501 -0.00000000000E+00  0.00000000000E+00  0.25211490828E+03  0.25211490828E+03  0.00000000000E+00 0. -1.
          2   -1    0    0  501    0  0.00000000000E+00 -0.00000000000E+00 -0.31033742060E+04  0.31033742060E+04  0.00000000000E+00 0.  1.
         23    2    1    2    0    0  0.26298009919E+03  0.64034228150E+03 -0.24665886440E+04  0.25635495447E+04  0.92357778628E+02 0.  0.
         13    1    3    3    0    0  0.13571151165E+03  0.31178862106E+03 -0.13792371939E+04  0.14205368688E+04  0.00000000000E+00 0. -1.
        -13    1    3    3    0    0  0.12726858753E+03  0.32855366044E+03 -0.10873514501E+04  0.11430126759E+04  0.00000000000E+00 0.  1.
         22    1    1    2    0    0 -0.26298009919E+03 -0.64034228150E+03 -0.38467065371E+03  0.79193956958E+03  0.00000000000E+00 0. -1.
<mgrwt>
<rscale>  0 0.17690754E+04</rscale>
<asrwt>0</asrwt>
<pdfrwt beam="1">  1        2 0.47744218E+00 0.17690754E+04</pdfrwt>
<pdfrwt beam="2">  1       -2 0.38786909E-01 0.17690754E+04</pdfrwt>
<totfact> 0.89455363E+00</totfact>
</mgrwt>
</event>
<event>
 6    1  0.5040916E-004  0.1829687E+04  0.7818608E-02  0.8690670E-01
         -1   -1    0    0    0  501 -0.00000000000E+00  0.00000000000E+00  0.29308071975E+03  0.29308071975E+03  0.00000000000E+00 0.  1.
          1   -1    0    0  501    0  0.00000000000E+00 -0.00000000000E+00 -0.28556581480E+04  0.28556581480E+04  0.00000000000E+00 0. -1.
         23    2    1    2    0    0 -0.13193932471E+03 -0.43478456557E+03 -0.26466233776E+04  0.26866681747E+04  0.84409562047E+02 0.  0.
         13    1    3    3    0    0 -0.11578345686E+03 -0.26700482896E+03 -0.18080346645E+04  0.18313073843E+04  0.00000000000E+00 0.  1.
        -13    1    3    3    0    0 -0.16155867846E+02 -0.16777973661E+03 -0.83858871303E+03  0.85536079038E+03  0.00000000000E+00 0. -1.
         22    1    1    2    0    0  0.13193932471E+03  0.43478456557E+03  0.84045949283E+02  0.46207069313E+03  0.00000000000E+00 0.  1.
<mgrwt>
<rscale>  0 0.18296867E+04</rscale>
<asrwt>0</asrwt>
<pdfrwt beam="1">  1        1 0.43933203E+00 0.18296867E+04</pdfrwt>
<pdfrwt beam="2">  1       -1 0.45089341E-01 0.18296867E+04</pdfrwt>
<totfact> 0.34997261E+00</totfact>
</mgrwt>
</event>
<event>
 6    1  0.5040916E-004  0.1274975E+04  0.7818608E-02  0.9049649E-01
         -2   -1    0    0    0  501 -0.00000000000E+00  0.00000000000E+00  0.38340452932E+03  0.38340452932E+03  0.00000000000E+00 0. -1.
          2   -1    0    0  501    0  0.00000000000E+00 -0.00000000000E+00 -0.10599516141E+04  0.10599516141E+04  0.00000000000E+00 0.  1.
         23    2    1    2    0    0 -0.31090624992E+03  0.54452667927E+03 -0.44763534289E+03  0.77584390662E+03  0.91566186773E+02 0.  0.
         11    1    3    3    0    0 -0.16475698887E+03  0.24752084616E+03 -0.16189845708E+03  0.33855951481E+03  0.00000000000E+00 0. -1.
        -11    1    3    3    0    0 -0.14614926105E+03  0.29700583310E+03 -0.28573688581E+03  0.43728439181E+03  0.00000000000E+00 0.  1.
         22    1    1    2    0    0  0.31090624992E+03 -0.54452667927E+03 -0.22891174185E+03  0.66751223676E+03  0.00000000000E+00 0.  1.
<mgrwt>
<rscale>  0 0.12749749E+04</rscale>
<asrwt>0</asrwt>
<pdfrwt beam="1">  1        2 0.16306948E+00 0.12749749E+04</pdfrwt>
<pdfrwt beam="2">  1       -2 0.58985314E-01 0.12749749E+04</pdfrwt>
<totfact> 0.60831453E+01</totfact>
</mgrwt>
</event>
<event>
 6    1  0.5040916E-004  0.3664520E+04  0.7818608E-02  0.8075870E-01
         -2   -1    0    0    0  501 -0.00000000000E+00  0.00000000000E+00  0.14184999464E+04  0.14184999464E+04  0.00000000000E+00 0. -1.
          2   -1    0    0  501    0  0.00000000000E+00 -0.00000000000E+00 -0.23667094569E+04  0.23667094569E+04  0.00000000000E+00 0.  1.
         23    2    1    2    0    0 -0.12783422764E+04 -0.12819790105E+04 -0.75797831984E+03  0.19648201414E+04  0.91421528618E+02 0.  0.
         13    1    3    3    0    0 -0.38420483561E+03 -0.43927429935E+03 -0.26505414787E+03  0.64095941141E+03  0.00000000000E+00 0.  1.
        -13    1    3    3    0    0 -0.89413744076E+03 -0.84270471116E+03 -0.49292417197E+03  0.13238607300E+04  0.00000000000E+00 0. -1.
         22    1    1    2    0    0  0.12783422764E+04  0.12819790105E+04 -0.19023119067E+03  0.18203892619E+04  0.00000000000E+00 0. -1.
<mgrwt>
<rscale>  0 0.36645203E+04</rscale>
<asrwt>0</asrwt>
<pdfrwt beam="1">  1        2 0.36410915E+00 0.36645203E+04</pdfrwt>
<pdfrwt beam="2">  1       -2 0.21823076E+00 0.36645203E+04</pdfrwt>
<totfact> 0.34156976E-01</totfact>
</mgrwt>
</event>
<event>
 6    1  0.5040916E-004  0.2461512E+04  0.7818608E-02  0.8416827E-01
          2   -1    0    0  501    0  0.00000000000E+00  0.00000000000E+00  0.68574468352E+03  0.68574468352E+03  0.00000000000E+00 0.  1.
         -2   -1    0    0    0  501 -0.00000000000E+00 -0.00000000000E+00 -0.22089283158E+04  0.22089283158E+04  0.00000000000E+00 0. -1.
         23    2    1    2    0    0  0.91358719109E+03 -0.81094138646E+03 -0.92201753486E+03  0.15331781721E+04  0.90837683203E+02 0.  0.
         11    1    3    3    0    0  0.75563981418E+03 -0.65973056023E+03 -0.79789085253E+03  0.12817432479E+04  0.00000000000E+00 0. -1.
        -11    1    3    3    0    0  0.15794737692E+03 -0.15121082623E+03 -0.12412668233E+03  0.25143492421E+03  0.00000000000E+00 0.  1.
         22    1    1    2    0    0 -0.91358719109E+03  0.81094138646E+03 -0.60116609744E+03  0.13614948273E+04  0.00000000000E+00 0. -1.
<mgrwt>
<rscale>  0 0.24615124E+04</rscale>
<asrwt>0</asrwt>
<pdfrwt beam="1">  1        2 0.10549918E+00 0.24615124E+04</pdfrwt>
<pdfrwt beam="2">  1       -2 0.33983512E+00 0.24615124E+04</pdfrwt>
<totfact> 0.67850519E-01</totfact>
</mgrwt>
</event>
<event>
 6    1  0.1500205E-003  0.4000055E+04  0.7818608E-02  0.8004536E-01
          2   -1    0    0  501    0  0.00000000000E+00  0.00000000000E+00  0.17077412413E+04  0.17077412413E+04  0.00000000000E+00 0.  1.
         -2   -1    0    0    0  501 -0.00000000000E+00 -0.00000000000E+00 -0.23423392528E+04  0.23423392528E+04  0.00000000000E+00 0. -1.
         23    2    1    2    0    0  0.10562241306E+04  0.15760464887E+03  0.13935258756E+04  0.17579777170E+04  0.90125735017E+02 0.  0.
         13    1    3    3    0    0  0.63918195778E+03  0.70105264947E+02  0.77777853260E+03  0.10091619142E+04  0.00000000000E+00 0. -1.
        -13    1    3    3    0    0  0.41704217278E+03  0.87499383922E+02  0.61574734299E+03  0.74881580276E+03  0.00000000000E+00 0.  1.
         22    1    1    2    0    0 -0.10562241306E+04 -0.15760464887E+03 -0.20281238871E+04  0.22921027771E+04  0.00000000000E+00 0. -1.
<mgrwt>
<rscale>  0 0.40000547E+04</rscale>
<asrwt>0</asrwt>
<pdfrwt beam="1">  1        2 0.26272942E+00 0.40000547E+04</pdfrwt>
<pdfrwt beam="2">  1       -2 0.36035988E+00 0.40000547E+04</pdfrwt>
<totfact> 0.10243514E-01</totfact>
</mgrwt>
</event>
<event>
 6    1  0.5040916E-004  0.3814414E+04  0.7818608E-02  0.8043069E-01
         -1   -1    0    0    0  501 -0.00000000000E+00  0.00000000000E+00  0.13241037007E+04  0.13241037007E+04  0.00000000000E+00 0. -1.
          1   -1    0    0  501    0  0.00000000000E+00 -0.00000000000E+00 -0.27470948249E+04  0.27470948249E+04  0.00000000000E+00 0.  1.
         23    2    1    2    0    0 -0.12121331733E+04 -0.90988530538E+03 -0.19456368124E+04  0.24679778252E+04  0.90850653382E+02 0.  0.
         11    1    3    3    0    0 -0.60635737783E+03 -0.41952339358E+03 -0.10033750793E+04  0.12451629199E+04  0.00000000000E+00 0. -1.
        -11    1    3    3    0    0 -0.60577579545E+03 -0.49036191180E+03 -0.94226173314E+03  0.12228149053E+04  0.00000000000E+00 0.  1.
         22    1    1    2    0    0  0.12121331733E+04  0.90988530538E+03  0.52264568816E+03  0.16032207004E+04  0.00000000000E+00 0. -1.
<mgrwt>
<rscale>  0 0.38144139E+04</rscale>
<asrwt>0</asrwt>
<pdfrwt beam="1">  1        1 0.42262997E+00 0.38144139E+04</pdfrwt>
<pdfrwt beam="2">  1       -1 0.20370826E+00 0.38144139E+04</pdfrwt>
<totfact> 0.10247613E-01</totfact>
</mgrwt>
</event>
<event>
 6    1  0.5040916E-004  0.3202826E+04  0.7818608E-02  0.8188071E-01
          2   -1    0    0  501    0  0.00000000000E+00  0.00000000000E+00  0.22979852092E+04  0.22979852092E+04  0.00000000000E+00 0.  1.
         -2   -1    0    0    0  501 -0.00000000000E+00 -0.00000000000E+00 -0.11159878698E+04  0.11159878698E+04  0.00000000000E+00 0. -1.
         23    2    1    2    0    0  0.87752369816E+03  0.13380440952E+04  0.59503829448E+03  0.17095873357E+04  0.90600468482E+02 0.  0.
         11    1    3    3    0    0  0.27600506075E+03  0.36787319180E+03  0.20193328339E+03  0.50228132530E+03  0.00000000000E+00 0. -1.
        -11    1    3    3    0    0  0.60151863741E+03  0.97017090341E+03  0.39310501109E+03  0.12073060104E+04  0.00000000000E+00 0.  1.
         22    1    1    2    0    0 -0.87752369816E+03 -0.13380440952E+04  0.58695904498E+03  0.17043857433E+04  0.00000000000E+00 0.  1.
<mgrwt>
<rscale>  0 0.32028260E+04</rscale>
<asrwt>0</asrwt>
<pdfrwt beam="1">  1        2 0.35353618E+00 0.32028260E+04</pdfrwt>
<pdfrwt beam="2">  1       -2 0.17169044E+00 0.32028260E+04</pdfrwt>
<totfact> 0.79333917E-01</totfact>
</mgrwt>
</event>
<event>
 6    1  0.5040916E-004  0.2524515E+04  0.7818608E-02  0.8394304E-01
          2   -1    0    0  501    0  0.00000000000E+00  0.00000000000E+00  0.39411892101E+04  0.39411892101E+04  0.00000000000E+00 0.  1.
         -2   -1    0    0    0  501 -0.00000000000E+00 -0.00000000000E+00 -0.40426736090E+03  0.40426736090E+03  0.00000000000E+00 0. -1.
         23    2    1    2    0    0 -0.89477853620E+03  0.42828836219E+03  0.31093971255E+04  0.32652543032E+04  0.97342849819E+02 0.  0.
         13    1    3    3    0    0 -0.22126852037E+03  0.68674862392E+02  0.64883381585E+03  0.68895668618E+03  0.00000000000E+00 0. -1.
        -13    1    3    3    0    0 -0.67351001583E+03  0.35961349980E+03  0.24605633097E+04  0.25762976170E+04  0.00000000000E+00 0.  1.
         22    1    1    2    0    0  0.89477853620E+03 -0.42828836219E+03  0.42752472372E+03  0.10802022678E+04  0.00000000000E+00 0. -1.
<mgrwt>
<rscale>  0 0.25245151E+04</rscale>
<asrwt>0</asrwt>
<pdfrwt beam="1">  1        2 0.60633677E+00 0.25245151E+04</pdfrwt>
<pdfrwt beam="2">  1       -2 0.62194981E-01 0.25245151E+04</pdfrwt>
<totfact> 0.81697076E-01</totfact>
</mgrwt>
</event>
<event>
 6    1  0.5040916E-004  0.1921169E+04  0.7818608E-02  0.8644391E-01
          2   -1    0    0  501    0  0.00000000000E+00  0.00000000000E+00  0.30327230583E+04  0.30327230583E+04  0.00000000000E+00 0.  1.
         -2   -1    0    0    0  501 -0.00000000000E+00 -0.00000000000E+00 -0.30425536104E+03  0.30425536104E+03  0.00000000000E+00 0. -1.
         23    2    1    2    0    0 -0.42492838611E+03 -0.66896454468E+01  0.28594816294E+04  0.28922610539E+04  0.89050158022E+02 0.  0.
         13    1    3    3    0    0 -0.19182755507E+03  0.64440227304E+01  0.15841607573E+04  0.15957457947E+04  0.00000000000E+00 0. -1.
        -13    1    3    3    0    0 -0.23310083104E+03 -0.13133668177E+02  0.12753208721E+04  0.12965152592E+04  0.00000000000E+00 0.  1.
         22    1    1    2    0    0  0.42492838611E+03  0.66896454468E+01 -0.13101393213E+03  0.44471736540E+03  0.00000000000E+00 0. -1.
<mgrwt>
<rscale>  0 0.19211687E+04</rscale>
<asrwt>0</asrwt>
<pdfrwt beam="1">  1        2 0.46657276E+00 0.19211687E+04</pdfrwt>
<pdfrwt beam="2">  1       -2 0.46808519E-01 0.19211687E+04</pdfrwt>
<totfact> 0.67380676E+00</totfact>
</mgrwt>
</event>
<event>
 6    1  0.5040916E-004  0.1885026E+04  0.7818608E-02  0.8662346E-01
         -2   -1    0    0    0  501 -0.00000000000E+00  0.00000000000E+00  0.82420849740E+03  0.82420849740E+03  0.00000000000E+00 0. -1.
          2   -1    0    0  501    0  0.00000000000E+00 -0.00000000000E+00 -0.10777986968E+04  0.10777986968E+04  0.00000000000E+00 0.  1.
         23    2    1    2    0    0  0.10402621133E+02  0.83899708039E+03  0.30392184971E+03  0.89461253453E+03  0.62759706580E+02 0.  0.
         13    1    3    3    0    0  0.15249259940E+02  0.33143451339E+03  0.89885611528E+02  0.34374525415E+03  0.00000000000E+00 0. -1.
        -13    1    3    3    0    0 -0.48466388067E+01  0.50756256701E+03  0.21403623818E+03  0.55086728038E+03  0.00000000000E+00 0.  1.
         22    1    1    2    0    0 -0.10402621133E+02 -0.83899708039E+03 -0.55751204913E+03  0.10073946597E+04  0.00000000000E+00 0.  1.
<mgrwt>
<rscale>  0 0.18850261E+04</rscale>
<asrwt>0</asrwt>
<pdfrwt beam="1">  1        2 0.16581518E+00 0.18850261E+04</pdfrwt>
<pdfrwt beam="2">  1       -2 0.12680131E+00 0.18850261E+04</pdfrwt>
<totfact> 0.97540915E+00</totfact>
</mgrwt>
</event>
<event>
 6    1  0.5040916E-004  0.2180380E+04  0.7818608E-02  0.8526639E-01
          2   -1    0    0  501    0  0.00000000000E+00  0.00000000000E+00  0.92603492130E+03  0.92603492130E+03  0.00000000000E+00 0.  1.
         -2   -1    0    0    0  501 -0.00000000000E+00 -0.00000000000E+00 -0.12834439737E+04  0.12834439737E+04  0.00000000000E+00 0. -1.
         23    2    1    2    0    0  0.46653046257E+03 -0.87354297945E+03 -0.63606247105E+03  0.11807049950E+04  0.93599191916E+02 0.  0.
         13    1    3    3    0    0  0.18032803115E+03 -0.33751924314E+03 -0.19231267382E+03  0.42827748344E+03  0.00000000000E+00 0. -1.
        -13    1    3    3    0    0  0.28620243142E+03 -0.53602373631E+03 -0.44374979723E+03  0.75242751158E+03  0.00000000000E+00 0.  1.
         22    1    1    2    0    0 -0.46653046257E+03  0.87354297945E+03  0.27865341870E+03  0.10287738999E+04  0.00000000000E+00 0.  1.
<mgrwt>
<rscale>  0 0.21803797E+04</rscale>
<asrwt>0</asrwt>
<pdfrwt beam="1">  1        2 0.14246691E+00 0.21803797E+04</pdfrwt>
<pdfrwt beam="2">  1       -2 0.19745292E+00 0.21803797E+04</pdfrwt>
<totfact> 0.35631839E+00</totfact>
</mgrwt>
</event>
<event>
 6    1  0.5040916E-004  0.2695961E+04  0.7818608E-02  0.8336317E-01
         -2   -1    0    0    0  501 -0.00000000000E+00  0.00000000000E+00  0.75129200503E+03  0.75129200503E+03  0.00000000000E+00 0. -1.
          2   -1    0    0  501    0  0.00000000000E+00 -0.00000000000E+00 -0.24185692132E+04  0.24185692132E+04  0.00000000000E+00 0.  1.
         23    2    1    2    0    0 -0.10452835556E+04 -0.19730471918E+03 -0.18053873487E+04  0.20971910571E+04  0.85088115053E+02 0.  0.
         13    1    3    3    0    0 -0.14693146101E+03  0.54786194203E+00 -0.23119998628E+03  0.27393902249E+03  0.00000000000E+00 0.  1.
        -13    1    3    3    0    0 -0.89835209460E+03 -0.19785258112E+03 -0.15741873624E+04  0.18232520346E+04  0.00000000000E+00 0. -1.
         22    1    1    2    0    0  0.10452835556E+04  0.19730471918E+03  0.13811014045E+03  0.10726701612E+04  0.00000000000E+00 0. -1.
<mgrwt>
<rscale>  0 0.26959612E+04</rscale>
<asrwt>0</asrwt>
<pdfrwt beam="1">  1        2 0.37208757E+00 0.26959612E+04</pdfrwt>
<pdfrwt beam="2">  1       -2 0.11558339E+00 0.26959612E+04</pdfrwt>
<totfact> 0.19822326E+00</totfact>
</mgrwt>
</event>
<event>
 6    1  0.5040916E-004  0.3928458E+04  0.7818608E-02  0.8019136E-01
          2   -1    0    0  501    0  0.00000000000E+00  0.00000000000E+00  0.28718070661E+04  0.28718070661E+04  0.00000000000E+00 0.  1.
         -2   -1    0    0    0  501 -0.00000000000E+00 -0.00000000000E+00 -0.13434733870E+04  0.13434733870E+04  0.00000000000E+00 0. -1.
         23    2    1    2    0    0 -0.12869747139E+04  0.11351457840E+04 -0.25864370578E+03  0.17377518379E+04  0.89582467644E+02 0.  0.
         13    1    3    3    0    0 -0.10097341564E+04  0.86207902492E+03 -0.16873123280E+03  0.13383622606E+04  0.00000000000E+00 0. -1.
        -13    1    3    3    0    0 -0.27724055753E+03  0.27306675909E+03 -0.89912472980E+02  0.39938957730E+03  0.00000000000E+00 0.  1.
         22    1    1    2    0    0  0.12869747139E+04 -0.11351457840E+04  0.17869773849E+04  0.24775286152E+04  0.00000000000E+00 0.  1.
<mgrwt>
<rscale>  0 0.39284584E+04</rscale>
<asrwt>0</asrwt>
<pdfrwt beam="1">  1        2 0.44181647E+00 0.39284584E+04</pdfrwt>
<pdfrwt beam="2">  1       -2 0.20668821E+00 0.39284584E+04</pdfrwt>
<totfact> 0.19947164E-01</totfact>
</mgrwt>
</event>
<event>
 6    1  0.5040916E-004  0.2854851E+04  0.7818608E-02  0.8286439E-01
         -2   -1    0    0    0  501 -0.00000000000E+00  0.00000000000E+00  0.56035602092E+03  0.56035602092E+03  0.00000000000E+00 0. -1.
          2   -1    0    0  501    0  0.00000000000E+00 -0.00000000000E+00 -0.36361595957E+04  0.36361595957E+04  0.00000000000E+00 0.  1.
         23    2    1    2    0    0 -0.92171839862E+00 -0.10786995056E+04 -0.16854407061E+03  0.10955881267E+04  0.91174376106E+02 0.  0.
         11    1    3    3    0    0  0.26090535819E+02 -0.20461659879E+03 -0.56992219185E+02  0.21400182618E+03  0.00000000000E+00 0. -1.
        -11    1    3    3    0    0 -0.27012254217E+02 -0.87408290677E+03 -0.11155185143E+03  0.88158630056E+03  0.00000000000E+00 0.  1.
         22    1    1    2    0    0  0.92171839862E+00  0.10786995056E+04 -0.29072595042E+04  0.31009274899E+04  0.00000000000E+00 0.  1.
<mgrwt>
<rscale>  0 0.28548513E+04</rscale>
<asrwt>0</asrwt>
<pdfrwt beam="1">  1        2 0.55940917E+00 0.28548513E+04</pdfrwt>
<pdfrwt beam="2">  1       -2 0.86208619E-01 0.28548513E+04</pdfrwt>
<totfact> 0.65685432E-01</totfact>
</mgrwt>
</event>
<event>
 6    1  0.5040916E-004  0.1557843E+04  0.7818608E-02  0.8846873E-01
         -2   -1    0    0    0  501 -0.00000000000E+00  0.00000000000E+00  0.13754079171E+04  0.13754079171E+04  0.00000000000E+00 0. -1.
          2   -1    0    0  501    0  0.00000000000E+00 -0.00000000000E+00 -0.44111922608E+03  0.44111922608E+03  0.00000000000E+00 0.  1.
         23    2    1    2    0    0  0.40192316274E+03  0.29400306912E+03  0.11631170422E+04  0.12684920644E+04  0.90834080090E+02 0.  0.
         13    1    3    3    0    0  0.20318041450E+03  0.19845894252E+03  0.60344182502E+03  0.66694097857E+03  0.00000000000E+00 0. -1.
        -13    1    3    3    0    0  0.19874274824E+03  0.95544126593E+02  0.55967521717E+03  0.60155108579E+03  0.00000000000E+00 0.  1.
         22    1    1    2    0    0 -0.40192316274E+03 -0.29400306912E+03 -0.22882835112E+03  0.54803507887E+03  0.00000000000E+00 0.  1.
<mgrwt>
<rscale>  0 0.15578432E+04</rscale>
<asrwt>0</asrwt>
<pdfrwt beam="1">  1        2 0.67864497E-01 0.15578432E+04</pdfrwt>
<pdfrwt beam="2">  1       -2 0.21160122E+00 0.15578432E+04</pdfrwt>
<totfact> 0.76477851E+00</totfact>
</mgrwt>
</event>
<event>
 6    1  0.5040916E-004  0.1620296E+04  0.7818608E-02  0.8808176E-01
          1   -1    0    0  501    0  0.00000000000E+00  0.00000000000E+00  0.16043194741E+04  0.16043194741E+04  0.00000000000E+00 0. -1.
         -1   -1    0    0    0  501 -0.00000000000E+00 -0.00000000000E+00 -0.40910769757E+03  0.40910769757E+03  0.00000000000E+00 0.  1.
         23    2    1    2    0    0 -0.39056934768E+03  0.36231086799E+03 -0.15640415583E+03  0.56060949246E+03  0.77505887933E+02 0.  0.
         11    1    3    3    0    0 -0.21666770517E+03  0.18516299026E+03 -0.45088045771E+02  0.28855356400E+03  0.00000000000E+00 0.  1.
        -11    1    3    3    0    0 -0.17390164252E+03  0.17714787772E+03 -0.11131611006E+03  0.27205592846E+03  0.00000000000E+00 0. -1.
         22    1    1    2    0    0  0.39056934768E+03 -0.36231086799E+03  0.13516159324E+04  0.14528176792E+04  0.00000000000E+00 0. -1.
<mgrwt>
<rscale>  0 0.16202956E+04</rscale>
<asrwt>0</asrwt>
<pdfrwt beam="1">  1        1 0.24681838E+00 0.16202956E+04</pdfrwt>
<pdfrwt beam="2">  1       -1 0.62939647E-01 0.16202956E+04</pdfrwt>
<totfact> 0.13592473E+01</totfact>
</mgrwt>
</event>
<event>
 6    1  0.5040916E-004  0.2398355E+04  0.7818608E-02  0.8440120E-01
          2   -1    0    0  501    0  0.00000000000E+00  0.00000000000E+00  0.39562235003E+04  0.39562235003E+04  0.00000000000E+00 0.  1.
         -2   -1    0    0    0  501 -0.00000000000E+00 -0.00000000000E+00 -0.36348478291E+03  0.36348478291E+03  0.00000000000E+00 0. -1.
         23    2    1    2    0    0 -0.79855584744E+03  0.50034606618E+03  0.46811724651E+03  0.10560758033E+04  0.90137220240E+02 0.  0.
         13    1    3    3    0    0 -0.70183819916E+03  0.45814804376E+03  0.38803167317E+03  0.92360438890E+03  0.00000000000E+00 0. -1.
        -13    1    3    3    0    0 -0.96717648278E+02  0.42198022418E+02  0.80085573337E+02  0.13247141443E+03  0.00000000000E+00 0.  1.
         22    1    1    2    0    0  0.79855584744E+03 -0.50034606618E+03  0.31246214708E+04  0.32636324798E+04  0.00000000000E+00 0.  1.
<mgrwt>
<rscale>  0 0.23983553E+04</rscale>
<asrwt>0</asrwt>
<pdfrwt beam="1">  1        2 0.60864974E+00 0.23983553E+04</pdfrwt>
<pdfrwt beam="2">  1       -2 0.55920739E-01 0.23983553E+04</pdfrwt>
<totfact> 0.10064673E+00</totfact>
</mgrwt>
</event>
<event>
 6    1  0.5040916E-004  0.1019779E+04  0.7818608E-02  0.9287113E-01
          2   -1    0    0  501    0  0.00000000000E+00  0.00000000000E+00  0.68020815434E+03  0.68020815434E+03  0.00000000000E+00 0.  1.
         -2   -1    0    0    0  501 -0.00000000000E+00 -0.00000000000E+00 -0.38221755358E+03  0.38221755358E+03  0.00000000000E+00 0. -1.
         23    2    1    2    0    0 -0.52843100453E+02 -0.22914176403E+03 -0.31556089953E+03  0.40535357733E+03  0.97131354612E+02 0.  0.
         13    1    3    3    0    0 -0.57640092903E+02 -0.13337749431E+03 -0.25013658037E+03  0.28927537941E+03  0.00000000000E+00 0.  1.
        -13    1    3    3    0    0  0.47969924508E+01 -0.95764269724E+02 -0.65424319165E+02  0.11607819791E+03  0.00000000000E+00 0. -1.
         22    1    1    2    0    0  0.52843100453E+02  0.22914176403E+03  0.61355150029E+03  0.65707213059E+03  0.00000000000E+00 0.  1.
<mgrwt>
<rscale>  0 0.10197794E+04</rscale>
<asrwt>0</asrwt>
<pdfrwt beam="1">  1        2 0.10464741E+00 0.10197794E+04</pdfrwt>
<pdfrwt beam="2">  1       -2 0.58802701E-01 0.10197794E+04</pdfrwt>
<totfact> 0.11457102E+02</totfact>
</mgrwt>
</event>
<event>
 6    1  0.5040916E-004  0.4278624E+04  0.7818608E-02  0.7950583E-01
          2   -1    0    0  501    0  0.00000000000E+00  0.00000000000E+00  0.23327148082E+04  0.23327148082E+04  0.00000000000E+00 0.  1.
         -2   -1    0    0    0  501 -0.00000000000E+00 -0.00000000000E+00 -0.19619441604E+04  0.19619441604E+04  0.00000000000E+00 0. -1.
         23    2    1    2    0    0  0.11393730587E+04 -0.52898567935E+03  0.19224256351E+04  0.22982546971E+04  0.90870868775E+02 0.  0.
         13    1    3    3    0    0  0.40762110724E+03 -0.21415631369E+03  0.77359854684E+03  0.90026252029E+03  0.00000000000E+00 0. -1.
        -13    1    3    3    0    0  0.73175195143E+03 -0.31482936566E+03  0.11488270882E+04  0.13979921769E+04  0.00000000000E+00 0.  1.
         22    1    1    2    0    0 -0.11393730587E+04  0.52898567935E+03 -0.15516549873E+04  0.19964042715E+04  0.00000000000E+00 0. -1.
<mgrwt>
<rscale>  0 0.42786242E+04</rscale>
<asrwt>0</asrwt>
<pdfrwt beam="1">  1        2 0.35887920E+00 0.42786242E+04</pdfrwt>
<pdfrwt beam="2">  1       -2 0.30183756E+00 0.42786242E+04</pdfrwt>
<totfact> 0.10376799E-01</totfact>
</mgrwt>
</event>
<event>
 6    1  0.5040916E-004  0.3468961E+04  0.7818608E-02  0.8121185E-01
         -2   -1    0    0    0  501 -0.00000000000E+00  0.00000000000E+00  0.77453001225E+03  0.77453001225E+03  0.00000000000E+00 0. -1.
          2   -1    0    0  501    0  0.00000000000E+00 -0.00000000000E+00 -0.38841905406E+04  0.38841905406E+04  0.00000000000E+00 0.  1.
         23    2    1    2    0    0  0.13759739031E+04 -0.32275610262E+03 -0.20843489196E+03  0.14315568017E+04  0.91837293504E+02 0.  0.
         13    1    3    3    0    0  0.11544073134E+04 -0.24873849666E+03 -0.20063483802E+03  0.11978236194E+04  0.00000000000E+00 0.  1.
        -13    1    3    3    0    0  0.22156658970E+03 -0.74017605958E+02 -0.78000539458E+01  0.23373318229E+03  0.00000000000E+00 0. -1.
         22    1    1    2    0    0 -0.13759739031E+04  0.32275610262E+03 -0.29012256364E+04  0.32271637512E+04  0.00000000000E+00 0.  1.
<mgrwt>
<rscale>  0 0.34689607E+04</rscale>
<asrwt>0</asrwt>
<pdfrwt beam="1">  1        2 0.59756777E+00 0.34689607E+04</pdfrwt>
<pdfrwt beam="2">  1       -2 0.11915846E+00 0.34689607E+04</pdfrwt>
<totfact> 0.18784214E-01</totfact>
</mgrwt>
</event>
<event>
 6    1  0.5040916E-004  0.2865070E+04  0.7818608E-02  0.8283347E-01
          2   -1    0    0  501    0  0.00000000000E+00  0.00000000000E+00  0.26107881365E+04  0.26107881365E+04  0.00000000000E+00 0.  1.
         -2   -1    0    0    0  501 -0.00000000000E+00 -0.00000000000E+00 -0.78602933203E+03  0.78602933203E+03  0.00000000000E+00 0. -1.
         23    2    1    2    0    0  0.14097323993E+04 -0.14441652890E+03  0.67670463272E+03  0.15730219886E+04  0.90925492384E+02 0.  0.
         13    1    3    3    0    0  0.77645228941E+03 -0.95948041008E+02  0.32665667212E+03  0.84781411037E+03  0.00000000000E+00 0.  1.
        -13    1    3    3    0    0  0.63328010988E+03 -0.48468487891E+02  0.35004796060E+03  0.72520787821E+03  0.00000000000E+00 0. -1.
         22    1    1    2    0    0 -0.14097323993E+04  0.14441652890E+03  0.11480541718E+04  0.18237954800E+04  0.00000000000E+00 0. -1.
<mgrwt>
<rscale>  0 0.28650697E+04</rscale>
<asrwt>0</asrwt>
<pdfrwt beam="1">  1        2 0.40165971E+00 0.28650697E+04</pdfrwt>
<pdfrwt beam="2">  1       -2 0.12092759E+00 0.28650697E+04</pdfrwt>
<totfact> 0.13518124E+00</totfact>
</mgrwt>
</event>
<event>
 6    1  0.5040916E-004  0.1439034E+04  0.7818608E-02  0.8926039E-01
         -2   -1    0    0    0  501 -0.00000000000E+00  0.00000000000E+00  0.11025193347E+04  0.11025193347E+04  0.00000000000E+00 0. -1.
          2   -1    0    0  501    0  0.00000000000E+00 -0.00000000000E+00 -0.46956515873E+03  0.46956515873E+03  0.00000000000E+00 0.  1.
         23    2    1    2    0    0  0.21821830585E+03 -0.66108929621E+03  0.12997405586E+03  0.71322054158E+03  0.84451164416E+02 0.  0.
         11    1    3    3    0    0  0.83104708047E+02 -0.23774963392E+03  0.62223812779E+01  0.25193252858E+03  0.00000000000E+00 0. -1.
        -11    1    3    3    0    0  0.13511359780E+03 -0.42333966228E+03  0.12375167458E+03  0.46128801300E+03  0.00000000000E+00 0.  1.
         22    1    1    2    0    0 -0.21821830585E+03  0.66108929621E+03  0.50298012013E+03  0.85886395186E+03  0.00000000000E+00 0. -1.
<mgrwt>
<rscale>  0 0.14390339E+04</rscale>
<asrwt>0</asrwt>
<pdfrwt beam="1">  1        2 0.72240794E-01 0.14390339E+04</pdfrwt>
<pdfrwt beam="2">  1       -2 0.16961836E+00 0.14390339E+04</pdfrwt>
<totfact> 0.13770570E+01</totfact>
</mgrwt>
</event>
<event>
 6    1  0.5040916E-004  0.1339095E+04  0.7818608E-02  0.8999125E-01
          2   -1    0    0  501    0  0.00000000000E+00  0.00000000000E+00  0.68725487506E+03  0.68725487506E+03  0.00000000000E+00 0.  1.
         -2   -1    0    0    0  501 -0.00000000000E+00 -0.00000000000E+00 -0.65229588238E+03  0.65229588238E+03  0.00000000000E+00 0. -1.
         23    2    1    2    0    0 -0.26958372490E+03  0.40840720013E+03  0.46995654142E+03  0.68480294854E+03  0.92866041413E+02 0.  0.
         11    1    3    3    0    0 -0.10831069345E+03  0.22864173764E+03  0.19934327714E+03  0.32209624749E+03  0.00000000000E+00 0. -1.
        -11    1    3    3    0    0 -0.16127303146E+03  0.17976546249E+03  0.27061326428E+03  0.36270670105E+03  0.00000000000E+00 0.  1.
         22    1    1    2    0    0  0.26958372490E+03 -0.40840720013E+03 -0.43499754875E+03  0.65474780891E+03  0.00000000000E+00 0. -1.
<mgrwt>
<rscale>  0 0.13390945E+04</rscale>
<asrwt>0</asrwt>
<pdfrwt beam="1">  1        2 0.10573152E+00 0.13390945E+04</pdfrwt>
<pdfrwt beam="2">  1       -2 0.10035321E+00 0.13390945E+04</pdfrwt>
<totfact> 0.33586608E+01</totfact>
</mgrwt>
</event>
<event>
 6    1  0.5040916E-004  0.2391555E+04  0.7818608E-02  0.8442672E-01
         -2   -1    0    0    0  501 -0.00000000000E+00  0.00000000000E+00  0.51180021739E+03  0.51180021739E+03  0.00000000000E+00 0. -1.
          2   -1    0    0  501    0  0.00000000000E+00 -0.00000000000E+00 -0.27938316629E+04  0.27938316629E+04  0.00000000000E+00 0.  1.
         23    2    1    2    0    0  0.36250782110E+03 -0.98631070306E+03 -0.35878663520E+03  0.11140362689E+04  0.90156727874E+02 0.  0.
         13    1    3    3    0    0  0.97770701522E+02 -0.38747417964E+03 -0.12278983058E+03  0.41805824051E+03  0.00000000000E+00 0. -1.
        -13    1    3    3    0    0  0.26473711958E+03 -0.59883652342E+03 -0.23599680462E+03  0.69597802843E+03  0.00000000000E+00 0.  1.
         22    1    1    2    0    0 -0.36250782110E+03  0.98631070306E+03 -0.19232448103E+04  0.21915956113E+04  0.00000000000E+00 0.  1.
<mgrwt>
<rscale>  0 0.23915549E+04</rscale>
<asrwt>0</asrwt>
<pdfrwt beam="1">  1        2 0.42982025E+00 0.23915549E+04</pdfrwt>
<pdfrwt beam="2">  1       -2 0.78738496E-01 0.23915549E+04</pdfrwt>
<totfact> 0.30071055E+00</totfact>
</mgrwt>
</event>
<event>
 6    1  0.5040916E-004  0.1927376E+04  0.7818608E-02  0.8641348E-01
          2   -1    0    0  501    0  0.00000000000E+00  0.00000000000E+00  0.29334269447E+04  0.29334269447E+04  0.00000000000E+00 0.  1.
         -2   -1    0    0    0  501 -0.00000000000E+00 -0.00000000000E+00 -0.31659023841E+03  0.31659023841E+03  0.00000000000E+00 0. -1.
         23    2    1    2    0    0  0.40929583403E+03 -0.28133219864E+03 -0.76411589184E+02  0.51135742571E+03  0.94745976785E+02 0.  0.
         11    1    3    3    0    0  0.30337324558E+03 -0.24232340005E+03 -0.30395695712E+02  0.38946097964E+03  0.00000000000E+00 0. -1.
        -11    1    3    3    0    0  0.10592258846E+03 -0.39008798597E+02 -0.46015893472E+02  0.12189644607E+03  0.00000000000E+00 0.  1.
         22    1    1    2    0    0 -0.40929583403E+03  0.28133219864E+03  0.26932482954E+04  0.27386597574E+04  0.00000000000E+00 0.  1.
<mgrwt>
<rscale>  0 0.19273758E+04</rscale>
<asrwt>0</asrwt>
<pdfrwt beam="1">  1        2 0.45129644E+00 0.19273758E+04</pdfrwt>
<pdfrwt beam="2">  1       -2 0.48706192E-01 0.19273758E+04</pdfrwt>
<totfact> 0.71647778E+00</totfact>
</mgrwt>
</event>
<event>
 6    1  0.5040916E-004  0.4898714E+04  0.7818608E-02  0.7844324E-01
          2   -1    0    0  501    0  0.00000000000E+00  0.00000000000E+00  0.30883522703E+04  0.30883522703E+04  0.00000000000E+00 0.  1.
         -2   -1    0    0    0  501 -0.00000000000E+00 -0.00000000000E+00 -0.19425733177E+04  0.19425733177E+04  0.00000000000E+00 0. -1.
         23    2    1    2    0    0  0.23966983249E+04  0.49036023011E+03  0.67917605257E+03  0.25404769774E+04  0.90150687069E+02 0.  0.
         11    1    3    3    0    0  0.17797608578E+04  0.39923139670E+03  0.52578111058E+03  0.18982571468E+04  0.00000000000E+00 0. -1.
        -11    1    3    3    0    0  0.61693746706E+03  0.91128833414E+02  0.15339494199E+03  0.64221983057E+03  0.00000000000E+00 0.  1.
         22    1    1    2    0    0 -0.23966983249E+04 -0.49036023011E+03  0.46660289999E+03  0.24904486106E+04  0.00000000000E+00 0. -1.
<mgrwt>
<rscale>  0 0.48987144E+04</rscale>
<asrwt>0</asrwt>
<pdfrwt beam="1">  1        2 0.47513112E+00 0.48987144E+04</pdfrwt>
<pdfrwt beam="2">  1       -2 0.29885743E+00 0.48987144E+04</pdfrwt>
<totfact> 0.36263518E-02</totfact>
</mgrwt>
</event>
<event>
 6    1  0.5040916E-004  0.1892196E+04  0.7818608E-02  0.8658751E-01
         -2   -1    0    0    0  501 -0.00000000000E+00  0.00000000000E+00  0.29728899357E+03  0.29728899357E+03  0.00000000000E+00 0. -1.
          2   -1    0    0  501    0  0.00000000000E+00 -0.00000000000E+00 -0.30108804234E+04  0.30108804234E+04  0.00000000000E+00 0.  1.
         23    2    1    2    0    0 -0.75795761361E+03 -0.25360417695E+03 -0.22379082364E+04  0.23780676359E+04  0.90319344084E+02 0.  0.
         11    1    3    3    0    0 -0.72958730495E+02 -0.35645777281E+02 -0.31155907813E+03  0.32196685692E+03  0.00000000000E+00 0. -1.
        -11    1    3    3    0    0 -0.68499888312E+03 -0.21795839967E+03 -0.19263491582E+04  0.20561007790E+04  0.00000000000E+00 0.  1.
         22    1    1    2    0    0  0.75795761361E+03  0.25360417695E+03 -0.47568319345E+03  0.93010178106E+03  0.00000000000E+00 0. -1.
<mgrwt>
<rscale>  0 0.18921962E+04</rscale>
<asrwt>0</asrwt>
<pdfrwt beam="1">  1        2 0.46321233E+00 0.18921962E+04</pdfrwt>
<pdfrwt beam="2">  1       -2 0.45736773E-01 0.18921962E+04</pdfrwt>
<totfact> 0.73044708E+00</totfact>
</mgrwt>
</event>
<event>
 6    1  0.5040916E-004  0.1881992E+04  0.7818608E-02  0.8663872E-01
          2   -1    0    0  501    0  0.00000000000E+00  0.00000000000E+00  0.27154548447E+04  0.27154548447E+04  0.00000000000E+00 0. -1.
         -2   -1    0    0    0  501 -0.00000000000E+00 -0.00000000000E+00 -0.32608663882E+03  0.32608663882E+03  0.00000000000E+00 0.  1.
         23    2    1    2    0    0 -0.11517661074E+03 -0.56149355597E+03 -0.39494489826E+01  0.58054370575E+03  0.92058302641E+02 0.  0.
         11    1    3    3    0    0 -0.12975920777E+03 -0.46030520964E+03 -0.61991226059E+01  0.47828523617E+03  0.00000000000E+00 0.  1.
        -11    1    3    3    0    0  0.14582597026E+02 -0.10118834633E+03  0.22496736234E+01  0.10225846958E+03  0.00000000000E+00 0. -1.
         22    1    1    2    0    0  0.11517661074E+03  0.56149355597E+03  0.23933176549E+04  0.24609977778E+04  0.00000000000E+00 0. -1.
<mgrwt>
<rscale>  0 0.18819921E+04</rscale>
<asrwt>0</asrwt>
<pdfrwt beam="1">  1        2 0.41776227E+00 0.18819921E+04</pdfrwt>
<pdfrwt beam="2">  1       -2 0.50167177E-01 0.18819921E+04</pdfrwt>
<totfact> 0.91799963E+00</totfact>
</mgrwt>
</event>
<event>
 6    1  0.5040916E-004  0.4061469E+04  0.7818608E-02  0.7992260E-01
         -2   -1    0    0    0  501 -0.00000000000E+00  0.00000000000E+00  0.18072720708E+04  0.18072720708E+04  0.00000000000E+00 0. -1.
          2   -1    0    0  501    0  0.00000000000E+00 -0.00000000000E+00 -0.22818267519E+04  0.22818267519E+04  0.00000000000E+00 0.  1.
         23    2    1    2    0    0 -0.44810911503E+03  0.19689695826E+04 -0.31022501513E+02  0.20216453673E+04  0.91894502194E+02 0.  0.
         13    1    3    3    0    0 -0.26476991835E+03  0.13505867809E+04 -0.31543098470E+02  0.13766563585E+04  0.00000000000E+00 0.  1.
        -13    1    3    3    0    0 -0.18333919668E+03  0.61838280165E+03  0.52059695723E+00  0.64498900878E+03  0.00000000000E+00 0. -1.
         22    1    1    2    0    0  0.44810911503E+03 -0.19689695826E+04 -0.44353217957E+03  0.20674534554E+04  0.00000000000E+00 0.  1.
<mgrwt>
<rscale>  0 0.40614686E+04</rscale>
<asrwt>0</asrwt>
<pdfrwt beam="1">  1        2 0.35105027E+00 0.40614686E+04</pdfrwt>
<pdfrwt beam="2">  1       -2 0.27804186E+00 0.40614686E+04</pdfrwt>
<totfact> 0.15775975E-01</totfact>
</mgrwt>
</event>
<event>
 6    1  0.5040916E-004  0.1273717E+04  0.7818608E-02  0.9050672E-01
         -2   -1    0    0    0  501 -0.00000000000E+00  0.00000000000E+00  0.10202121819E+04  0.10202121819E+04  0.00000000000E+00 0.  1.
          2   -1    0    0  501    0  0.00000000000E+00 -0.00000000000E+00 -0.39755315148E+03  0.39755315148E+03  0.00000000000E+00 0. -1.
         23    2    1    2    0    0 -0.27352450056E+03  0.35420841345E+03  0.81197413144E+03  0.93184408463E+03  0.93552954853E+02 0.  0.
         11    1    3    3    0    0 -0.13732737784E+03  0.10380924475E+03  0.30841857407E+03  0.35320983116E+03  0.00000000000E+00 0. -1.
        -11    1    3    3    0    0 -0.13619712273E+03  0.25039916870E+03  0.50355555737E+03  0.57863425346E+03  0.00000000000E+00 0.  1.
         22    1    1    2    0    0  0.27352450056E+03 -0.35420841345E+03 -0.18931510098E+03  0.48592124879E+03  0.00000000000E+00 0. -1.
<mgrwt>
<rscale>  0 0.12737167E+04</rscale>
<asrwt>0</asrwt>
<pdfrwt beam="1">  1        2 0.61162024E-01 0.12737167E+04</pdfrwt>
<pdfrwt beam="2">  1       -2 0.15695572E+00 0.12737167E+04</pdfrwt>
<totfact> 0.20842598E+01</totfact>
</mgrwt>
</event>
<event>
 6    1  0.5040916E-004  0.1572445E+04  0.7818608E-02  0.8837657E-01
         -2   -1    0    0    0  501 -0.00000000000E+00  0.00000000000E+00  0.35372578507E+03  0.35372578507E+03  0.00000000000E+00 0. -1.
          2   -1    0    0  501    0  0.00000000000E+00 -0.00000000000E+00 -0.17475279499E+04  0.17475279499E+04  0.00000000000E+00 0.  1.
         23    2    1    2    0    0 -0.22654492947E+03  0.14007106875E+03 -0.16840350093E+04  0.17073278367E+04  0.89732491358E+02 0.  0.
         11    1    3    3    0    0 -0.14021365822E+03  0.36757026200E+02 -0.95995012413E+03  0.97083221503E+03  0.00000000000E+00 0.  1.
        -11    1    3    3    0    0 -0.86331271248E+02  0.10331404255E+03 -0.72408488519E+03  0.73649562167E+03  0.00000000000E+00 0. -1.
         22    1    1    2    0    0  0.22654492947E+03 -0.14007106875E+03  0.29023284444E+03  0.39392589831E+03  0.00000000000E+00 0. -1.
<mgrwt>
<rscale>  0 0.15724448E+04</rscale>
<asrwt>0</asrwt>
<pdfrwt beam="1">  1        2 0.26885045E+00 0.15724448E+04</pdfrwt>
<pdfrwt beam="2">  1       -2 0.54419352E-01 0.15724448E+04</pdfrwt>
<totfact> 0.28180929E+01</totfact>
</mgrwt>
</event>
<event>
 6    1  0.5040916E-004  0.2944125E+04  0.7818608E-02  0.8259869E-01
         -2   -1    0    0    0  501 -0.00000000000E+00  0.00000000000E+00  0.18920366745E+04  0.18920366745E+04  0.00000000000E+00 0. -1.
          2   -1    0    0  501    0  0.00000000000E+00 -0.00000000000E+00 -0.11453101066E+04  0.11453101066E+04  0.00000000000E+00 0.  1.
         23    2    1    2    0    0 -0.16667786330E+03 -0.12140889378E+04 -0.46511499011E+03  0.13138754525E+04  0.90240188280E+02 0.  0.
         11    1    3    3    0    0 -0.42266905310E+02 -0.40093589378E+03 -0.19664570271E+03  0.44855948836E+03  0.00000000000E+00 0. -1.
        -11    1    3    3    0    0 -0.12441095799E+03 -0.81315304402E+03 -0.26846928740E+03  0.86531596411E+03  0.00000000000E+00 0.  1.
         22    1    1    2    0    0  0.16667786330E+03  0.12140889378E+04  0.12118415580E+04  0.17234713286E+04  0.00000000000E+00 0. -1.
<mgrwt>
<rscale>  0 0.29441255E+04</rscale>
<asrwt>0</asrwt>
<pdfrwt beam="1">  1        2 0.17620155E+00 0.29441255E+04</pdfrwt>
<pdfrwt beam="2">  1       -2 0.29108257E+00 0.29441255E+04</pdfrwt>
<totfact> 0.63328057E-01</totfact>
</mgrwt>
</event>
<event>
 6    1  0.5040916E-004  0.4082460E+04  0.7818608E-02  0.7988115E-01
         -2   -1    0    0    0  501 -0.00000000000E+00  0.00000000000E+00  0.15853122553E+04  0.15853122553E+04  0.00000000000E+00 0. -1.
          2   -1    0    0  501    0  0.00000000000E+00 -0.00000000000E+00 -0.26282646986E+04  0.26282646986E+04  0.00000000000E+00 0.  1.
         23    2    1    2    0    0  0.84873087238E+02  0.10538556399E+04  0.12790031015E+04  0.16622453992E+04  0.96931331530E+02 0.  0.
         11    1    3    3    0    0  0.70025836191E+02  0.38904135978E+03  0.51896393938E+03  0.65236521039E+03  0.00000000000E+00 0. -1.
        -11    1    3    3    0    0  0.14847251048E+02  0.66481428007E+03  0.76003916209E+03  0.10098801888E+04  0.00000000000E+00 0.  1.
         22    1    1    2    0    0 -0.84873087238E+02 -0.10538556399E+04 -0.23219555447E+04  0.25513315547E+04  0.00000000000E+00 0.  1.
<mgrwt>
<rscale>  0 0.40824602E+04</rscale>
<asrwt>0</asrwt>
<pdfrwt beam="1">  1        2 0.40434841E+00 0.40824602E+04</pdfrwt>
<pdfrwt beam="2">  1       -2 0.24389419E+00 0.40824602E+04</pdfrwt>
<totfact> 0.16083185E-01</totfact>
</mgrwt>
</event>
<event>
 6    1  0.5040916E-004  0.2890632E+04  0.7818608E-02  0.8275670E-01
         -2   -1    0    0    0  501 -0.00000000000E+00  0.00000000000E+00  0.91414897305E+03  0.91414897305E+03  0.00000000000E+00 0. -1.
          2   -1    0    0  501    0  0.00000000000E+00 -0.00000000000E+00 -0.22851176648E+04  0.22851176648E+04  0.00000000000E+00 0.  1.
         23    2    1    2    0    0 -0.64770731129E+03 -0.25094749363E+03 -0.20872210512E+04  0.22015107319E+04  0.87512173660E+02 0.  0.
         13    1    3    3    0    0 -0.32245795787E+03 -0.14941618294E+03 -0.94800219841E+03  0.10124290091E+04  0.00000000000E+00 0. -1.
        -13    1    3    3    0    0 -0.32524935342E+03 -0.10153131069E+03 -0.11392188527E+04  0.11890817228E+04  0.00000000000E+00 0.  1.
         22    1    1    2    0    0  0.64770731129E+03  0.25094749363E+03  0.71625235937E+03  0.99775590600E+03  0.00000000000E+00 0. -1.
<mgrwt>
<rscale>  0 0.28906317E+04</rscale>
<asrwt>0</asrwt>
<pdfrwt beam="1">  1        2 0.35155656E+00 0.28906317E+04</pdfrwt>
<pdfrwt beam="2">  1       -2 0.14063830E+00 0.28906317E+04</pdfrwt>
<totfact> 0.14170110E+00</totfact>
</mgrwt>
</event>
<event>
 6    1  0.5040916E-004  0.1264893E+04  0.7818608E-02  0.9057878E-01
          2   -1    0    0  501    0  0.00000000000E+00  0.00000000000E+00  0.18739294455E+04  0.18739294455E+04  0.00000000000E+00 0.  1.
         -2   -1    0    0    0  501 -0.00000000000E+00 -0.00000000000E+00 -0.21344913553E+03  0.21344913553E+03  0.00000000000E+00 0. -1.
         23    2    1    2    0    0  0.59719588558E+03  0.58462068581E+02  0.52273867671E+03  0.80109837700E+03  0.91881153061E+02 0.  0.
         11    1    3    3    0    0  0.34682121594E+03  0.86777074595E+01  0.25062455805E+03  0.42798706468E+03  0.00000000000E+00 0.  1.
        -11    1    3    3    0    0  0.25037466964E+03  0.49784361121E+02  0.27211411866E+03  0.37311131232E+03  0.00000000000E+00 0. -1.
         22    1    1    2    0    0 -0.59719588558E+03 -0.58462068581E+02  0.11377416333E+04  0.12862802041E+04  0.00000000000E+00 0. -1.
<mgrwt>
<rscale>  0 0.12648931E+04</rscale>
<asrwt>0</asrwt>
<pdfrwt beam="1">  1        2 0.28829683E+00 0.12648931E+04</pdfrwt>
<pdfrwt beam="2">  1       -2 0.32838330E-01 0.12648931E+04</pdfrwt>
<totfact> 0.66751099E+01</totfact>
</mgrwt>
</event>
<event>
 6    1  0.5040916E-004  0.2676150E+04  0.7818608E-02  0.8342785E-01
          2   -1    0    0  501    0  0.00000000000E+00  0.00000000000E+00  0.19288270401E+04  0.19288270401E+04  0.00000000000E+00 0.  1.
         -2   -1    0    0    0  501 -0.00000000000E+00 -0.00000000000E+00 -0.92825536588E+03  0.92825536588E+03  0.00000000000E+00 0. -1.
         23    2    1    2    0    0 -0.35696516326E+03  0.10944138055E+04 -0.22473518814E+03  0.11758499377E+04  0.83375449909E+02 0.  0.
         13    1    3    3    0    0 -0.21950101205E+03  0.55805017708E+03 -0.94863625910E+02  0.60712420636E+03  0.00000000000E+00 0. -1.
        -13    1    3    3    0    0 -0.13746415121E+03  0.53636362844E+03 -0.12987156223E+03  0.56872573132E+03  0.00000000000E+00 0.  1.
         22    1    1    2    0    0  0.35696516326E+03 -0.10944138055E+04  0.12253068623E+04  0.16812324683E+04  0.00000000000E+00 0.  1.
<mgrwt>
<rscale>  0 0.26761495E+04</rscale>
<asrwt>0</asrwt>
<pdfrwt beam="1">  1        2 0.29674262E+00 0.26761495E+04</pdfrwt>
<pdfrwt beam="2">  1       -2 0.14280852E+00 0.26761495E+04</pdfrwt>
<totfact> 0.21940699E+00</totfact>
</mgrwt>
</event>
<event>
 6    1  0.5040916E-004  0.4335809E+04  0.7818608E-02  0.7940030E-01
         -2   -1    0    0    0  501 -0.00000000000E+00  0.00000000000E+00  0.21860393379E+04  0.21860393379E+04  0.00000000000E+00 0. -1.
          2   -1    0    0  501    0  0.00000000000E+00 -0.00000000000E+00 -0.21499201841E+04  0.21499201841E+04  0.00000000000E+00 0.  1.
         23    2    1    2    0    0 -0.15121508964E+04  0.12294072166E+04  0.96546418226E+03  0.21768567871E+04  0.92422652885E+02 0.  0.
         11    1    3    3    0    0 -0.10944937705E+04  0.87731751583E+03  0.64937281218E+03  0.15457320875E+04  0.00000000000E+00 0.  1.
        -11    1    3    3    0    0 -0.41765712586E+03  0.35208970076E+03  0.31609137008E+03  0.63112469956E+03  0.00000000000E+00 0. -1.
         22    1    1    2    0    0  0.15121508964E+04 -0.12294072166E+04 -0.92934502846E+03  0.21591027348E+04  0.00000000000E+00 0. -1.
<mgrwt>
<rscale>  0 0.43358091E+04</rscale>
<asrwt>0</asrwt>
<pdfrwt beam="1">  1        2 0.33075695E+00 0.43358091E+04</pdfrwt>
<pdfrwt beam="2">  1       -2 0.33631374E+00 0.43358091E+04</pdfrwt>
<totfact> 0.80206120E-02</totfact>
</mgrwt>
</event>
<event>
 6    1  0.5086386E-004  0.3154626E+04  0.7818608E-02  0.8200904E-01
         -2   -1    0    0    0  501 -0.00000000000E+00  0.00000000000E+00  0.12375917821E+04  0.12375917821E+04  0.00000000000E+00 0. -1.
          2   -1    0    0  501    0  0.00000000000E+00 -0.00000000000E+00 -0.20102887993E+04  0.20102887993E+04  0.00000000000E+00 0.  1.
         23    2    1    2    0    0  0.18056570956E+02 -0.11212759068E+04 -0.15267346859E+04  0.18965262591E+04  0.91144671703E+02 0.  0.
         13    1    3    3    0    0 -0.30329307419E+02 -0.75524045283E+03 -0.10172556565E+04  0.12673267452E+04  0.00000000000E+00 0. -1.
        -13    1    3    3    0    0  0.48385878374E+02 -0.36603545394E+03 -0.50947902946E+03  0.62919951385E+03  0.00000000000E+00 0.  1.
         22    1    1    2    0    0 -0.18056570956E+02  0.11212759068E+04  0.75403766874E+03  0.13513543224E+04  0.00000000000E+00 0. -1.
<mgrwt>
<rscale>  0 0.31546264E+04</rscale>
<asrwt>0</asrwt>
<pdfrwt beam="1">  1        2 0.30927520E+00 0.31546264E+04</pdfrwt>
<pdfrwt beam="2">  1       -2 0.19039874E+00 0.31546264E+04</pdfrwt>
<totfact> 0.85858599E-01</totfact>
</mgrwt>
</event>
<event>
 6    1  0.5040916E-004  0.2280182E+04  0.7818608E-02  0.8485776E-01
         -2   -1    0    0    0  501 -0.00000000000E+00  0.00000000000E+00  0.57717365235E+03  0.57717365235E+03  0.00000000000E+00 0. -1.
          2   -1    0    0  501    0  0.00000000000E+00 -0.00000000000E+00 -0.22520209336E+04  0.22520209336E+04  0.00000000000E+00 0.  1.
         23    2    1    2    0    0 -0.46098200880E+03  0.25033593854E+03  0.41441353008E+03  0.67508613177E+03  0.93969233394E+02 0.  0.
         11    1    3    3    0    0 -0.37021967252E+03  0.15603051097E+03  0.30311436079E+03  0.50327571170E+03  0.00000000000E+00 0. -1.
        -11    1    3    3    0    0 -0.90762336281E+02  0.94305427573E+02  0.11129916930E+03  0.17181042007E+03  0.00000000000E+00 0.  1.
         22    1    1    2    0    0  0.46098200880E+03 -0.25033593854E+03 -0.20892608113E+04  0.21541084542E+04  0.00000000000E+00 0.  1.
<mgrwt>
<rscale>  0 0.22801817E+04</rscale>
<asrwt>0</asrwt>
<pdfrwt beam="1">  1        2 0.34646476E+00 0.22801817E+04</pdfrwt>
<pdfrwt beam="2">  1       -2 0.88795946E-01 0.22801817E+04</pdfrwt>
<totfact> 0.47772539E+00</totfact>
</mgrwt>
</event>
<event>
 6    1  0.5040916E-004  0.8171789E+03  0.7818608E-02  0.9535479E-01
          2   -1    0    0  501    0  0.00000000000E+00  0.00000000000E+00  0.22700128543E+04  0.22700128543E+04  0.00000000000E+00 0.  1.
         -2   -1    0    0    0  501 -0.00000000000E+00 -0.00000000000E+00 -0.73543785452E+02  0.73543785452E+02  0.00000000000E+00 0. -1.
         23    2    1    2    0    0 -0.37411251540E+03 -0.70228549753E+02  0.73297373284E+03  0.83136921027E+03  0.95037084165E+02 0.  0.
         13    1    3    3    0    0 -0.18756344804E+03 -0.72477902549E+02  0.31585155459E+03  0.37442662557E+03  0.00000000000E+00 0. -1.
        -13    1    3    3    0    0 -0.18654906736E+03  0.22493527960E+01  0.41712217826E+03  0.45694258470E+03  0.00000000000E+00 0.  1.
         22    1    1    2    0    0  0.37411251540E+03  0.70228549753E+02  0.14634953360E+04  0.15121874295E+04  0.00000000000E+00 0. -1.
<mgrwt>
<rscale>  0 0.81717890E+03</rscale>
<asrwt>0</asrwt>
<pdfrwt beam="1">  1        2 0.34923269E+00 0.81717890E+03</pdfrwt>
<pdfrwt beam="2">  1       -2 0.11314430E-01 0.81717890E+03</pdfrwt>
<totfact> 0.27100801E+02</totfact>
</mgrwt>
</event>
<event>
 6    1  0.5040916E-004  0.2930697E+04  0.7818608E-02  0.8263802E-01
         -2   -1    0    0    0  501 -0.00000000000E+00  0.00000000000E+00  0.85515011442E+03  0.85515011442E+03  0.00000000000E+00 0. -1.
          2   -1    0    0  501    0  0.00000000000E+00 -0.00000000000E+00 -0.25109577575E+04  0.25109577575E+04  0.00000000000E+00 0.  1.
         23    2    1    2    0    0 -0.14051389632E+04 -0.65754878947E+02 -0.36293925356E+03  0.14555456817E+04  0.90272474746E+02 0.  0.
         11    1    3    3    0    0 -0.11286057784E+04 -0.84724736702E+02 -0.30840956444E+03  0.11730497617E+04  0.00000000000E+00 0. -1.
        -11    1    3    3    0    0 -0.27653318484E+03  0.18969857755E+02 -0.54529689113E+02  0.28249592000E+03  0.00000000000E+00 0.  1.
         22    1    1    2    0    0  0.14051389632E+04  0.65754878947E+02 -0.12928683895E+04  0.19105621902E+04  0.00000000000E+00 0.  1.
<mgrwt>
<rscale>  0 0.29306967E+04</rscale>
<asrwt>0</asrwt>
<pdfrwt beam="1">  1        2 0.38630119E+00 0.29306967E+04</pdfrwt>
<pdfrwt beam="2">  1       -2 0.13156156E+00 0.29306967E+04</pdfrwt>
<totfact> 0.12440525E+00</totfact>
</mgrwt>
</event>
<event>
 6    1  0.5040916E-004  0.7689153E+03  0.7818608E-02  0.9606134E-01
         -2   -1    0    0    0  501 -0.00000000000E+00  0.00000000000E+00  0.70420241127E+02  0.70420241127E+02  0.00000000000E+00 0. -1.
          2   -1    0    0  501    0  0.00000000000E+00 -0.00000000000E+00 -0.20989376123E+04  0.20989376123E+04  0.00000000000E+00 0.  1.
         23    2    1    2    0    0  0.26294048600E+02  0.37801500078E+03 -0.98667124862E+03  0.10607415713E+04  0.89809857584E+02 0.  0.
         13    1    3    3    0    0  0.22754402508E+02  0.68317970196E+02 -0.28128556139E+03  0.29035611744E+03  0.00000000000E+00 0. -1.
        -13    1    3    3    0    0  0.35396460916E+01  0.30969703059E+03 -0.70538568723E+03  0.77038545391E+03  0.00000000000E+00 0.  1.
         22    1    1    2    0    0 -0.26294048600E+02 -0.37801500078E+03 -0.10418461225E+04  0.11086162820E+04  0.00000000000E+00 0. -1.
<mgrwt>
<rscale>  0 0.76891532E+03</rscale>
<asrwt>0</asrwt>
<pdfrwt beam="1">  1        2 0.32291348E+00 0.76891532E+03</pdfrwt>
<pdfrwt beam="2">  1       -2 0.10833883E-01 0.76891532E+03</pdfrwt>
<totfact> 0.36308410E+02</totfact>
</mgrwt>
</event>
<event>
 6    1  0.5040916E-004  0.5349243E+04  0.7818608E-02  0.7776781E-01
         -2   -1    0    0    0  501 -0.00000000000E+00  0.00000000000E+00  0.20413340647E+04  0.20413340647E+04  0.00000000000E+00 0. -1.
          2   -1    0    0  501    0  0.00000000000E+00 -0.00000000000E+00 -0.35043748946E+04  0.35043748946E+04  0.00000000000E+00 0.  1.
         23    2    1    2    0    0  0.39757683764E+03 -0.10497821795E+04 -0.32476518502E+04  0.34374047925E+04  0.91647153106E+02 0.  0.
         11    1    3    3    0    0  0.23362059900E+03 -0.48769511073E+03 -0.15535470917E+04  0.16449722403E+04  0.00000000000E+00 0.  1.
        -11    1    3    3    0    0  0.16395623865E+03 -0.56208706882E+03 -0.16941047585E+04  0.17924325521E+04  0.00000000000E+00 0. -1.
         22    1    1    2    0    0 -0.39757683764E+03  0.10497821795E+04  0.17846110203E+04  0.21083041669E+04  0.00000000000E+00 0. -1.
<mgrwt>
<rscale>  0 0.53492429E+04</rscale>
<asrwt>0</asrwt>
<pdfrwt beam="1">  1        2 0.53913460E+00 0.53492429E+04</pdfrwt>
<pdfrwt beam="2">  1       -2 0.31405139E+00 0.53492429E+04</pdfrwt>
<totfact> 0.14864794E-02</totfact>
</mgrwt>
</event>
<event>
 6    1  0.5040916E-004  0.2796209E+04  0.7818608E-02  0.8304446E-01
          2   -1    0    0  501    0  0.00000000000E+00  0.00000000000E+00  0.23974543623E+04  0.23974543623E+04  0.00000000000E+00 0.  1.
         -2   -1    0    0    0  501 -0.00000000000E+00 -0.00000000000E+00 -0.81532163635E+03  0.81532163635E+03  0.00000000000E+00 0. -1.
         23    2    1    2    0    0  0.40266927630E+03 -0.49916013877E+03  0.22171573728E+04  0.23102463913E+04  0.10073818834E+03 0.  0.
         13    1    3    3    0    0  0.16042120535E+03 -0.25691552380E+03  0.11643894186E+04  0.12031389228E+04  0.00000000000E+00 0.  1.
        -13    1    3    3    0    0  0.24224807095E+03 -0.24224461496E+03  0.10527679541E+04  0.11071074684E+04  0.00000000000E+00 0. -1.
         22    1    1    2    0    0 -0.40266927630E+03  0.49916013877E+03 -0.63502464679E+03  0.90252960740E+03  0.00000000000E+00 0. -1.
<mgrwt>
<rscale>  0 0.27962092E+04</rscale>
<asrwt>0</asrwt>
<pdfrwt beam="1">  1        2 0.36883913E+00 0.27962092E+04</pdfrwt>
<pdfrwt beam="2">  1       -2 0.12543410E+00 0.27962092E+04</pdfrwt>
<totfact> 0.16500456E+00</totfact>
</mgrwt>
</event>
<event>
 6    1  0.5040916E-004  0.4082014E+04  0.7818608E-02  0.7988203E-01
          2   -1    0    0  501    0  0.00000000000E+00  0.00000000000E+00  0.31560750116E+04  0.31560750116E+04  0.00000000000E+00 0.  1.
         -2   -1    0    0    0  501 -0.00000000000E+00 -0.00000000000E+00 -0.13199018797E+04  0.13199018797E+04  0.00000000000E+00 0. -1.
         23    2    1    2    0    0  0.19056811956E+04 -0.66726452048E+03  0.12378999942E+04  0.23700819492E+04  0.89606309679E+02 0.  0.
         11    1    3    3    0    0  0.88127272813E+03 -0.27333459676E+03  0.60033442965E+03  0.11007973703E+04  0.00000000000E+00 0.  1.
        -11    1    3    3    0    0  0.10244084675E+04 -0.39392992372E+03  0.63756556455E+03  0.12692845789E+04  0.00000000000E+00 0. -1.
         22    1    1    2    0    0 -0.19056811956E+04  0.66726452048E+03  0.59827313773E+03  0.21058949421E+04  0.00000000000E+00 0.  1.
<mgrwt>
<rscale>  0 0.40820139E+04</rscale>
<asrwt>0</asrwt>
<pdfrwt beam="1">  1        2 0.48555000E+00 0.40820139E+04</pdfrwt>
<pdfrwt beam="2">  1       -2 0.20306183E+00 0.40820139E+04</pdfrwt>
<totfact> 0.13770919E-01</totfact>
</mgrwt>
</event>
<event>
 6    1  0.5040916E-004  0.1153459E+04  0.7818608E-02  0.9154598E-01
         -2   -1    0    0    0  501 -0.00000000000E+00  0.00000000000E+00  0.12306826604E+03  0.12306826604E+03  0.00000000000E+00 0. -1.
          2   -1    0    0  501    0  0.00000000000E+00 -0.00000000000E+00 -0.27027029079E+04  0.27027029079E+04  0.00000000000E+00 0.  1.
         23    2    1    2    0    0  0.26214384979E+01 -0.54767176925E+03 -0.17134786304E+04  0.18009895021E+04  0.87194787832E+02 0.  0.
         13    1    3    3    0    0 -0.42869273272E+01 -0.13421494456E+03 -0.30937400349E+03  0.33725999337E+03  0.00000000000E+00 0. -1.
        -13    1    3    3    0    0  0.69083658251E+01 -0.41345682469E+03 -0.14041046269E+04  0.14637295087E+04  0.00000000000E+00 0.  1.
         22    1    1    2    0    0 -0.26214384979E+01  0.54767176925E+03 -0.86615601146E+03  0.10247816719E+04  0.00000000000E+00 0. -1.
<mgrwt>
<rscale>  0 0.11534591E+04</rscale>
<asrwt>0</asrwt>
<pdfrwt beam="1">  1        2 0.41580044E+00 0.11534591E+04</pdfrwt>
<pdfrwt beam="2">  1       -2 0.18933580E-01 0.11534591E+04</pdfrwt>
<totfact> 0.62268202E+01</totfact>
</mgrwt>
</event>
<event>
 6    1  0.5040916E-004  0.1023783E+04  0.7818608E-02  0.9282838E-01
          2   -1    0    0  501    0  0.00000000000E+00  0.00000000000E+00  0.23677711288E+04  0.23677711288E+04  0.00000000000E+00 0.  1.
         -2   -1    0    0    0  501 -0.00000000000E+00 -0.00000000000E+00 -0.11066650496E+03  0.11066650496E+03  0.00000000000E+00 0. -1.
         23    2    1    2    0    0  0.27387354087E+03  0.42190283042E+03  0.12929091020E+04  0.13909259239E+04  0.10026098483E+03 0.  0.
         11    1    3    3    0    0  0.21140624182E+03  0.27206905087E+03  0.77418636657E+03  0.84739524290E+03  0.00000000000E+00 0. -1.
        -11    1    3    3    0    0  0.62467299057E+02  0.14983377956E+03  0.51872273539E+03  0.54353068097E+03  0.00000000000E+00 0.  1.
         22    1    1    2    0    0 -0.27387354087E+03 -0.42190283042E+03  0.96419552194E+03  0.10875117099E+04  0.00000000000E+00 0. -1.
<mgrwt>
<rscale>  0 0.10237831E+04</rscale>
<asrwt>0</asrwt>
<pdfrwt beam="1">  1        2 0.36427244E+00 0.10237831E+04</pdfrwt>
<pdfrwt beam="2">  1       -2 0.17025618E-01 0.10237831E+04</pdfrwt>
<totfact> 0.11803154E+02</totfact>
</mgrwt>
</event>
<event>
 6    1  0.5040916E-004  0.2262687E+04  0.7818608E-02  0.8492780E-01
          2   -1    0    0  501    0  0.00000000000E+00  0.00000000000E+00  0.14183468444E+04  0.14183468444E+04  0.00000000000E+00 0.  1.
         -2   -1    0    0    0  501 -0.00000000000E+00 -0.00000000000E+00 -0.90241563080E+03  0.90241563080E+03  0.00000000000E+00 0. -1.
         23    2    1    2    0    0  0.34916184860E+03 -0.65843071162E+03  0.11289102586E+04  0.13557814867E+04  0.90884922072E+02 0.  0.
         13    1    3    3    0    0  0.22027493311E+03 -0.49948788917E+03  0.80480526682E+03  0.97248172995E+03  0.00000000000E+00 0.  1.
        -13    1    3    3    0    0  0.12888691549E+03 -0.15894282244E+03  0.32410499178E+03  0.38329975670E+03  0.00000000000E+00 0. -1.
         22    1    1    2    0    0 -0.34916184860E+03  0.65843071162E+03 -0.61297904504E+03  0.96498098850E+03  0.00000000000E+00 0. -1.
<mgrwt>
<rscale>  0 0.22626872E+04</rscale>
<asrwt>0</asrwt>
<pdfrwt beam="1">  1        2 0.21820721E+00 0.22626872E+04</pdfrwt>
<pdfrwt beam="2">  1       -2 0.13883317E+00 0.22626872E+04</pdfrwt>
<totfact> 0.47156370E+00</totfact>
</mgrwt>
</event>
<event>
 6    1  0.5040916E-004  0.4766246E+04  0.7818608E-02  0.7865614E-01
          2   -1    0    0  501    0  0.00000000000E+00  0.00000000000E+00  0.24878052710E+04  0.24878052710E+04  0.00000000000E+00 0.  1.
         -2   -1    0    0    0  501 -0.00000000000E+00 -0.00000000000E+00 -0.22828457297E+04  0.22828457297E+04  0.00000000000E+00 0. -1.
         23    2    1    2    0    0 -0.67697809010E+03  0.74617901884E+03  0.22632258262E+04  0.24790265634E+04  0.91099390715E+02 0.  0.
         11    1    3    3    0    0 -0.22186648197E+03  0.18943136495E+03  0.69849946822E+03  0.75697456031E+03  0.00000000000E+00 0. -1.
        -11    1    3    3    0    0 -0.45511160812E+03  0.55674765390E+03  0.15647263579E+04  0.17220520030E+04  0.00000000000E+00 0.  1.
         22    1    1    2    0    0  0.67697809010E+03 -0.74617901884E+03 -0.20582662848E+04  0.22916244374E+04  0.00000000000E+00 0. -1.
<mgrwt>
<rscale>  0 0.47662462E+04</rscale>
<asrwt>0</asrwt>
<pdfrwt beam="1">  1        2 0.38273927E+00 0.47662462E+04</pdfrwt>
<pdfrwt beam="2">  1       -2 0.35120704E+00 0.47662462E+04</pdfrwt>
<totfact> 0.40119309E-02</totfact>
</mgrwt>
</event>
<event>
 6    1  0.5040916E-004  0.1080703E+04  0.7818608E-02  0.9224207E-01
          2   -1    0    0  501    0  0.00000000000E+00  0.00000000000E+00  0.47400866790E+03  0.47400866790E+03  0.00000000000E+00 0.  1.
         -2   -1    0    0    0  501 -0.00000000000E+00 -0.00000000000E+00 -0.61597920863E+03  0.61597920863E+03  0.00000000000E+00 0. -1.
         23    2    1    2    0    0  0.10344260159E+02  0.37784300170E+03 -0.45539527073E+03  0.59896099434E+03  0.92179620780E+02 0.  0.
         11    1    3    3    0    0 -0.40546863773E+02  0.16237567060E+03 -0.18436028033E+03  0.24899521989E+03  0.00000000000E+00 0. -1.
        -11    1    3    3    0    0  0.50891123932E+02  0.21546733110E+03 -0.27103499040E+03  0.34996577445E+03  0.00000000000E+00 0.  1.
         22    1    1    2    0    0 -0.10344260159E+02 -0.37784300170E+03  0.31342473000E+03  0.49102688218E+03  0.00000000000E+00 0.  1.
<mgrwt>
<rscale>  0 0.10807025E+04</rscale>
<asrwt>0</asrwt>
<pdfrwt beam="1">  1        2 0.72924410E-01 0.10807025E+04</pdfrwt>
<pdfrwt beam="2">  1       -2 0.94766032E-01 0.10807025E+04</pdfrwt>
<totfact> 0.61065648E+01</totfact>
</mgrwt>
</event>
<event>
 6    1  0.5040916E-004  0.2176880E+04  0.7818608E-02  0.8528113E-01
          2   -1    0    0  501    0  0.00000000000E+00  0.00000000000E+00  0.27624206458E+04  0.27624206458E+04  0.00000000000E+00 0.  1.
         -2   -1    0    0    0  501 -0.00000000000E+00 -0.00000000000E+00 -0.42886345590E+03  0.42886345590E+03  0.00000000000E+00 0. -1.
         23    2    1    2    0    0  0.79571644811E+03 -0.16815935308E+03  0.22250404777E+04  0.23707854054E+04  0.91520910323E+02 0.  0.
         13    1    3    3    0    0  0.39002558457E+03 -0.64976755954E+02  0.95821454788E+03  0.10365891448E+04  0.00000000000E+00 0.  1.
        -13    1    3    3    0    0  0.40569086355E+03 -0.10318259712E+03  0.12668259298E+04  0.13341962605E+04  0.00000000000E+00 0. -1.
         22    1    1    2    0    0 -0.79571644811E+03  0.16815935308E+03  0.10851671216E+03  0.82049869631E+03  0.00000000000E+00 0. -1.
<mgrwt>
<rscale>  0 0.21768797E+04</rscale>
<asrwt>0</asrwt>
<pdfrwt beam="1">  1        2 0.42498778E+00 0.21768797E+04</pdfrwt>
<pdfrwt beam="2">  1       -2 0.65978995E-01 0.21768797E+04</pdfrwt>
<totfact> 0.47196782E+00</totfact>
</mgrwt>
</event>
<event>
 6    1  0.5040916E-004  0.1908009E+04  0.7818608E-02  0.8650880E-01
         -2   -1    0    0    0  501 -0.00000000000E+00  0.00000000000E+00  0.35180177935E+03  0.35180177935E+03  0.00000000000E+00 0. -1.
          2   -1    0    0  501    0  0.00000000000E+00 -0.00000000000E+00 -0.25870376248E+04  0.25870376248E+04  0.00000000000E+00 0.  1.
         23    2    1    2    0    0  0.29050227853E+03 -0.17604092582E+03 -0.24897006862E+04  0.25144170479E+04  0.91113128936E+02 0.  0.
         13    1    3    3    0    0  0.64718806962E+02 -0.62282342843E+02 -0.43169526798E+03  0.44094037988E+03  0.00000000000E+00 0. -1.
        -13    1    3    3    0    0  0.22578347157E+03 -0.11375858298E+03 -0.20580054182E+04  0.20734766680E+04  0.00000000000E+00 0.  1.
         22    1    1    2    0    0 -0.29050227853E+03  0.17604092582E+03  0.25446484071E+03  0.42442235633E+03  0.00000000000E+00 0. -1.
<mgrwt>
<rscale>  0 0.19080088E+04</rscale>
<asrwt>0</asrwt>
<pdfrwt beam="1">  1        2 0.39800577E+00 0.19080088E+04</pdfrwt>
<pdfrwt beam="2">  1       -2 0.54123353E-01 0.19080088E+04</pdfrwt>
<totfact> 0.93282359E+00</totfact>
</mgrwt>
</event>
<event>
 6    1  0.5040916E-004  0.2570909E+04  0.7818608E-02  0.8378150E-01
         -2   -1    0    0    0  501 -0.00000000000E+00  0.00000000000E+00  0.16632462313E+04  0.16632462313E+04  0.00000000000E+00 0. -1.
          2   -1    0    0  501    0  0.00000000000E+00 -0.00000000000E+00 -0.99347510224E+03  0.99347510224E+03  0.00000000000E+00 0.  1.
         23    2    1    2    0    0 -0.82238447970E+03  0.77413891982E+03 -0.29538185130E+03  0.11710808740E+04  0.92588744994E+02 0.  0.
         13    1    3    3    0    0 -0.63423481295E+03  0.63887421716E+03 -0.25701670626E+03  0.93620064655E+03  0.00000000000E+00 0.  1.
        -13    1    3    3    0    0 -0.18814966675E+03  0.13526470266E+03 -0.38365145045E+02  0.23488022743E+03  0.00000000000E+00 0. -1.
         22    1    1    2    0    0  0.82238447970E+03 -0.77413891982E+03  0.96515298040E+03  0.14856404596E+04  0.00000000000E+00 0.  1.
<mgrwt>
<rscale>  0 0.25709093E+04</rscale>
<asrwt>0</asrwt>
<pdfrwt beam="1">  1        2 0.15284232E+00 0.25709093E+04</pdfrwt>
<pdfrwt beam="2">  1       -2 0.25588403E+00 0.25709093E+04</pdfrwt>
<totfact> 0.13333299E+00</totfact>
</mgrwt>
</event>
<event>
 6    1  0.5040916E-004  0.1571468E+04  0.7818608E-02  0.8838271E-01
         -2   -1    0    0    0  501 -0.00000000000E+00  0.00000000000E+00  0.45578683102E+03  0.45578683102E+03  0.00000000000E+00 0. -1.
          2   -1    0    0  501    0  0.00000000000E+00 -0.00000000000E+00 -0.13545318303E+04  0.13545318303E+04  0.00000000000E+00 0.  1.
         23    2    1    2    0    0 -0.85410765639E+02  0.44976000040E+03 -0.11830611621E+04  0.12714172443E+04  0.85375868707E+02 0.  0.
         13    1    3    3    0    0 -0.78688696017E+02  0.27530117078E+03 -0.64384267480E+03  0.70463893975E+03  0.00000000000E+00 0. -1.
        -13    1    3    3    0    0 -0.67220696217E+01  0.17445882962E+03 -0.53921848733E+03  0.56677830457E+03  0.00000000000E+00 0.  1.
         22    1    1    2    0    0  0.85410765639E+02 -0.44976000040E+03  0.28431616282E+03  0.53890141704E+03  0.00000000000E+00 0. -1.
<mgrwt>
<rscale>  0 0.15714678E+04</rscale>
<asrwt>0</asrwt>
<pdfrwt beam="1">  1        2 0.20838951E+00 0.15714678E+04</pdfrwt>
<pdfrwt beam="2">  1       -2 0.70121052E-01 0.15714678E+04</pdfrwt>
<totfact> 0.27352149E+01</totfact>
</mgrwt>
</event>
<event>
 6    1  0.5040916E-004  0.3057114E+04  0.7818608E-02  0.8227607E-01
          2   -1    0    0  501    0  0.00000000000E+00  0.00000000000E+00  0.12515173331E+04  0.12515173331E+04  0.00000000000E+00 0.  1.
         -2   -1    0    0    0  501 -0.00000000000E+00 -0.00000000000E+00 -0.18669227738E+04  0.18669227738E+04  0.00000000000E+00 0. -1.
         23    2    1    2    0    0 -0.36640553575E+03 -0.12773845417E+04 -0.10757081349E+04  0.17120820962E+04  0.90071242611E+02 0.  0.
         11    1    3    3    0    0 -0.14609104838E+03 -0.37092902666E+03 -0.34233107851E+03  0.52547264872E+03  0.00000000000E+00 0. -1.
        -11    1    3    3    0    0 -0.22031448736E+03 -0.90645551503E+03 -0.73337705638E+03  0.11866094475E+04  0.00000000000E+00 0.  1.
         22    1    1    2    0    0  0.36640553575E+03  0.12773845417E+04  0.46030269418E+03  0.14063580107E+04  0.00000000000E+00 0. -1.
<mgrwt>
<rscale>  0 0.30571138E+04</rscale>
<asrwt>0</asrwt>
<pdfrwt beam="1">  1        2 0.19254113E+00 0.30571138E+04</pdfrwt>
<pdfrwt beam="2">  1       -2 0.28721889E+00 0.30571138E+04</pdfrwt>
<totfact> 0.57220065E-01</totfact>
</mgrwt>
</event>
<event>
 6    1  0.5040916E-004  0.2737204E+04  0.7818608E-02  0.8323033E-01
          4   -1    0    0  501    0  0.00000000000E+00  0.00000000000E+00  0.95027185273E+03  0.95027185273E+03  0.00000000000E+00 0.  1.
         -4   -1    0    0    0  501 -0.00000000000E+00 -0.00000000000E+00 -0.19710907144E+04  0.19710907144E+04  0.00000000000E+00 0. -1.
         23    2    1    2    0    0  0.83565251977E+02  0.82593711966E+03  0.64828204481E+03  0.10572131329E+04  0.90965498131E+02 0.  0.
         13    1    3    3    0    0  0.64535194375E+01  0.11893760910E+03  0.13564525947E+03  0.18051991355E+03  0.00000000000E+00 0.  1.
        -13    1    3    3    0    0  0.77111732540E+02  0.70699951056E+03  0.51263678535E+03  0.87669321939E+03  0.00000000000E+00 0. -1.
         22    1    1    2    0    0 -0.83565251977E+02 -0.82593711966E+03 -0.16691009065E+04  0.18641494342E+04  0.00000000000E+00 0. -1.
<mgrwt>
<rscale>  0 0.27372044E+04</rscale>
<asrwt>0</asrwt>
<pdfrwt beam="1">  1        4 0.14619567E+00 0.27372044E+04</pdfrwt>
<pdfrwt beam="2">  1       -4 0.30324473E+00 0.27372044E+04</pdfrwt>
<totfact> 0.16368361E-02</totfact>
</mgrwt>
</event>
<event>
 6    1  0.5040916E-004  0.3310848E+04  0.7818608E-02  0.8160141E-01
          1   -1    0    0  501    0  0.00000000000E+00  0.00000000000E+00  0.20756153362E+04  0.20756153362E+04  0.00000000000E+00 0. -1.
         -1   -1    0    0    0  501 -0.00000000000E+00 -0.00000000000E+00 -0.13202969926E+04  0.13202969926E+04  0.00000000000E+00 0.  1.
         23    2    1    2    0    0  0.21323849325E+03 -0.15275782127E+04  0.99098187069E+03  0.18356228849E+04  0.92197921143E+02 0.  0.
         11    1    3    3    0    0  0.46518670881E+02 -0.47357666999E+03  0.35119799531E+03  0.59142106913E+03  0.00000000000E+00 0.  1.
        -11    1    3    3    0    0  0.16671982237E+03 -0.10540015427E+04  0.63978387538E+03  0.12442018158E+04  0.00000000000E+00 0. -1.
         22    1    1    2    0    0 -0.21323849325E+03  0.15275782127E+04 -0.23566352712E+03  0.15602894440E+04  0.00000000000E+00 0.  1.
<mgrwt>
<rscale>  0 0.33108480E+04</rscale>
<asrwt>0</asrwt>
<pdfrwt beam="1">  1        1 0.31932544E+00 0.33108480E+04</pdfrwt>
<pdfrwt beam="2">  1       -1 0.20312261E+00 0.33108480E+04</pdfrwt>
<totfact> 0.31434354E-01</totfact>
</mgrwt>
</event>
<event>
 6    1  0.5040916E-004  0.1369093E+04  0.7818608E-02  0.8976499E-01
          2   -1    0    0  501    0  0.00000000000E+00  0.00000000000E+00  0.12324586267E+04  0.12324586267E+04  0.00000000000E+00 0.  1.
         -2   -1    0    0    0  501 -0.00000000000E+00 -0.00000000000E+00 -0.38021900762E+03  0.38021900762E+03  0.00000000000E+00 0. -1.
         23    2    1    2    0    0  0.27498917265E+02  0.19575372444E+03 -0.34040265362E+03  0.40376436130E+03  0.89866466380E+02 0.  0.
         11    1    3    3    0    0  0.50922806750E+02  0.10527503683E+03 -0.13842608972E+03  0.18121188687E+03  0.00000000000E+00 0. -1.
        -11    1    3    3    0    0 -0.23423889485E+02  0.90478687611E+02 -0.20197656390E+03  0.22255247443E+03  0.00000000000E+00 0.  1.
         22    1    1    2    0    0 -0.27498917265E+02 -0.19575372444E+03  0.11926422727E+04  0.12089132730E+04  0.00000000000E+00 0.  1.
<mgrwt>
<rscale>  0 0.13690934E+04</rscale>
<asrwt>0</asrwt>
<pdfrwt beam="1">  1        2 0.18960902E+00 0.13690934E+04</pdfrwt>
<pdfrwt beam="2">  1       -2 0.58495232E-01 0.13690934E+04</pdfrwt>
<totfact> 0.48286475E+01</totfact>
</mgrwt>
</event>
<event>
 6    1  0.5040916E-004  0.2819062E+04  0.7818608E-02  0.8297375E-01
         -2   -1    0    0    0  501 -0.00000000000E+00  0.00000000000E+00  0.86053302487E+03  0.86053302487E+03  0.00000000000E+00 0. -1.
          2   -1    0    0  501    0  0.00000000000E+00 -0.00000000000E+00 -0.23087748920E+04  0.23087748920E+04  0.00000000000E+00 0.  1.
         23    2    1    2    0    0 -0.69275914463E+03 -0.10595995747E+04 -0.14178524202E+04  0.19029785720E+04  0.91408253407E+02 0.  0.
         13    1    3    3    0    0 -0.14662740168E+03 -0.16711592726E+03 -0.22635223500E+03  0.31727379714E+03  0.00000000000E+00 0. -1.
        -13    1    3    3    0    0 -0.54613174295E+03 -0.89248364744E+03 -0.11915001852E+04  0.15857047749E+04  0.00000000000E+00 0.  1.
         22    1    1    2    0    0  0.69275914463E+03  0.10595995747E+04 -0.30389446884E+02  0.12663293449E+04  0.00000000000E+00 0. -1.
<mgrwt>
<rscale>  0 0.28190616E+04</rscale>
<asrwt>0</asrwt>
<pdfrwt beam="1">  1        2 0.35519614E+00 0.28190616E+04</pdfrwt>
<pdfrwt beam="2">  1       -2 0.13238970E+00 0.28190616E+04</pdfrwt>
<totfact> 0.16144645E+00</totfact>
</mgrwt>
</event>
<event>
 6    1  0.5040916E-004  0.1114794E+04  0.7818608E-02  0.9190891E-01
          2   -1    0    0  501    0  0.00000000000E+00  0.00000000000E+00  0.10388481663E+04  0.10388481663E+04  0.00000000000E+00 0. -1.
         -2   -1    0    0    0  501 -0.00000000000E+00 -0.00000000000E+00 -0.29907308157E+03  0.29907308157E+03  0.00000000000E+00 0.  1.
         23    2    1    2    0    0 -0.21981343740E+03 -0.17841606133E+03  0.94327820911E+03  0.98926129913E+03  0.93348272377E+02 0.  0.
         13    1    3    3    0    0 -0.84230605936E+02 -0.50345809444E+02  0.47849856790E+03  0.48845713731E+03  0.00000000000E+00 0. -1.
        -13    1    3    3    0    0 -0.13558283147E+03 -0.12807025189E+03  0.46477964121E+03  0.50080416181E+03  0.00000000000E+00 0.  1.
         22    1    1    2    0    0  0.21981343740E+03  0.17841606133E+03 -0.20350312440E+03  0.34865994872E+03  0.00000000000E+00 0.  1.
<mgrwt>
<rscale>  0 0.11147942E+04</rscale>
<asrwt>0</asrwt>
<pdfrwt beam="1">  1        2 0.15982279E+00 0.11147942E+04</pdfrwt>
<pdfrwt beam="2">  1       -2 0.46011244E-01 0.11147942E+04</pdfrwt>
<totfact> 0.10565976E+02</totfact>
</mgrwt>
</event>
<event>
 6    1  0.5040916E-004  0.2382316E+04  0.7818608E-02  0.8446154E-01
         -2   -1    0    0    0  501 -0.00000000000E+00  0.00000000000E+00  0.70789722898E+03  0.70789722898E+03  0.00000000000E+00 0. -1.
          2   -1    0    0  501    0  0.00000000000E+00 -0.00000000000E+00 -0.20043275141E+04  0.20043275141E+04  0.00000000000E+00 0.  1.
         23    2    1    2    0    0 -0.31875520553E+03  0.32211259876E+03 -0.19011031241E+04  0.19565855107E+04  0.93125531988E+02 0.  0.
         11    1    3    3    0    0 -0.76073141816E+02  0.13198082715E+03 -0.71725435725E+03  0.73325294042E+03  0.00000000000E+00 0. -1.
        -11    1    3    3    0    0 -0.24268206371E+03  0.19013177161E+03 -0.11838487669E+04  0.12233325703E+04  0.00000000000E+00 0.  1.
         22    1    1    2    0    0  0.31875520553E+03 -0.32211259876E+03  0.60467283899E+03  0.75563923241E+03  0.00000000000E+00 0. -1.
<mgrwt>
<rscale>  0 0.23823164E+04</rscale>
<asrwt>0</asrwt>
<pdfrwt beam="1">  1        2 0.30835808E+00 0.23823164E+04</pdfrwt>
<pdfrwt beam="2">  1       -2 0.10890726E+00 0.23823164E+04</pdfrwt>
<totfact> 0.40272332E+00</totfact>
</mgrwt>
</event>
<event>
 6    1  0.5040916E-004  0.1918375E+04  0.7818608E-02  0.8645763E-01
          2   -1    0    0  501    0  0.00000000000E+00  0.00000000000E+00  0.85491222595E+03  0.85491222595E+03  0.00000000000E+00 0.  1.
         -2   -1    0    0    0  501 -0.00000000000E+00 -0.00000000000E+00 -0.10761819562E+04  0.10761819562E+04  0.00000000000E+00 0. -1.
         23    2    1    2    0    0 -0.37207225092E+02 -0.38678870199E+03 -0.99151411752E+03  0.10683854864E+04  0.85775432004E+02 0.  0.
         11    1    3    3    0    0  0.12577955145E+02 -0.27769932002E+03 -0.69889376643E+03  0.75214866486E+03  0.00000000000E+00 0. -1.
        -11    1    3    3    0    0 -0.49785180237E+02 -0.10908938197E+03 -0.29262035109E+03  0.31623682155E+03  0.00000000000E+00 0.  1.
         22    1    1    2    0    0  0.37207225092E+02  0.38678870199E+03  0.77024438727E+03  0.86270869574E+03  0.00000000000E+00 0.  1.
<mgrwt>
<rscale>  0 0.19183755E+04</rscale>
<asrwt>0</asrwt>
<pdfrwt beam="1">  1        2 0.13152496E+00 0.19183755E+04</pdfrwt>
<pdfrwt beam="2">  1       -2 0.16556645E+00 0.19183755E+04</pdfrwt>
<totfact> 0.67510661E+00</totfact>
</mgrwt>
</event>
<event>
 6    1  0.5040916E-004  0.2707802E+04  0.7818608E-02  0.8332478E-01
          2   -1    0    0  501    0  0.00000000000E+00  0.00000000000E+00  0.39753498988E+04  0.39753498988E+04  0.00000000000E+00 0.  1.
         -2   -1    0    0    0  501 -0.00000000000E+00 -0.00000000000E+00 -0.46110341715E+03  0.46110341715E+03  0.00000000000E+00 0. -1.
         23    2    1    2    0    0 -0.17100543918E+03 -0.66171172194E+03  0.36710395879E+04  0.37352476818E+04  0.91860359007E+02 0.  0.
         13    1    3    3    0    0 -0.12175334720E+03 -0.45199164102E+03  0.27321796928E+04  0.27719895734E+04  0.00000000000E+00 0.  1.
        -13    1    3    3    0    0 -0.49252091976E+02 -0.20972008092E+03  0.93885989506E+03  0.96325810843E+03  0.00000000000E+00 0. -1.
         22    1    1    2    0    0  0.17100543918E+03  0.66171172194E+03 -0.15679310624E+03  0.70120563413E+03  0.00000000000E+00 0. -1.
<mgrwt>
<rscale>  0 0.27078016E+04</rscale>
<asrwt>0</asrwt>
<pdfrwt beam="1">  1        2 0.61159227E+00 0.27078016E+04</pdfrwt>
<pdfrwt beam="2">  1       -2 0.70938990E-01 0.27078016E+04</pdfrwt>
<totfact> 0.56768815E-01</totfact>
</mgrwt>
</event>
<event>
 6    1  0.5040916E-004  0.2217792E+04  0.7818608E-02  0.8511059E-01
          2   -1    0    0  501    0  0.00000000000E+00  0.00000000000E+00  0.27142383592E+04  0.27142383592E+04  0.00000000000E+00 0.  1.
         -2   -1    0    0    0  501 -0.00000000000E+00 -0.00000000000E+00 -0.45303709485E+03  0.45303709485E+03  0.00000000000E+00 0. -1.
         23    2    1    2    0    0  0.16226510890E+03  0.76488840809E+03  0.13626477128E+02  0.78757449246E+03  0.93293396809E+02 0.  0.
         13    1    3    3    0    0  0.83006218240E+02  0.40201442115E+03 -0.39394037401E+02  0.41238030658E+03  0.00000000000E+00 0.  1.
        -13    1    3    3    0    0  0.79258890664E+02  0.36287398695E+03  0.53020514529E+02  0.37519418587E+03  0.00000000000E+00 0. -1.
         22    1    1    2    0    0 -0.16226510890E+03 -0.76488840809E+03  0.22475747873E+04  0.23797009616E+04  0.00000000000E+00 0.  1.
<mgrwt>
<rscale>  0 0.22177923E+04</rscale>
<asrwt>0</asrwt>
<pdfrwt beam="1">  1        2 0.41757512E+00 0.22177923E+04</pdfrwt>
<pdfrwt beam="2">  1       -2 0.69698016E-01 0.22177923E+04</pdfrwt>
<totfact> 0.44619114E+00</totfact>
</mgrwt>
</event>
<event>
 6    1  0.5040916E-004  0.2252121E+04  0.7818608E-02  0.8497042E-01
         -2   -1    0    0    0  501 -0.00000000000E+00  0.00000000000E+00  0.36487852588E+03  0.36487852588E+03  0.00000000000E+00 0.  1.
          2   -1    0    0  501    0  0.00000000000E+00 -0.00000000000E+00 -0.34751617241E+04  0.34751617241E+04  0.00000000000E+00 0. -1.
         23    2    1    2    0    0 -0.10995849119E+04 -0.32199256100E+01 -0.11591201146E+04  0.16003673441E+04  0.92297614576E+02 0.  0.
         11    1    3    3    0    0 -0.33445377467E+03  0.55354904128E+01 -0.41502292803E+03  0.53304221206E+03  0.00000000000E+00 0.  1.
        -11    1    3    3    0    0 -0.76513113722E+03 -0.87554160228E+01 -0.74409718653E+03  0.10673251320E+04  0.00000000000E+00 0. -1.
         22    1    1    2    0    0  0.10995849119E+04  0.32199256100E+01 -0.19511630837E+04  0.22396729059E+04  0.00000000000E+00 0.  1.
<mgrwt>
<rscale>  0 0.22521207E+04</rscale>
<asrwt>0</asrwt>
<pdfrwt beam="1">  1        2 0.53464025E+00 0.22521207E+04</pdfrwt>
<pdfrwt beam="2">  1       -2 0.56135159E-01 0.22521207E+04</pdfrwt>
<totfact> 0.23010569E+00</totfact>
</mgrwt>
</event>
<event>
 6    1  0.5040916E-004  0.2749786E+04  0.7818608E-02  0.8319029E-01
         -2   -1    0    0    0  501 -0.00000000000E+00  0.00000000000E+00  0.75127072923E+03  0.75127072923E+03  0.00000000000E+00 0. -1.
          2   -1    0    0  501    0  0.00000000000E+00 -0.00000000000E+00 -0.25161786667E+04  0.25161786667E+04  0.00000000000E+00 0.  1.
         23    2    1    2    0    0 -0.61934735881E+03 -0.56752349775E+03  0.40762051480E+03  0.93816754367E+03  0.91267653274E+02 0.  0.
         13    1    3    3    0    0 -0.33435220624E+03 -0.32869719800E+03  0.18019866103E+03  0.50229951546E+03  0.00000000000E+00 0.  1.
        -13    1    3    3    0    0 -0.28499515257E+03 -0.23882629975E+03  0.22742185377E+03  0.43586802821E+03  0.00000000000E+00 0. -1.
         22    1    1    2    0    0  0.61934735881E+03  0.56752349775E+03 -0.21725284523E+04  0.23292818523E+04  0.00000000000E+00 0.  1.
<mgrwt>
<rscale>  0 0.27497865E+04</rscale>
<asrwt>0</asrwt>
<pdfrwt beam="1">  1        2 0.38710442E+00 0.27497865E+04</pdfrwt>
<pdfrwt beam="2">  1       -2 0.11558011E+00 0.27497865E+04</pdfrwt>
<totfact> 0.17332025E+00</totfact>
</mgrwt>
</event>
<event>
 6    1  0.5040916E-004  0.7675305E+03  0.7818608E-02  0.9608242E-01
         -2   -1    0    0    0  501 -0.00000000000E+00  0.00000000000E+00  0.19459563166E+03  0.19459563166E+03  0.00000000000E+00 0. -1.
          2   -1    0    0  501    0  0.00000000000E+00 -0.00000000000E+00 -0.75682974950E+03  0.75682974950E+03  0.00000000000E+00 0.  1.
         23    2    1    2    0    0  0.19664667178E+03 -0.18055203858E+03  0.47147265628E+02  0.28613249628E+03  0.91542277719E+02 0.  0.
         13    1    3    3    0    0  0.69838101357E+02 -0.50468315871E+02 -0.26438308479E+02  0.90129881079E+02  0.00000000000E+00 0. -1.
        -13    1    3    3    0    0  0.12680857042E+03 -0.13008372271E+03  0.73585574107E+02  0.19600261520E+03  0.00000000000E+00 0.  1.
         22    1    1    2    0    0 -0.19664667178E+03  0.18055203858E+03 -0.60938138347E+03  0.66529288489E+03  0.00000000000E+00 0.  1.
<mgrwt>
<rscale>  0 0.76753049E+03</rscale>
<asrwt>0</asrwt>
<pdfrwt beam="1">  1        2 0.11643535E+00 0.76753049E+03</pdfrwt>
<pdfrwt beam="2">  1       -2 0.29937790E-01 0.76753049E+03</pdfrwt>
<totfact> 0.38342564E+02</totfact>
</mgrwt>
</event>
<event>
 6    1  0.7374560E-004  0.3437814E+04  0.7818608E-02  0.8128687E-01
         -2   -1    0    0    0  501 -0.00000000000E+00  0.00000000000E+00  0.13630012071E+04  0.13630012071E+04  0.00000000000E+00 0. -1.
          2   -1    0    0  501    0  0.00000000000E+00 -0.00000000000E+00 -0.21677471221E+04  0.21677471221E+04  0.00000000000E+00 0.  1.
         23    2    1    2    0    0  0.31740953389E+03 -0.81445792535E+03 -0.19213547295E+04  0.21126842372E+04  0.87978209524E+02 0.  0.
         11    1    3    3    0    0  0.12302412347E+03 -0.34051783532E+03 -0.69528691741E+03  0.78390766590E+03  0.00000000000E+00 0. -1.
        -11    1    3    3    0    0  0.19438541043E+03 -0.47394009003E+03 -0.12260678121E+04  0.13287765713E+04  0.00000000000E+00 0.  1.
         22    1    1    2    0    0 -0.31740953389E+03  0.81445792535E+03  0.11166088145E+04  0.14180640920E+04  0.00000000000E+00 0. -1.
<mgrwt>
<rscale>  0 0.34378144E+04</rscale>
<asrwt>0</asrwt>
<pdfrwt beam="1">  1        2 0.33349955E+00 0.34378144E+04</pdfrwt>
<pdfrwt beam="2">  1       -2 0.20969250E+00 0.34378144E+04</pdfrwt>
<totfact> 0.51152293E-01</totfact>
</mgrwt>
</event>
<event>
 6    1  0.5040916E-004  0.7515382E+04  0.7818608E-02  0.7526500E-01
          2   -1    0    0  501    0  0.00000000000E+00  0.00000000000E+00  0.41023697768E+04  0.41023697768E+04  0.00000000000E+00 0.  1.
         -2   -1    0    0    0  501 -0.00000000000E+00 -0.00000000000E+00 -0.34419722342E+04  0.34419722342E+04  0.00000000000E+00 0. -1.
         23    2    1    2    0    0 -0.11967181254E+04 -0.33690079399E+04 -0.82906910571E+03  0.36712476838E+04  0.91406797622E+02 0.  0.
         13    1    3    3    0    0 -0.70602974080E+03 -0.21194909319E+04 -0.51454850004E+03  0.22924833619E+04  0.00000000000E+00 0.  1.
        -13    1    3    3    0    0 -0.49068838458E+03 -0.12495170080E+04 -0.31452060567E+03  0.13787643219E+04  0.00000000000E+00 0. -1.
         22    1    1    2    0    0  0.11967181254E+04  0.33690079399E+04  0.14894666483E+04  0.38730943272E+04  0.00000000000E+00 0.  1.
<mgrwt>
<rscale>  0 0.75153823E+04</rscale>
<asrwt>0</asrwt>
<pdfrwt beam="1">  1        2 0.63113381E+00 0.75153823E+04</pdfrwt>
<pdfrwt beam="2">  1       -2 0.52953419E+00 0.75153823E+04</pdfrwt>
<totfact> 0.18911515E-04</totfact>
</mgrwt>
</event>
<event>
 6    1  0.5040916E-004  0.1954055E+04  0.7818608E-02  0.8628408E-01
         -2   -1    0    0    0  501 -0.00000000000E+00  0.00000000000E+00  0.44626124574E+03  0.44626124574E+03  0.00000000000E+00 0. -1.
          2   -1    0    0  501    0  0.00000000000E+00 -0.00000000000E+00 -0.21390668488E+04  0.21390668488E+04  0.00000000000E+00 0.  1.
         23    2    1    2    0    0 -0.86542778024E+02  0.63747863936E+03  0.12115165639E+03  0.66066978534E+03  0.89096427253E+02 0.  0.
         13    1    3    3    0    0 -0.77893554864E+02  0.37344630299E+03  0.36315573254E+02  0.38320799570E+03  0.00000000000E+00 0.  1.
        -13    1    3    3    0    0 -0.86492231605E+01  0.26403233637E+03  0.84836083139E+02  0.27746178964E+03  0.00000000000E+00 0. -1.
         22    1    1    2    0    0  0.86542778024E+02 -0.63747863936E+03 -0.18139572595E+04  0.19246583092E+04  0.00000000000E+00 0.  1.
<mgrwt>
<rscale>  0 0.19540549E+04</rscale>
<asrwt>0</asrwt>
<pdfrwt beam="1">  1        2 0.32908720E+00 0.19540549E+04</pdfrwt>
<pdfrwt beam="2">  1       -2 0.68655578E-01 0.19540549E+04</pdfrwt>
<totfact> 0.10104053E+01</totfact>
</mgrwt>
</event>
<event>
 6    1  0.5040916E-004  0.6031580E+04  0.7818608E-02  0.7686499E-01
          2   -1    0    0  501    0  0.00000000000E+00  0.00000000000E+00  0.31988098458E+04  0.31988098458E+04  0.00000000000E+00 0.  1.
         -2   -1    0    0    0  501 -0.00000000000E+00 -0.00000000000E+00 -0.28432420303E+04  0.28432420303E+04  0.00000000000E+00 0. -1.
         23    2    1    2    0    0 -0.18815102539E+03 -0.85391848744E+03  0.30683698370E+04  0.31918111144E+04  0.90482828869E+02 0.  0.
         13    1    3    3    0    0 -0.14014121446E+03 -0.72051958837E+03  0.26656268583E+04  0.27648425968E+04  0.00000000000E+00 0. -1.
        -13    1    3    3    0    0 -0.48009810929E+02 -0.13339889908E+03  0.40274297867E+03  0.42696851768E+03  0.00000000000E+00 0.  1.
         22    1    1    2    0    0  0.18815102539E+03  0.85391848744E+03 -0.27128020215E+04  0.28502407617E+04  0.00000000000E+00 0. -1.
<mgrwt>
<rscale>  0 0.60315804E+04</rscale>
<asrwt>0</asrwt>
<pdfrwt beam="1">  1        2 0.49212460E+00 0.60315804E+04</pdfrwt>
<pdfrwt beam="2">  1       -2 0.43742185E+00 0.60315804E+04</pdfrwt>
<totfact> 0.36774747E-03</totfact>
</mgrwt>
</event>
<event>
 6    1  0.5040916E-004  0.2423831E+04  0.7818608E-02  0.8430635E-01
          2   -1    0    0  501    0  0.00000000000E+00  0.00000000000E+00  0.66888423868E+03  0.66888423868E+03  0.00000000000E+00 0.  1.
         -2   -1    0    0    0  501 -0.00000000000E+00 -0.00000000000E+00 -0.21958056225E+04  0.21958056225E+04  0.00000000000E+00 0. -1.
         23    2    1    2    0    0  0.11968169484E+03 -0.12040142436E+04 -0.74660737620E+03  0.14249454542E+04  0.95252119515E+02 0.  0.
         13    1    3    3    0    0  0.18901542344E+02 -0.64392595971E+03 -0.37803003215E+03  0.74693012733E+03  0.00000000000E+00 0. -1.
        -13    1    3    3    0    0  0.10078015249E+03 -0.56008828392E+03 -0.36857734405E+03  0.67801532687E+03  0.00000000000E+00 0.  1.
         22    1    1    2    0    0 -0.11968169484E+03  0.12040142436E+04 -0.78031400763E+03  0.14397444070E+04  0.00000000000E+00 0.  1.
<mgrwt>
<rscale>  0 0.24238315E+04</rscale>
<asrwt>0</asrwt>
<pdfrwt beam="1">  1        2 0.10290527E+00 0.24238315E+04</pdfrwt>
<pdfrwt beam="2">  1       -2 0.33781625E+00 0.24238315E+04</pdfrwt>
<totfact> 0.72298337E-01</totfact>
</mgrwt>
</event>
<event>
 6    1  0.5040916E-004  0.1778347E+04  0.7818608E-02  0.8717900E-01
          2   -1    0    0  501    0  0.00000000000E+00  0.00000000000E+00  0.15520093983E+04  0.15520093983E+04  0.00000000000E+00 0.  1.
         -2   -1    0    0    0  501 -0.00000000000E+00 -0.00000000000E+00 -0.50942289596E+03  0.50942289596E+03  0.00000000000E+00 0. -1.
         23    2    1    2    0    0 -0.62208746803E+03  0.42659487486E+03  0.10633481696E+04  0.13068416424E+04  0.90275929538E+02 0.  0.
         13    1    3    3    0    0 -0.48622647766E+03  0.30063359064E+03  0.84900728616E+03  0.10235282680E+04  0.00000000000E+00 0. -1.
        -13    1    3    3    0    0 -0.13586099037E+03  0.12596128421E+03  0.21434088339E+03  0.28331337441E+03  0.00000000000E+00 0.  1.
         22    1    1    2    0    0  0.62208746803E+03 -0.42659487486E+03 -0.20761667163E+02  0.75459065191E+03  0.00000000000E+00 0. -1.
<mgrwt>
<rscale>  0 0.17783466E+04</rscale>
<asrwt>0</asrwt>
<pdfrwt beam="1">  1        2 0.23877067E+00 0.17783466E+04</pdfrwt>
<pdfrwt beam="2">  1       -2 0.78372754E-01 0.17783466E+04</pdfrwt>
<totfact> 0.16242658E+01</totfact>
</mgrwt>
</event>
<event>
 6    1  0.5040916E-004  0.1698336E+04  0.7818608E-02  0.8762314E-01
          2   -1    0    0  501    0  0.00000000000E+00  0.00000000000E+00  0.15808388236E+04  0.15808388236E+04  0.00000000000E+00 0.  1.
         -2   -1    0    0    0  501 -0.00000000000E+00 -0.00000000000E+00 -0.45614167777E+03  0.45614167777E+03  0.00000000000E+00 0. -1.
         23    2    1    2    0    0  0.39133898843E+03  0.70643439401E+03  0.86914699619E+03  0.11899258184E+04  0.91165758399E+02 0.  0.
         11    1    3    3    0    0  0.18794223273E+03  0.28786502152E+03  0.31485296067E+03  0.46617694098E+03  0.00000000000E+00 0. -1.
        -11    1    3    3    0    0  0.20339675570E+03  0.41856937249E+03  0.55429403552E+03  0.72374887746E+03  0.00000000000E+00 0.  1.
         22    1    1    2    0    0 -0.39133898843E+03 -0.70643439401E+03  0.25555014966E+03  0.84705468294E+03  0.00000000000E+00 0. -1.
<mgrwt>
<rscale>  0 0.16983362E+04</rscale>
<asrwt>0</asrwt>
<pdfrwt beam="1">  1        2 0.24320597E+00 0.16983362E+04</pdfrwt>
<pdfrwt beam="2">  1       -2 0.70175644E-01 0.16983362E+04</pdfrwt>
<totfact> 0.20110266E+01</totfact>
</mgrwt>
</event>
<event>
 6    1  0.5040916E-004  0.1518158E+04  0.7818608E-02  0.8872467E-01
          2   -1    0    0  501    0  0.00000000000E+00  0.00000000000E+00  0.88446353204E+03  0.88446353204E+03  0.00000000000E+00 0.  1.
         -2   -1    0    0    0  501 -0.00000000000E+00 -0.00000000000E+00 -0.65146924284E+03  0.65146924284E+03  0.00000000000E+00 0. -1.
         23    2    1    2    0    0  0.98929406189E+02 -0.75056092025E+03  0.11518272914E+03  0.76976811496E+03  0.78403873007E+02 0.  0.
         13    1    3    3    0    0  0.24323720636E+02 -0.27390962942E+03  0.78238664108E+02  0.28590106162E+03  0.00000000000E+00 0. -1.
        -13    1    3    3    0    0  0.74605685554E+02 -0.47665129083E+03  0.36944065034E+02  0.48386705334E+03  0.00000000000E+00 0.  1.
         22    1    1    2    0    0 -0.98929406189E+02  0.75056092025E+03  0.11781156005E+03  0.76616465992E+03  0.00000000000E+00 0.  1.
<mgrwt>
<rscale>  0 0.15181578E+04</rscale>
<asrwt>0</asrwt>
<pdfrwt beam="1">  1        2 0.13607131E+00 0.15181578E+04</pdfrwt>
<pdfrwt beam="2">  1       -2 0.10022604E+00 0.15181578E+04</pdfrwt>
<totfact> 0.23822399E+01</totfact>
</mgrwt>
</event>
<event>
 6    1  0.5040916E-004  0.1660317E+04  0.7818608E-02  0.8784327E-01
          2   -1    0    0  501    0  0.00000000000E+00  0.00000000000E+00  0.46701735848E+03  0.46701735848E+03  0.00000000000E+00 0.  1.
         -2   -1    0    0    0  501 -0.00000000000E+00 -0.00000000000E+00 -0.14756687574E+04  0.14756687574E+04  0.00000000000E+00 0. -1.
         23    2    1    2    0    0  0.53821774183E+03 -0.22448477088E+03 -0.11929813785E+04  0.13310904231E+04  0.92333066099E+02 0.  0.
         13    1    3    3    0    0  0.43951707223E+03 -0.16107244521E+03 -0.87833269302E+03  0.99528282865E+03  0.00000000000E+00 0. -1.
        -13    1    3    3    0    0  0.98700669601E+02 -0.63412325668E+02 -0.31464868547E+03  0.33580759445E+03  0.00000000000E+00 0.  1.
         22    1    1    2    0    0 -0.53821774183E+03  0.22448477088E+03  0.18432997962E+03  0.61159569273E+03  0.00000000000E+00 0.  1.
<mgrwt>
<rscale>  0 0.16603167E+04</rscale>
<asrwt>0</asrwt>
<pdfrwt beam="1">  1        2 0.71848825E-01 0.16603167E+04</pdfrwt>
<pdfrwt beam="2">  1       -2 0.22702596E+00 0.16603167E+04</pdfrwt>
<totfact> 0.56741919E+00</totfact>
</mgrwt>
</event>
<event>
 6    1  0.5040916E-004  0.2735292E+04  0.7818608E-02  0.8323644E-01
          2   -1    0    0  501    0  0.00000000000E+00  0.00000000000E+00  0.22962294354E+04  0.22962294354E+04  0.00000000000E+00 0.  1.
         -2   -1    0    0    0  501 -0.00000000000E+00 -0.00000000000E+00 -0.81457715081E+03  0.81457715081E+03  0.00000000000E+00 0. -1.
         23    2    1    2    0    0 -0.17151133107E+03 -0.10404675016E+04  0.17299484345E+04  0.20274600412E+04  0.76706415299E+02 0.  0.
         13    1    3    3    0    0 -0.40951135168E+02 -0.11691309868E+03  0.18025853992E+03  0.21872084796E+03  0.00000000000E+00 0.  1.
        -13    1    3    3    0    0 -0.13056019590E+03 -0.92355440290E+03  0.15496898946E+04  0.18087391932E+04  0.00000000000E+00 0. -1.
         22    1    1    2    0    0  0.17151133107E+03  0.10404675016E+04 -0.24829614989E+03  0.10833465450E+04  0.00000000000E+00 0. -1.
<mgrwt>
<rscale>  0 0.27352923E+04</rscale>
<asrwt>0</asrwt>
<pdfrwt beam="1">  1        2 0.35326606E+00 0.27352923E+04</pdfrwt>
<pdfrwt beam="2">  1       -2 0.12531956E+00 0.27352923E+04</pdfrwt>
<totfact> 0.18984957E+00</totfact>
</mgrwt>
</event>
<event>
 6    1  0.5040916E-004  0.1663874E+04  0.7818608E-02  0.8782241E-01
          2   -1    0    0  501    0  0.00000000000E+00  0.00000000000E+00  0.60789217100E+03  0.60789217100E+03  0.00000000000E+00 0.  1.
         -2   -1    0    0    0  501 -0.00000000000E+00 -0.00000000000E+00 -0.11385556374E+04  0.11385556374E+04  0.00000000000E+00 0. -1.
         23    2    1    2    0    0  0.74294827136E+03 -0.26609190299E+03 -0.53408226338E+03  0.95727816698E+03  0.91436262925E+02 0.  0.
         11    1    3    3    0    0  0.40143382500E+03 -0.15187468989E+03 -0.23601075198E+03  0.48981232358E+03  0.00000000000E+00 0.  1.
        -11    1    3    3    0    0  0.34151444636E+03 -0.11421721310E+03 -0.29807151140E+03  0.46746584341E+03  0.00000000000E+00 0. -1.
         22    1    1    2    0    0 -0.74294827136E+03  0.26609190299E+03  0.34187969838E+01  0.78916964141E+03  0.00000000000E+00 0.  1.
<mgrwt>
<rscale>  0 0.16638739E+04</rscale>
<asrwt>0</asrwt>
<pdfrwt beam="1">  1        2 0.93521874E-01 0.16638739E+04</pdfrwt>
<pdfrwt beam="2">  1       -2 0.17516240E+00 0.16638739E+04</pdfrwt>
<totfact> 0.91200333E+00</totfact>
</mgrwt>
</event>
<event>
 6    1  0.5040916E-004  0.1512218E+04  0.7818608E-02  0.8876369E-01
          2   -1    0    0  501    0  0.00000000000E+00  0.00000000000E+00  0.15738203117E+04  0.15738203117E+04  0.00000000000E+00 0.  1.
         -2   -1    0    0    0  501 -0.00000000000E+00 -0.00000000000E+00 -0.36325667476E+03  0.36325667476E+03  0.00000000000E+00 0. -1.
         23    2    1    2    0    0  0.18653064670E+03 -0.66627676641E+03  0.22415083780E+03  0.73219997118E+03  0.84585980514E+02 0.  0.
         13    1    3    3    0    0  0.10802749752E+03 -0.48181424581E+03  0.18877021826E+03  0.52862945717E+03  0.00000000000E+00 0. -1.
        -13    1    3    3    0    0  0.78503149177E+02 -0.18446252060E+03  0.35380619541E+02  0.20357051402E+03  0.00000000000E+00 0.  1.
         22    1    1    2    0    0 -0.18653064670E+03  0.66627676641E+03  0.98641279914E+03  0.12048770153E+04  0.00000000000E+00 0.  1.
<mgrwt>
<rscale>  0 0.15122179E+04</rscale>
<asrwt>0</asrwt>
<pdfrwt beam="1">  1        2 0.24212620E+00 0.15122179E+04</pdfrwt>
<pdfrwt beam="2">  1       -2 0.55885643E-01 0.15122179E+04</pdfrwt>
<totfact> 0.33479115E+01</totfact>
</mgrwt>
</event>
<event>
 6    1  0.5040916E-004  0.7558504E+03  0.7818608E-02  0.9626216E-01
          2   -1    0    0  501    0  0.00000000000E+00  0.00000000000E+00  0.28177405497E+03  0.28177405497E+03  0.00000000000E+00 0.  1.
         -2   -1    0    0    0  501 -0.00000000000E+00 -0.00000000000E+00 -0.50688652741E+03  0.50688652741E+03  0.00000000000E+00 0. -1.
         23    2    1    2    0    0 -0.33962948173E+03  0.14025529463E+03 -0.50759069191E+02  0.38194343036E+03  0.91019604258E+02 0.  0.
         11    1    3    3    0    0 -0.36262743302E+02  0.13267807996E+02 -0.35917608315E+02  0.52736096441E+02  0.00000000000E+00 0. -1.
        -11    1    3    3    0    0 -0.30336673842E+03  0.12698748663E+03 -0.14841460877E+02  0.32920733391E+03  0.00000000000E+00 0.  1.
         22    1    1    2    0    0  0.33962948173E+03 -0.14025529463E+03 -0.17435340325E+03  0.40671715203E+03  0.00000000000E+00 0.  1.
<mgrwt>
<rscale>  0 0.75585044E+03</rscale>
<asrwt>0</asrwt>
<pdfrwt beam="1">  1        2 0.43349855E-01 0.75585044E+03</pdfrwt>
<pdfrwt beam="2">  1       -2 0.77982542E-01 0.75585044E+03</pdfrwt>
<totfact> 0.17388042E+02</totfact>
</mgrwt>
</event>
<event>
 6    1  0.5040916E-004  0.3138392E+04  0.7818608E-02  0.8205280E-01
          4   -1    0    0  501    0  0.00000000000E+00  0.00000000000E+00  0.67560120047E+03  0.67560120047E+03  0.00000000000E+00 0.  1.
         -4   -1    0    0    0  501 -0.00000000000E+00 -0.00000000000E+00 -0.36447175671E+04  0.36447175671E+04  0.00000000000E+00 0. -1.
         23    2    1    2    0    0  0.67535067166E+03  0.54083560803E+03  0.31452253344E+03  0.92460292100E+03  0.85816390405E+02 0.  0.
         11    1    3    3    0    0  0.54454888190E+03  0.47348653497E+03  0.27529321997E+03  0.77234017152E+03  0.00000000000E+00 0. -1.
        -11    1    3    3    0    0  0.13080178976E+03  0.67349073061E+02  0.39229313472E+02  0.15226274949E+03  0.00000000000E+00 0.  1.
         22    1    1    2    0    0 -0.67535067166E+03 -0.54083560803E+03 -0.32836389001E+04  0.33957158466E+04  0.00000000000E+00 0. -1.
<mgrwt>
<rscale>  0 0.31383917E+04</rscale>
<asrwt>0</asrwt>
<pdfrwt beam="1">  1        4 0.10393865E+00 0.31383917E+04</pdfrwt>
<pdfrwt beam="2">  1       -4 0.56072578E+00 0.31383917E+04</pdfrwt>
<totfact> 0.47160478E-04</totfact>
</mgrwt>
</event>
<event>
 6    1  0.5040916E-004  0.1996826E+04  0.7818608E-02  0.8608106E-01
         -2   -1    0    0    0  501 -0.00000000000E+00  0.00000000000E+00  0.27728239279E+03  0.27728239279E+03  0.00000000000E+00 0. -1.
          2   -1    0    0  501    0  0.00000000000E+00 -0.00000000000E+00 -0.35949930569E+04  0.35949930569E+04  0.00000000000E+00 0.  1.
         23    2    1    2    0    0 -0.52982468023E+03 -0.58774512255E+03 -0.28366480067E+04  0.29462194032E+04  0.86477378661E+02 0.  0.
         13    1    3    3    0    0 -0.24992437789E+03 -0.31870210279E+03 -0.15707651844E+04  0.16221394791E+04  0.00000000000E+00 0. -1.
        -13    1    3    3    0    0 -0.27990030234E+03 -0.26904301976E+03 -0.12658828223E+04  0.13240799242E+04  0.00000000000E+00 0.  1.
         22    1    1    2    0    0  0.52982468023E+03  0.58774512255E+03 -0.48106265737E+03  0.92605604646E+03  0.00000000000E+00 0. -1.
<mgrwt>
<rscale>  0 0.19968258E+04</rscale>
<asrwt>0</asrwt>
<pdfrwt beam="1">  1        2 0.55307582E+00 0.19968258E+04</pdfrwt>
<pdfrwt beam="2">  1       -2 0.42658832E-01 0.19968258E+04</pdfrwt>
<totfact> 0.33919948E+00</totfact>
</mgrwt>
</event>
<event>
 6    1  0.5040916E-004  0.7867246E+03  0.7818608E-02  0.9579434E-01
         -2   -1    0    0    0  501 -0.00000000000E+00  0.00000000000E+00  0.63589902542E+03  0.63589902542E+03  0.00000000000E+00 0. -1.
          2   -1    0    0  501    0  0.00000000000E+00 -0.00000000000E+00 -0.24333093654E+03  0.24333093654E+03  0.00000000000E+00 0.  1.
         23    2    1    2    0    0  0.14895568271E+02  0.36116220392E+03  0.41796999386E+02  0.37554318159E+03  0.92874520672E+02 0.  0.
         11    1    3    3    0    0  0.46060969025E+02  0.24388047161E+03  0.52622620067E+02  0.25370935624E+03  0.00000000000E+00 0. -1.
        -11    1    3    3    0    0 -0.31165400754E+02  0.11728173231E+03 -0.10825620681E+02  0.12183382535E+03  0.00000000000E+00 0.  1.
         22    1    1    2    0    0 -0.14895568271E+02 -0.36116220392E+03  0.35077108949E+03  0.50368678037E+03  0.00000000000E+00 0. -1.
<mgrwt>
<rscale>  0 0.78672462E+03</rscale>
<asrwt>0</asrwt>
<pdfrwt beam="1">  1        2 0.37435529E-01 0.78672462E+03</pdfrwt>
<pdfrwt beam="2">  1       -2 0.97830619E-01 0.78672462E+03</pdfrwt>
<totfact> 0.12159851E+02</totfact>
</mgrwt>
</event>
<event>
 6    1  0.5040916E-004  0.2081534E+04  0.7818608E-02  0.8569422E-01
          1   -1    0    0  501    0  0.00000000000E+00  0.00000000000E+00  0.42387415020E+04  0.42387415020E+04  0.00000000000E+00 0.  1.
         -1   -1    0    0    0  501 -0.00000000000E+00 -0.00000000000E+00 -0.25554664128E+03  0.25554664128E+03  0.00000000000E+00 0. -1.
         23    2    1    2    0    0 -0.41762067676E+03 -0.49809224066E+02  0.40462175744E+04  0.40690119378E+04  0.89963895658E+02 0.  0.
         13    1    3    3    0    0 -0.34148467569E+03 -0.17576216131E+02  0.34853990034E+04  0.35021317679E+04  0.00000000000E+00 0.  1.
        -13    1    3    3    0    0 -0.76136001076E+02 -0.32233007935E+02  0.56081857096E+03  0.56688016987E+03  0.00000000000E+00 0. -1.
         22    1    1    2    0    0  0.41762067676E+03  0.49809224066E+02 -0.63022713691E+02  0.42527620543E+03  0.00000000000E+00 0. -1.
<mgrwt>
<rscale>  0 0.20815342E+04</rscale>
<asrwt>0</asrwt>
<pdfrwt beam="1">  1        1 0.65211402E+00 0.20815342E+04</pdfrwt>
<pdfrwt beam="2">  1       -1 0.39314871E-01 0.20815342E+04</pdfrwt>
<totfact> 0.34004688E-01</totfact>
</mgrwt>
</event>
<event>
 6    1  0.5040916E-004  0.1200894E+04  0.7818608E-02  0.9112075E-01
          2   -1    0    0  501    0  0.00000000000E+00  0.00000000000E+00  0.12345913639E+04  0.12345913639E+04  0.00000000000E+00 0.  1.
         -2   -1    0    0    0  501 -0.00000000000E+00 -0.00000000000E+00 -0.29202887533E+03  0.29202887533E+03  0.00000000000E+00 0. -1.
         23    2    1    2    0    0  0.50632644777E+03 -0.80265730307E+02  0.84325658508E+02  0.52693052954E+03  0.87954005603E+02 0.  0.
         13    1    3    3    0    0  0.41134910769E+03 -0.65894256742E+02  0.10285113660E+03  0.42910196664E+03  0.00000000000E+00 0. -1.
        -13    1    3    3    0    0  0.94977340078E+02 -0.14371473565E+02 -0.18525478092E+02  0.97828562901E+02  0.00000000000E+00 0.  1.
         22    1    1    2    0    0 -0.50632644777E+03  0.80265730307E+02  0.85823683002E+03  0.99968970965E+03  0.00000000000E+00 0.  1.
<mgrwt>
<rscale>  0 0.12008935E+04</rscale>
<asrwt>0</asrwt>
<pdfrwt beam="1">  1        2 0.18993713E+00 0.12008935E+04</pdfrwt>
<pdfrwt beam="2">  1       -2 0.44927520E-01 0.12008935E+04</pdfrwt>
<totfact> 0.83696665E+01</totfact>
</mgrwt>
</event>
<event>
 6    1  0.5040916E-004  0.2328013E+04  0.7818608E-02  0.8466957E-01
          2   -1    0    0  501    0  0.00000000000E+00  0.00000000000E+00  0.29738561858E+04  0.29738561858E+04  0.00000000000E+00 0.  1.
         -2   -1    0    0    0  501 -0.00000000000E+00 -0.00000000000E+00 -0.45560752414E+03  0.45560752414E+03  0.00000000000E+00 0. -1.
         23    2    1    2    0    0 -0.43724409026E+03  0.10105052086E+04  0.71284641615E+03  0.13148052412E+04  0.90882551782E+02 0.  0.
         13    1    3    3    0    0 -0.30100849687E+03  0.59486849604E+03  0.45335234227E+03  0.80622762854E+03  0.00000000000E+00 0. -1.
        -13    1    3    3    0    0 -0.13623559338E+03  0.41563671260E+03  0.25949407388E+03  0.50857761270E+03  0.00000000000E+00 0.  1.
         22    1    1    2    0    0  0.43724409026E+03 -0.10105052086E+04  0.18054022455E+04  0.21146584687E+04  0.00000000000E+00 0.  1.
<mgrwt>
<rscale>  0 0.23280131E+04</rscale>
<asrwt>0</asrwt>
<pdfrwt beam="1">  1        2 0.45751632E+00 0.23280131E+04</pdfrwt>
<pdfrwt beam="2">  1       -2 0.70093467E-01 0.23280131E+04</pdfrwt>
<totfact> 0.30331941E+00</totfact>
</mgrwt>
</event>
<event>
 6    1  0.5040916E-004  0.1253202E+04  0.7818608E-02  0.9067522E-01
         -2   -1    0    0    0  501 -0.00000000000E+00  0.00000000000E+00  0.11827488810E+03  0.11827488810E+03  0.00000000000E+00 0. -1.
          2   -1    0    0  501    0  0.00000000000E+00 -0.00000000000E+00 -0.33196313999E+04  0.33196313999E+04  0.00000000000E+00 0.  1.
         23    2    1    2    0    0  0.21329500340E+02 -0.37915029238E+03 -0.29649921572E+04  0.29906054944E+04  0.91284386868E+02 0.  0.
         13    1    3    3    0    0  0.40173161206E+01 -0.26455021415E+03 -0.17200700168E+04  0.17402999217E+04  0.00000000000E+00 0.  1.
        -13    1    3    3    0    0  0.17312184219E+02 -0.11460007823E+03 -0.12449221404E+04  0.12503055727E+04  0.00000000000E+00 0. -1.
         22    1    1    2    0    0 -0.21329500340E+02  0.37915029238E+03 -0.23636435460E+03  0.44730079356E+03  0.00000000000E+00 0. -1.
<mgrwt>
<rscale>  0 0.12532023E+04</rscale>
<asrwt>0</asrwt>
<pdfrwt beam="1">  1        2 0.51071255E+00 0.12532023E+04</pdfrwt>
<pdfrwt beam="2">  1       -2 0.18196136E-01 0.12532023E+04</pdfrwt>
<totfact> 0.27304764E+01</totfact>
</mgrwt>
</event>
<event>
 6    1  0.5040916E-004  0.2762034E+04  0.7818608E-02  0.8315153E-01
         -2   -1    0    0    0  501 -0.00000000000E+00  0.00000000000E+00  0.92712019889E+03  0.92712019889E+03  0.00000000000E+00 0. -1.
          2   -1    0    0  501    0  0.00000000000E+00 -0.00000000000E+00 -0.20571311155E+04  0.20571311155E+04  0.00000000000E+00 0.  1.
         23    2    1    2    0    0  0.31985013002E+03  0.12798230466E+04 -0.10016408750E+04  0.16588343973E+04  0.90531645814E+02 0.  0.
         13    1    3    3    0    0  0.14228968875E+03  0.66537268266E+03 -0.56492420946E+03  0.88436786735E+03  0.00000000000E+00 0. -1.
        -13    1    3    3    0    0  0.17756044127E+03  0.61445036399E+03 -0.43671666549E+03  0.77446652996E+03  0.00000000000E+00 0.  1.
         22    1    1    2    0    0 -0.31985013002E+03 -0.12798230466E+04 -0.12837004162E+03  0.13254169170E+04  0.00000000000E+00 0. -1.
<mgrwt>
<rscale>  0 0.27620339E+04</rscale>
<asrwt>0</asrwt>
<pdfrwt beam="1">  1        2 0.31648171E+00 0.27620339E+04</pdfrwt>
<pdfrwt beam="2">  1       -2 0.14263388E+00 0.27620339E+04</pdfrwt>
<totfact> 0.18541929E+00</totfact>
</mgrwt>
</event>
<event>
 6    1  0.5040916E-004  0.4034738E+04  0.7818608E-02  0.7997575E-01
         -2   -1    0    0    0  501 -0.00000000000E+00  0.00000000000E+00  0.10675122131E+04  0.10675122131E+04  0.00000000000E+00 0. -1.
          2   -1    0    0  501    0  0.00000000000E+00 -0.00000000000E+00 -0.38123941742E+04  0.38123941742E+04  0.00000000000E+00 0.  1.
         23    2    1    2    0    0  0.67126111353E+03  0.75407321159E+03  0.73781652483E+03  0.12538332172E+04  0.92231346344E+02 0.  0.
         11    1    3    3    0    0  0.40253845984E+03  0.51844012365E+03  0.47835718826E+03  0.81218407582E+03  0.00000000000E+00 0.  1.
        -11    1    3    3    0    0  0.26872265369E+03  0.23563308793E+03  0.25945933657E+03  0.44164914137E+03  0.00000000000E+00 0. -1.
         22    1    1    2    0    0 -0.67126111353E+03 -0.75407321159E+03 -0.34826984859E+04  0.36260731701E+04  0.00000000000E+00 0.  1.
<mgrwt>
<rscale>  0 0.40347378E+04</rscale>
<asrwt>0</asrwt>
<pdfrwt beam="1">  1        2 0.58652217E+00 0.40347378E+04</pdfrwt>
<pdfrwt beam="2">  1       -2 0.16423265E+00 0.40347378E+04</pdfrwt>
<totfact> 0.88395045E-02</totfact>
</mgrwt>
</event>
<event>
 6    1  0.5040916E-004  0.3590910E+04  0.7818608E-02  0.8092577E-01
          2   -1    0    0  501    0  0.00000000000E+00  0.00000000000E+00  0.39226597339E+04  0.39226597339E+04  0.00000000000E+00 0.  1.
         -2   -1    0    0    0  501 -0.00000000000E+00 -0.00000000000E+00 -0.82180431634E+03  0.82180431634E+03  0.00000000000E+00 0. -1.
         23    2    1    2    0    0 -0.14484617238E+04 -0.95511203589E+03  0.94751799134E+03  0.19791173383E+04  0.93993236440E+02 0.  0.
         13    1    3    3    0    0 -0.10146326758E+04 -0.62983063852E+03  0.68413879791E+03  0.13763037437E+04  0.00000000000E+00 0.  1.
        -13    1    3    3    0    0 -0.43382904792E+03 -0.32528139737E+03  0.26337919343E+03  0.60281359459E+03  0.00000000000E+00 0. -1.
         22    1    1    2    0    0  0.14484617238E+04  0.95511203589E+03  0.21533374263E+04  0.27653467120E+04  0.00000000000E+00 0.  1.
<mgrwt>
<rscale>  0 0.35909100E+04</rscale>
<asrwt>0</asrwt>
<pdfrwt beam="1">  1        2 0.60348610E+00 0.35909100E+04</pdfrwt>
<pdfrwt beam="2">  1       -2 0.12643144E+00 0.35909100E+04</pdfrwt>
<totfact> 0.14953156E-01</totfact>
</mgrwt>
</event>
<event>
 6    1  0.5040916E-004  0.3632055E+04  0.7818608E-02  0.8083188E-01
          2   -1    0    0  501    0  0.00000000000E+00  0.00000000000E+00  0.27000124047E+04  0.27000124047E+04  0.00000000000E+00 0.  1.
         -2   -1    0    0    0  501 -0.00000000000E+00 -0.00000000000E+00 -0.12214592277E+04  0.12214592277E+04  0.00000000000E+00 0. -1.
         23    2    1    2    0    0  0.64653310081E+03  0.97103790051E+03  0.22406992774E+04  0.25279916961E+04  0.95336817971E+02 0.  0.
         13    1    3    3    0    0  0.48587275242E+03  0.73887279318E+03  0.17822760453E+04  0.19896012760E+04  0.00000000000E+00 0. -1.
        -13    1    3    3    0    0  0.16066034838E+03  0.23216510734E+03  0.45842323217E+03  0.53839042005E+03  0.00000000000E+00 0.  1.
         22    1    1    2    0    0 -0.64653310081E+03 -0.97103790051E+03 -0.76214610037E+03  0.13934799363E+04  0.00000000000E+00 0. -1.
<mgrwt>
<rscale>  0 0.36320546E+04</rscale>
<asrwt>0</asrwt>
<pdfrwt beam="1">  1        2 0.41538652E+00 0.36320546E+04</pdfrwt>
<pdfrwt beam="2">  1       -2 0.18791680E+00 0.36320546E+04</pdfrwt>
<totfact> 0.34548485E-01</totfact>
</mgrwt>
</event>
<event>
 6    1  0.5040916E-004  0.1510940E+04  0.7818608E-02  0.8877211E-01
         -2   -1    0    0    0  501 -0.00000000000E+00  0.00000000000E+00  0.11589866697E+04  0.11589866697E+04  0.00000000000E+00 0.  1.
          2   -1    0    0  501    0  0.00000000000E+00 -0.00000000000E+00 -0.49244289471E+03  0.49244289471E+03  0.00000000000E+00 0. -1.
         23    2    1    2    0    0 -0.71542383774E+03  0.22054507297E+03  0.24521084982E+03  0.79236447334E+03  0.85098184052E+02 0.  0.
         13    1    3    3    0    0 -0.33580952487E+03  0.12850608274E+03  0.80583955528E+02  0.36847744054E+03  0.00000000000E+00 0. -1.
        -13    1    3    3    0    0 -0.37961431287E+03  0.92038990227E+02  0.16462689429E+03  0.42388703281E+03  0.00000000000E+00 0.  1.
         22    1    1    2    0    0  0.71542383774E+03 -0.22054507297E+03  0.42133292513E+03  0.85906509102E+03  0.00000000000E+00 0. -1.
<mgrwt>
<rscale>  0 0.15109398E+04</rscale>
<asrwt>0</asrwt>
<pdfrwt beam="1">  1        2 0.75760446E-01 0.15109398E+04</pdfrwt>
<pdfrwt beam="2">  1       -2 0.17830564E+00 0.15109398E+04</pdfrwt>
<totfact> 0.11261025E+01</totfact>
</mgrwt>
</event>
<event>
 6    1  0.5040916E-004  0.2702925E+04  0.7818608E-02  0.8334056E-01
          2   -1    0    0  501    0  0.00000000000E+00  0.00000000000E+00  0.73378952503E+03  0.73378952503E+03  0.00000000000E+00 0.  1.
         -2   -1    0    0    0  501 -0.00000000000E+00 -0.00000000000E+00 -0.24890673211E+04  0.24890673211E+04  0.00000000000E+00 0. -1.
         23    2    1    2    0    0 -0.11609002031E+04 -0.33962283346E+03 -0.15933873985E+04  0.20025120377E+04  0.90211466996E+02 0.  0.
         11    1    3    3    0    0 -0.66851636397E+03 -0.20366235393E+03 -0.99231844914E+03  0.12137085267E+04  0.00000000000E+00 0. -1.
        -11    1    3    3    0    0 -0.49238383914E+03 -0.13596047953E+03 -0.60106894938E+03  0.78880351099E+03  0.00000000000E+00 0.  1.
         22    1    1    2    0    0  0.11609002031E+04  0.33962283346E+03 -0.16189039752E+03  0.12203448084E+04  0.00000000000E+00 0.  1.
<mgrwt>
<rscale>  0 0.27029255E+04</rscale>
<asrwt>0</asrwt>
<pdfrwt beam="1">  1        2 0.11289070E+00 0.27029255E+04</pdfrwt>
<pdfrwt beam="2">  1       -2 0.38293343E+00 0.27029255E+04</pdfrwt>
<totfact> 0.32426503E-01</totfact>
</mgrwt>
</event>
<event>
 6    1  0.5040916E-004  0.1430394E+04  0.7818608E-02  0.8932107E-01
          2   -1    0    0  501    0  0.00000000000E+00  0.00000000000E+00  0.39797974415E+03  0.39797974415E+03  0.00000000000E+00 0.  1.
         -2   -1    0    0    0  501 -0.00000000000E+00 -0.00000000000E+00 -0.12852579493E+04  0.12852579493E+04  0.00000000000E+00 0. -1.
         23    2    1    2    0    0 -0.26174155504E+03  0.14976627172E+03 -0.12047336583E+04  0.12453832170E+04  0.93046181816E+02 0.  0.
         13    1    3    3    0    0 -0.10457069891E+03  0.10260901511E+02 -0.37390023870E+03  0.38838345185E+03  0.00000000000E+00 0. -1.
        -13    1    3    3    0    0 -0.15717085613E+03  0.13950537021E+03 -0.83083341964E+03  0.85699976518E+03  0.00000000000E+00 0.  1.
         22    1    1    2    0    0  0.26174155504E+03 -0.14976627172E+03  0.31745545318E+03  0.43785447643E+03  0.00000000000E+00 0.  1.
<mgrwt>
<rscale>  0 0.14303938E+04</rscale>
<asrwt>0</asrwt>
<pdfrwt beam="1">  1        2 0.61227654E-01 0.14303938E+04</pdfrwt>
<pdfrwt beam="2">  1       -2 0.19773199E+00 0.14303938E+04</pdfrwt>
<totfact> 0.10680783E+01</totfact>
</mgrwt>
</event>
<event>
 6    1  0.5040916E-004  0.2756749E+04  0.7818608E-02  0.8316823E-01
         -2   -1    0    0    0  501 -0.00000000000E+00  0.00000000000E+00  0.10725720619E+04  0.10725720619E+04  0.00000000000E+00 0. -1.
          2   -1    0    0  501    0  0.00000000000E+00 -0.00000000000E+00 -0.17713645271E+04  0.17713645271E+04  0.00000000000E+00 0.  1.
         23    2    1    2    0    0  0.84048667886E+03  0.43367533441E+03  0.68257651537E+03  0.11698181901E+04  0.89842894228E+02 0.  0.
         13    1    3    3    0    0  0.11969816017E+03  0.94095265040E+02  0.12974224629E+03  0.20003654397E+03  0.00000000000E+00 0.  1.
        -13    1    3    3    0    0  0.72078851870E+03  0.33958006937E+03  0.55283426908E+03  0.96978164618E+03  0.00000000000E+00 0. -1.
         22    1    1    2    0    0 -0.84048667886E+03 -0.43367533441E+03 -0.13813689806E+04  0.16741183989E+04  0.00000000000E+00 0.  1.
<mgrwt>
<rscale>  0 0.27567489E+04</rscale>
<asrwt>0</asrwt>
<pdfrwt beam="1">  1        2 0.27251762E+00 0.27567489E+04</pdfrwt>
<pdfrwt beam="2">  1       -2 0.16501109E+00 0.27567489E+04</pdfrwt>
<totfact> 0.18094851E+00</totfact>
</mgrwt>
</event>
<event>
 6    1  0.5040916E-004  0.3127627E+04  0.7818608E-02  0.8208197E-01
          2   -1    0    0  501    0  0.00000000000E+00  0.00000000000E+00  0.23331808592E+04  0.23331808592E+04  0.00000000000E+00 0.  1.
         -2   -1    0    0    0  501 -0.00000000000E+00 -0.00000000000E+00 -0.10481453386E+04  0.10481453386E+04  0.00000000000E+00 0. -1.
         23    2    1    2    0    0  0.44666052714E+03  0.14780120711E+04  0.90148396462E+03  0.17903714201E+04  0.93440754416E+02 0.  0.
         11    1    3    3    0    0  0.12540959436E+03  0.38282788604E+03  0.28220408954E+03  0.49185760626E+03  0.00000000000E+00 0.  1.
        -11    1    3    3    0    0  0.32125093278E+03  0.10951841850E+04  0.61927987508E+03  0.12985138138E+04  0.00000000000E+00 0. -1.
         22    1    1    2    0    0 -0.44666052714E+03 -0.14780120711E+04  0.38355155592E+03  0.15909547777E+04  0.00000000000E+00 0.  1.
<mgrwt>
<rscale>  0 0.31276270E+04</rscale>
<asrwt>0</asrwt>
<pdfrwt beam="1">  1        2 0.35895090E+00 0.31276270E+04</pdfrwt>
<pdfrwt beam="2">  1       -2 0.16125313E+00 0.31276270E+04</pdfrwt>
<totfact> 0.90664210E-01</totfact>
</mgrwt>
</event>
<event>
 6    1  0.5040916E-004  0.2017452E+04  0.7818608E-02  0.8598504E-01
          2   -1    0    0  501    0  0.00000000000E+00  0.00000000000E+00  0.95512187928E+03  0.95512187928E+03  0.00000000000E+00 0.  1.
         -2   -1    0    0    0  501 -0.00000000000E+00 -0.00000000000E+00 -0.10653389971E+04  0.10653389971E+04  0.00000000000E+00 0. -1.
         23    2    1    2    0    0  0.10152180077E+03 -0.63825698006E+03  0.71772454716E+03  0.97014375796E+03  0.91497196024E+02 0.  0.
         13    1    3    3    0    0  0.85147849498E+02 -0.51338066508E+03  0.51967440472E+03  0.73543956276E+03  0.00000000000E+00 0. -1.
        -13    1    3    3    0    0  0.16373951276E+02 -0.12487631499E+03  0.19805014243E+03  0.23470419520E+03  0.00000000000E+00 0.  1.
         22    1    1    2    0    0 -0.10152180077E+03  0.63825698006E+03 -0.82794166495E+03  0.10503171184E+04  0.00000000000E+00 0. -1.
<mgrwt>
<rscale>  0 0.20174524E+04</rscale>
<asrwt>0</asrwt>
<pdfrwt beam="1">  1        2 0.14694183E+00 0.20174524E+04</pdfrwt>
<pdfrwt beam="2">  1       -2 0.16389831E+00 0.20174524E+04</pdfrwt>
<totfact> 0.58928080E+00</totfact>
</mgrwt>
</event>
<event>
 6    1  0.5040916E-004  0.3680331E+04  0.7818608E-02  0.8072335E-01
          2   -1    0    0  501    0  0.00000000000E+00  0.00000000000E+00  0.21649610255E+04  0.21649610255E+04  0.00000000000E+00 0.  1.
         -2   -1    0    0    0  501 -0.00000000000E+00 -0.00000000000E+00 -0.15640969955E+04  0.15640969955E+04  0.00000000000E+00 0. -1.
         23    2    1    2    0    0  0.82930987993E+03  0.31337267764E+03 -0.13318981122E+04  0.16026698133E+04  0.92955027283E+02 0.  0.
         13    1    3    3    0    0  0.68951178131E+03  0.28600874141E+03 -0.11598322862E+04  0.13792891027E+04  0.00000000000E+00 0. -1.
        -13    1    3    3    0    0  0.13979809861E+03  0.27363936228E+02 -0.17206582601E+03  0.22338071059E+03  0.00000000000E+00 0.  1.
         22    1    1    2    0    0 -0.82930987993E+03 -0.31337267764E+03  0.19327621422E+04  0.21263882078E+04  0.00000000000E+00 0.  1.
<mgrwt>
<rscale>  0 0.36803310E+04</rscale>
<asrwt>0</asrwt>
<pdfrwt beam="1">  1        2 0.33307093E+00 0.36803310E+04</pdfrwt>
<pdfrwt beam="2">  1       -2 0.24063031E+00 0.36803310E+04</pdfrwt>
<totfact> 0.32121257E-01</totfact>
</mgrwt>
</event>
<event>
 6    1  0.5040916E-004  0.1391058E+04  0.7818608E-02  0.8960317E-01
         -2   -1    0    0    0  501 -0.00000000000E+00  0.00000000000E+00  0.50005686760E+03  0.50005686760E+03  0.00000000000E+00 0. -1.
          2   -1    0    0  501    0  0.00000000000E+00 -0.00000000000E+00 -0.96741123778E+03  0.96741123778E+03  0.00000000000E+00 0.  1.
         23    2    1    2    0    0 -0.29359069113E+03  0.30217059527E+03 -0.81446779023E+03  0.92158323753E+03  0.91952812904E+02 0.  0.
         11    1    3    3    0    0 -0.79958978904E+02  0.10972867805E+03 -0.34888675274E+03  0.37437386037E+03  0.00000000000E+00 0.  1.
        -11    1    3    3    0    0 -0.21363171223E+03  0.19244191722E+03 -0.46558103749E+03  0.54720937716E+03  0.00000000000E+00 0. -1.
         22    1    1    2    0    0  0.29359069113E+03 -0.30217059527E+03  0.34711342006E+03  0.54588486785E+03  0.00000000000E+00 0. -1.
<mgrwt>
<rscale>  0 0.13910581E+04</rscale>
<asrwt>0</asrwt>
<pdfrwt beam="1">  1        2 0.14883250E+00 0.13910581E+04</pdfrwt>
<pdfrwt beam="2">  1       -2 0.76931827E-01 0.13910581E+04</pdfrwt>
<totfact> 0.38874054E+01</totfact>
</mgrwt>
</event>
<event>
 6    1  0.5040916E-004  0.1711508E+04  0.7818608E-02  0.8754828E-01
         -2   -1    0    0    0  501 -0.00000000000E+00  0.00000000000E+00  0.52614098970E+03  0.52614098970E+03  0.00000000000E+00 0. -1.
          2   -1    0    0  501    0  0.00000000000E+00 -0.00000000000E+00 -0.13918607910E+04  0.13918607910E+04  0.00000000000E+00 0.  1.
         23    2    1    2    0    0  0.24431173357E+03  0.61247041553E+02 -0.13477460672E+04  0.13741371429E+04  0.91618789469E+02 0.  0.
         11    1    3    3    0    0  0.17301063208E+03  0.60695828470E+02 -0.11361803009E+04  0.11508789418E+04  0.00000000000E+00 0.  1.
        -11    1    3    3    0    0  0.71301101494E+02  0.55121308316E+00 -0.21156576622E+03  0.22325820107E+03  0.00000000000E+00 0. -1.
         22    1    1    2    0    0 -0.24431173357E+03 -0.61247041553E+02  0.48202626589E+03  0.54386463781E+03  0.00000000000E+00 0. -1.
<mgrwt>
<rscale>  0 0.17115081E+04</rscale>
<asrwt>0</asrwt>
<pdfrwt beam="1">  1        2 0.21413243E+00 0.17115081E+04</pdfrwt>
<pdfrwt beam="2">  1       -2 0.80944769E-01 0.17115081E+04</pdfrwt>
<totfact> 0.18720665E+01</totfact>
</mgrwt>
</event>
<event>
 6    1  0.5040916E-004  0.2253755E+04  0.7818608E-02  0.8496382E-01
         -2   -1    0    0    0  501 -0.00000000000E+00  0.00000000000E+00  0.88406929742E+03  0.88406929742E+03  0.00000000000E+00 0. -1.
          2   -1    0    0  501    0  0.00000000000E+00 -0.00000000000E+00 -0.14363719852E+04  0.14363719852E+04  0.00000000000E+00 0.  1.
         23    2    1    2    0    0  0.39643494199E+03  0.10353498676E+03 -0.13553728907E+04  0.14188860112E+04  0.91223259419E+02 0.  0.
         13    1    3    3    0    0  0.19290277471E+03  0.67348027603E+02 -0.81772756115E+03  0.84286748756E+03  0.00000000000E+00 0.  1.
        -13    1    3    3    0    0  0.20353216728E+03  0.36186959154E+02 -0.53764532960E+03  0.57601852363E+03  0.00000000000E+00 0. -1.
         22    1    1    2    0    0 -0.39643494199E+03 -0.10353498676E+03  0.80307020293E+03  0.90155527148E+03  0.00000000000E+00 0. -1.
<mgrwt>
<rscale>  0 0.22537545E+04</rscale>
<asrwt>0</asrwt>
<pdfrwt beam="1">  1        2 0.22098030E+00 0.22537545E+04</pdfrwt>
<pdfrwt beam="2">  1       -2 0.13601066E+00 0.22537545E+04</pdfrwt>
<totfact> 0.48596918E+00</totfact>
</mgrwt>
</event>
<event>
 6    1  0.5040916E-004  0.5942929E+04  0.7818608E-02  0.7697518E-01
          2   -1    0    0  501    0  0.00000000000E+00  0.00000000000E+00  0.23107065876E+04  0.23107065876E+04  0.00000000000E+00 0.  1.
         -2   -1    0    0    0  501 -0.00000000000E+00 -0.00000000000E+00 -0.38211698711E+04  0.38211698711E+04  0.00000000000E+00 0. -1.
         23    2    1    2    0    0  0.18254279647E+04 -0.14826186588E+04 -0.26283755458E+04  0.35280190954E+04  0.90638766815E+02 0.  0.
         13    1    3    3    0    0  0.11032513167E+04 -0.92872845501E+03 -0.15569362658E+04  0.21222041718E+04  0.00000000000E+00 0. -1.
        -13    1    3    3    0    0  0.72217664801E+03 -0.55389020384E+03 -0.10714392800E+04  0.14058149236E+04  0.00000000000E+00 0.  1.
         22    1    1    2    0    0 -0.18254279647E+04  0.14826186588E+04  0.11179122623E+04  0.26038573632E+04  0.00000000000E+00 0.  1.
<mgrwt>
<rscale>  0 0.59429294E+04</rscale>
<asrwt>0</asrwt>
<pdfrwt beam="1">  1        2 0.35549332E+00 0.59429294E+04</pdfrwt>
<pdfrwt beam="2">  1       -2 0.58787229E+00 0.59429294E+04</pdfrwt>
<totfact> 0.17536471E-03</totfact>
</mgrwt>
</event>
<event>
 6    1  0.6665729E-004  0.2731630E+04  0.7818608E-02  0.8324815E-01
         -2   -1    0    0    0  501 -0.00000000000E+00  0.00000000000E+00  0.11325863458E+04  0.11325863458E+04  0.00000000000E+00 0. -1.
          2   -1    0    0  501    0  0.00000000000E+00 -0.00000000000E+00 -0.16470710433E+04  0.16470710433E+04  0.00000000000E+00 0.  1.
         23    2    1    2    0    0 -0.34185883064E+03  0.52686610030E+03 -0.14899687707E+04  0.16194744188E+04  0.90747493575E+02 0.  0.
         11    1    3    3    0    0 -0.26426327267E+03  0.32984472879E+03 -0.97439699024E+03  0.10621121019E+04  0.00000000000E+00 0. -1.
        -11    1    3    3    0    0 -0.77595557977E+02  0.19702137151E+03 -0.51557178048E+03  0.55736231688E+03  0.00000000000E+00 0.  1.
         22    1    1    2    0    0  0.34185883064E+03 -0.52686610030E+03  0.97548407322E+03  0.11601829704E+04  0.00000000000E+00 0. -1.
<mgrwt>
<rscale>  0 0.27316297E+04</rscale>
<asrwt>0</asrwt>
<pdfrwt beam="1">  1        2 0.25339555E+00 0.27316297E+04</pdfrwt>
<pdfrwt beam="2">  1       -2 0.17424405E+00 0.27316297E+04</pdfrwt>
<totfact> 0.18271019E+00</totfact>
</mgrwt>
</event>
<event>
 6    1  0.5040916E-004  0.1130854E+04  0.7818608E-02  0.9175631E-01
          2   -1    0    0  501    0  0.00000000000E+00  0.00000000000E+00  0.89279990761E+03  0.89279990761E+03  0.00000000000E+00 0. -1.
         -2   -1    0    0    0  501 -0.00000000000E+00 -0.00000000000E+00 -0.35809531425E+03  0.35809531425E+03  0.00000000000E+00 0.  1.
         23    2    1    2    0    0  0.40651961037E+03  0.38719175698E+03  0.28154978744E+03  0.63505189272E+03  0.94047718475E+02 0.  0.
         11    1    3    3    0    0  0.12305359184E+03  0.13659126654E+03  0.14000446279E+03  0.23108572037E+03  0.00000000000E+00 0.  1.
        -11    1    3    3    0    0  0.28346601852E+03  0.25060049044E+03  0.14154532465E+03  0.40396617234E+03  0.00000000000E+00 0. -1.
         22    1    1    2    0    0 -0.40651961037E+03 -0.38719175698E+03  0.25315480592E+03  0.61584332914E+03  0.00000000000E+00 0. -1.
<mgrwt>
<rscale>  0 0.11308536E+04</rscale>
<asrwt>0</asrwt>
<pdfrwt beam="1">  1        2 0.13735383E+00 0.11308536E+04</pdfrwt>
<pdfrwt beam="2">  1       -2 0.55091587E-01 0.11308536E+04</pdfrwt>
<totfact> 0.91058462E+01</totfact>
</mgrwt>
</event>
<event>
 6    1  0.5040916E-004  0.1695326E+04  0.7818608E-02  0.8764034E-01
         -2   -1    0    0    0  501 -0.00000000000E+00  0.00000000000E+00  0.43317131094E+03  0.43317131094E+03  0.00000000000E+00 0. -1.
          2   -1    0    0  501    0  0.00000000000E+00 -0.00000000000E+00 -0.16587729756E+04  0.16587729756E+04  0.00000000000E+00 0.  1.
         23    2    1    2    0    0 -0.43741235644E+03  0.69529646595E+03 -0.86024840607E+03  0.11929171742E+04  0.90869793151E+02 0.  0.
         13    1    3    3    0    0 -0.24986710417E+03  0.36928665915E+03 -0.52796987607E+03  0.69105600092E+03  0.00000000000E+00 0. -1.
        -13    1    3    3    0    0 -0.18754525227E+03  0.32600980681E+03 -0.33227853000E+03  0.50186117332E+03  0.00000000000E+00 0.  1.
         22    1    1    2    0    0  0.43741235644E+03 -0.69529646595E+03 -0.36535325862E+03  0.89902711234E+03  0.00000000000E+00 0. -1.
<mgrwt>
<rscale>  0 0.16953264E+04</rscale>
<asrwt>0</asrwt>
<pdfrwt beam="1">  1        2 0.25519584E+00 0.16953264E+04</pdfrwt>
<pdfrwt beam="2">  1       -2 0.66641741E-01 0.16953264E+04</pdfrwt>
<totfact> 0.20358843E+01</totfact>
</mgrwt>
</event>
<event>
 6    1  0.5040916E-004  0.3002080E+04  0.7818608E-02  0.8243137E-01
          2   -1    0    0  501    0  0.00000000000E+00  0.00000000000E+00  0.89626680996E+03  0.89626680996E+03  0.00000000000E+00 0.  1.
         -2   -1    0    0    0  501 -0.00000000000E+00 -0.00000000000E+00 -0.25138960255E+04  0.25138960255E+04  0.00000000000E+00 0. -1.
         23    2    1    2    0    0 -0.12998910792E+04 -0.12932045534E+03  0.27159022502E+02  0.13097417001E+04  0.90802590864E+02 0.  0.
         13    1    3    3    0    0 -0.69435466795E+03 -0.10755536620E+03 -0.95899946222E+01  0.70270088209E+03  0.00000000000E+00 0. -1.
        -13    1    3    3    0    0 -0.60553641125E+03 -0.21765089139E+02  0.36749017124E+02  0.60704081800E+03  0.00000000000E+00 0.  1.
         22    1    1    2    0    0  0.12998910792E+04  0.12932045534E+03 -0.16447882381E+04  0.21004211354E+04  0.00000000000E+00 0. -1.
<mgrwt>
<rscale>  0 0.30020803E+04</rscale>
<asrwt>0</asrwt>
<pdfrwt beam="1">  1        2 0.13788720E+00 0.30020803E+04</pdfrwt>
<pdfrwt beam="2">  1       -2 0.38675323E+00 0.30020803E+04</pdfrwt>
<totfact> 0.22841249E-01</totfact>
</mgrwt>
</event>
<event>
 6    1  0.5040916E-004  0.1235407E+04  0.7818608E-02  0.9082417E-01
          1   -1    0    0  501    0  0.00000000000E+00  0.00000000000E+00  0.99552010071E+03  0.99552010071E+03  0.00000000000E+00 0.  1.
         -1   -1    0    0    0  501 -0.00000000000E+00 -0.00000000000E+00 -0.38327486854E+03  0.38327486854E+03  0.00000000000E+00 0. -1.
         23    2    1    2    0    0 -0.54753745917E+03 -0.27753057957E+03  0.27525835009E+03  0.67852312884E+03  0.88351487185E+02 0.  0.
         11    1    3    3    0    0 -0.33974629564E+03 -0.21318338734E+03  0.15526039523E+03  0.43009358559E+03  0.00000000000E+00 0.  1.
        -11    1    3    3    0    0 -0.20779116352E+03 -0.64347192228E+02  0.11999795487E+03  0.24842954325E+03  0.00000000000E+00 0. -1.
         22    1    1    2    0    0  0.54753745917E+03  0.27753057957E+03  0.33698688208E+03  0.70027184041E+03  0.00000000000E+00 0.  1.
<mgrwt>
<rscale>  0 0.12354074E+04</rscale>
<asrwt>0</asrwt>
<pdfrwt beam="1">  1        1 0.15315694E+00 0.12354074E+04</pdfrwt>
<pdfrwt beam="2">  1       -1 0.58965365E-01 0.12354074E+04</pdfrwt>
<totfact> 0.43897596E+01</totfact>
</mgrwt>
</event>
<event>
 6    1  0.5040916E-004  0.7420106E+03  0.7818608E-02  0.9647968E-01
          2   -1    0    0  501    0  0.00000000000E+00  0.00000000000E+00  0.33382182129E+04  0.33382182129E+04  0.00000000000E+00 0.  1.
         -2   -1    0    0    0  501 -0.00000000000E+00 -0.00000000000E+00 -0.41233054823E+02  0.41233054823E+02  0.00000000000E+00 0. -1.
         23    2    1    2    0    0  0.20649114013E+03 -0.25380542656E+03  0.24135380620E+04  0.24373607429E+04  0.92225964444E+02 0.  0.
         13    1    3    3    0    0  0.23348391808E+02  0.34507148214E+01  0.13569711787E+03  0.13773439160E+03  0.00000000000E+00 0. -1.
        -13    1    3    3    0    0  0.18314274832E+03 -0.25725614138E+03  0.22778409442E+04  0.22996263513E+04  0.00000000000E+00 0.  1.
         22    1    1    2    0    0 -0.20649114013E+03  0.25380542656E+03  0.88344709606E+03  0.94209052486E+03  0.00000000000E+00 0.  1.
<mgrwt>
<rscale>  0 0.74201061E+03</rscale>
<asrwt>0</asrwt>
<pdfrwt beam="1">  1        2 0.51357182E+00 0.74201061E+03</pdfrwt>
<pdfrwt beam="2">  1       -2 0.63435495E-02 0.74201061E+03</pdfrwt>
<totfact> 0.15982417E+02</totfact>
</mgrwt>
</event>
<event>
 6    1  0.5040916E-004  0.1354692E+04  0.7818608E-02  0.8987284E-01
         -2   -1    0    0    0  501 -0.00000000000E+00  0.00000000000E+00  0.18540824340E+03  0.18540824340E+03  0.00000000000E+00 0. -1.
          2   -1    0    0  501    0  0.00000000000E+00 -0.00000000000E+00 -0.24745272211E+04  0.24745272211E+04  0.00000000000E+00 0.  1.
         23    2    1    2    0    0 -0.41235989570E+03  0.52484957371E+03 -0.96142379037E+03  0.11739064375E+04  0.90624835023E+02 0.  0.
         11    1    3    3    0    0 -0.62505958139E+02  0.13813866426E+03 -0.23554203124E+03  0.28012378308E+03  0.00000000000E+00 0.  1.
        -11    1    3    3    0    0 -0.34985393756E+03  0.38671090945E+03 -0.72588175914E+03  0.89378265443E+03  0.00000000000E+00 0. -1.
         22    1    1    2    0    0  0.41235989570E+03 -0.52484957371E+03 -0.13276951874E+04  0.14860290270E+04  0.00000000000E+00 0.  1.
<mgrwt>
<rscale>  0 0.13546922E+04</rscale>
<asrwt>0</asrwt>
<pdfrwt beam="1">  1        2 0.38069650E+00 0.13546922E+04</pdfrwt>
<pdfrwt beam="2">  1       -2 0.28524345E-01 0.13546922E+04</pdfrwt>
<totfact> 0.39764592E+01</totfact>
</mgrwt>
</event>
<event>
 6    1  0.5040916E-004  0.1699594E+04  0.7818608E-02  0.8761596E-01
          2   -1    0    0  501    0  0.00000000000E+00  0.00000000000E+00  0.17285747731E+04  0.17285747731E+04  0.00000000000E+00 0.  1.
         -2   -1    0    0    0  501 -0.00000000000E+00 -0.00000000000E+00 -0.41777478613E+03  0.41777478613E+03  0.00000000000E+00 0. -1.
         23    2    1    2    0    0  0.10017849144E+03  0.64698056484E+03  0.13365022413E+04  0.14911547887E+04  0.93192175211E+02 0.  0.
         13    1    3    3    0    0  0.41048130641E+02  0.41489014589E+03  0.75920519332E+03  0.86614739378E+03  0.00000000000E+00 0.  1.
        -13    1    3    3    0    0  0.59130360796E+02  0.23209041895E+03  0.57729704796E+03  0.62500739493E+03  0.00000000000E+00 0. -1.
         22    1    1    2    0    0 -0.10017849144E+03 -0.64698056484E+03 -0.25702254305E+02  0.65519477051E+03  0.00000000000E+00 0. -1.
<mgrwt>
<rscale>  0 0.16995940E+04</rscale>
<asrwt>0</asrwt>
<pdfrwt beam="1">  1        2 0.26593458E+00 0.16995940E+04</pdfrwt>
<pdfrwt beam="2">  1       -2 0.64273045E-01 0.16995940E+04</pdfrwt>
<totfact> 0.20119463E+01</totfact>
</mgrwt>
</event>
<event>
 6    1  0.5040916E-004  0.2645259E+04  0.7818608E-02  0.8352988E-01
         -2   -1    0    0    0  501 -0.00000000000E+00  0.00000000000E+00  0.10781356651E+04  0.10781356651E+04  0.00000000000E+00 0. -1.
          2   -1    0    0  501    0  0.00000000000E+00 -0.00000000000E+00 -0.16225678163E+04  0.16225678163E+04  0.00000000000E+00 0.  1.
         23    2    1    2    0    0 -0.15452165130E+03 -0.88067702264E+03 -0.12652131132E+04  0.15522287737E+04  0.95817457939E+02 0.  0.
         13    1    3    3    0    0 -0.84585352352E+02 -0.38520718179E+03 -0.48154477394E+03  0.62243443353E+03  0.00000000000E+00 0.  1.
        -13    1    3    3    0    0 -0.69936298946E+02 -0.49546984085E+03 -0.78366833927E+03  0.92979434020E+03  0.00000000000E+00 0. -1.
         22    1    1    2    0    0  0.15452165130E+03  0.88067702264E+03  0.72078096202E+03  0.11484747077E+04  0.00000000000E+00 0. -1.
<mgrwt>
<rscale>  0 0.26452586E+04</rscale>
<asrwt>0</asrwt>
<pdfrwt beam="1">  1        2 0.24962582E+00 0.26452586E+04</pdfrwt>
<pdfrwt beam="2">  1       -2 0.16586703E+00 0.26452586E+04</pdfrwt>
<totfact> 0.21787376E+00</totfact>
</mgrwt>
</event>
<event>
 6    1  0.5040916E-004  0.1636872E+04  0.7818608E-02  0.8798211E-01
         -1   -1    0    0    0  501 -0.00000000000E+00  0.00000000000E+00  0.48423126330E+03  0.48423126330E+03  0.00000000000E+00 0. -1.
          1   -1    0    0  501    0  0.00000000000E+00 -0.00000000000E+00 -0.13833013543E+04  0.13833013543E+04  0.00000000000E+00 0.  1.
         23    2    1    2    0    0 -0.79716506456E+03  0.97200371713E+02 -0.28444444036E+03  0.85625385144E+03  0.85685273142E+02 0.  0.
         11    1    3    3    0    0 -0.71187978386E+03  0.10975402826E+03 -0.23969108185E+03  0.75912488307E+03  0.00000000000E+00 0. -1.
        -11    1    3    3    0    0 -0.85285280708E+02 -0.12553656549E+02 -0.44753358513E+02  0.97128968369E+02  0.00000000000E+00 0.  1.
         22    1    1    2    0    0  0.79716506456E+03 -0.97200371713E+02 -0.61462565061E+03  0.10112787661E+04  0.00000000000E+00 0.  1.
<mgrwt>
<rscale>  0 0.16368723E+04</rscale>
<asrwt>0</asrwt>
<pdfrwt beam="1">  1        1 0.21281559E+00 0.16368723E+04</pdfrwt>
<pdfrwt beam="2">  1       -1 0.74497118E-01 0.16368723E+04</pdfrwt>
<totfact> 0.13692348E+01</totfact>
</mgrwt>
</event>
<event>
 6    1  0.5040916E-004  0.2540081E+04  0.7818608E-02  0.8388844E-01
          2   -1    0    0  501    0  0.00000000000E+00  0.00000000000E+00  0.48959924026E+04  0.48959924026E+04  0.00000000000E+00 0.  1.
         -2   -1    0    0    0  501 -0.00000000000E+00 -0.00000000000E+00 -0.32945379526E+03  0.32945379526E+03  0.00000000000E+00 0. -1.
         23    2    1    2    0    0 -0.28956699486E+03 -0.11323277328E+04  0.12687915079E+04  0.17267105590E+04  0.75381197923E+02 0.  0.
         13    1    3    3    0    0 -0.76096761950E+02 -0.39622075121E+03  0.39937468589E+03  0.56769863537E+03  0.00000000000E+00 0. -1.
        -13    1    3    3    0    0 -0.21347023291E+03 -0.73610698159E+03  0.86941682204E+03  0.11590119236E+04  0.00000000000E+00 0.  1.
         22    1    1    2    0    0  0.28956699486E+03  0.11323277328E+04  0.32977470994E+04  0.34987356389E+04  0.00000000000E+00 0.  1.
<mgrwt>
<rscale>  0 0.25400813E+04</rscale>
<asrwt>0</asrwt>
<pdfrwt beam="1">  1        2 0.75322955E+00 0.25400813E+04</pdfrwt>
<pdfrwt beam="2">  1       -2 0.50685203E-01 0.25400813E+04</pdfrwt>
<totfact> 0.15187274E-01</totfact>
</mgrwt>
</event>
<event>
 6    1  0.5040916E-004  0.2047295E+04  0.7818608E-02  0.8584822E-01
         -2   -1    0    0    0  501 -0.00000000000E+00  0.00000000000E+00  0.10234774488E+04  0.10234774488E+04  0.00000000000E+00 0. -1.
          2   -1    0    0  501    0  0.00000000000E+00 -0.00000000000E+00 -0.10238175242E+04  0.10238175242E+04  0.00000000000E+00 0.  1.
         23    2    1    2    0    0  0.74922606044E+03  0.30473814783E+03  0.62390244812E+03  0.10255886763E+04  0.91503223189E+02 0.  0.
         13    1    3    3    0    0  0.20563860552E+03  0.87958445163E+02  0.22565736749E+03  0.31771869894E+03  0.00000000000E+00 0. -1.
        -13    1    3    3    0    0  0.54358745492E+03  0.21677970267E+03  0.39824508063E+03  0.70786997739E+03  0.00000000000E+00 0.  1.
         22    1    1    2    0    0 -0.74922606044E+03 -0.30473814783E+03 -0.62424252359E+03  0.10217062967E+04  0.00000000000E+00 0.  1.
<mgrwt>
<rscale>  0 0.20472949E+04</rscale>
<asrwt>0</asrwt>
<pdfrwt beam="1">  1        2 0.15751039E+00 0.20472949E+04</pdfrwt>
<pdfrwt beam="2">  1       -2 0.15745807E+00 0.20472949E+04</pdfrwt>
<totfact> 0.59211068E+00</totfact>
</mgrwt>
</event>
<event>
 6    1  0.5040916E-004  0.3886928E+04  0.7818608E-02  0.8027753E-01
         -2   -1    0    0    0  501 -0.00000000000E+00  0.00000000000E+00  0.13717639744E+04  0.13717639744E+04  0.00000000000E+00 0. -1.
          2   -1    0    0  501    0  0.00000000000E+00 -0.00000000000E+00 -0.27534273978E+04  0.27534273978E+04  0.00000000000E+00 0.  1.
         23    2    1    2    0    0  0.13020661480E+04  0.13180071219E+04 -0.72038169052E+02  0.18563508459E+04  0.91268494988E+02 0.  0.
         11    1    3    3    0    0  0.49284179649E+03  0.46595501381E+03 -0.63793629854E+02  0.68123178029E+03  0.00000000000E+00 0.  1.
        -11    1    3    3    0    0  0.80922435155E+03  0.85205210805E+03 -0.82445391978E+01  0.11751190656E+04  0.00000000000E+00 0. -1.
         22    1    1    2    0    0 -0.13020661480E+04 -0.13180071219E+04 -0.13096252544E+04  0.22688405264E+04  0.00000000000E+00 0.  1.
<mgrwt>
<rscale>  0 0.38869281E+04</rscale>
<asrwt>0</asrwt>
<pdfrwt beam="1">  1        2 0.42360421E+00 0.38869281E+04</pdfrwt>
<pdfrwt beam="2">  1       -2 0.21104061E+00 0.38869281E+04</pdfrwt>
<totfact> 0.22140083E-01</totfact>
</mgrwt>
</event>
<event>
 6    1  0.5040916E-004  0.1277132E+04  0.7818608E-02  0.9047899E-01
          2   -1    0    0  501    0  0.00000000000E+00  0.00000000000E+00  0.50843413294E+03  0.50843413294E+03  0.00000000000E+00 0.  1.
         -2   -1    0    0    0  501 -0.00000000000E+00 -0.00000000000E+00 -0.80200405799E+03  0.80200405799E+03  0.00000000000E+00 0. -1.
         23    2    1    2    0    0  0.43583706463E+03  0.37861479808E+02  0.32534997284E+03  0.55251386849E+03  0.89618812183E+02 0.  0.
         11    1    3    3    0    0  0.30485369828E+03  0.60489852678E+02  0.25560547220E+03  0.40240397246E+03  0.00000000000E+00 0. -1.
        -11    1    3    3    0    0  0.13098336635E+03 -0.22628372870E+02  0.69744500631E+02  0.15010989603E+03  0.00000000000E+00 0.  1.
         22    1    1    2    0    0 -0.43583706463E+03 -0.37861479808E+02 -0.61891989788E+03  0.75792432244E+03  0.00000000000E+00 0. -1.
<mgrwt>
<rscale>  0 0.12771315E+04</rscale>
<asrwt>0</asrwt>
<pdfrwt beam="1">  1        2 0.78220637E-01 0.12771315E+04</pdfrwt>
<pdfrwt beam="2">  1       -2 0.12338524E+00 0.12771315E+04</pdfrwt>
<totfact> 0.29357453E+01</totfact>
</mgrwt>
</event>
<event>
 6    1  0.5040916E-004  0.2497605E+04  0.7818608E-02  0.8403839E-01
          2   -1    0    0  501    0  0.00000000000E+00  0.00000000000E+00  0.41957406556E+04  0.41957406556E+04  0.00000000000E+00 0.  1.
         -2   -1    0    0    0  501 -0.00000000000E+00 -0.00000000000E+00 -0.37168819631E+03  0.37168819631E+03  0.00000000000E+00 0. -1.
         23    2    1    2    0    0 -0.69097001815E+03  0.86849443114E+03  0.29548488880E+04  0.31577349166E+04  0.91846119129E+02 0.  0.
         11    1    3    3    0    0 -0.61015245997E+03  0.79790715439E+03  0.27197080187E+04  0.28992677624E+04  0.00000000000E+00 0.  1.
        -11    1    3    3    0    0 -0.80817558173E+02  0.70587276746E+02  0.23514086934E+03  0.25846715416E+03  0.00000000000E+00 0. -1.
         22    1    1    2    0    0  0.69097001815E+03 -0.86849443114E+03  0.86920357124E+03  0.14096939353E+04  0.00000000000E+00 0. -1.
<mgrwt>
<rscale>  0 0.24976047E+04</rscale>
<asrwt>0</asrwt>
<pdfrwt beam="1">  1        2 0.64549853E+00 0.24976047E+04</pdfrwt>
<pdfrwt beam="2">  1       -2 0.57182802E-01 0.24976047E+04</pdfrwt>
<totfact> 0.60226608E-01</totfact>
</mgrwt>
</event>
<event>
 6    1  0.5040916E-004  0.1134125E+04  0.7818608E-02  0.9172555E-01
          2   -1    0    0  501    0  0.00000000000E+00  0.00000000000E+00  0.80826579770E+03  0.80826579770E+03  0.00000000000E+00 0.  1.
         -2   -1    0    0    0  501 -0.00000000000E+00 -0.00000000000E+00 -0.39783937400E+03  0.39783937400E+03  0.00000000000E+00 0. -1.
         23    2    1    2    0    0  0.26120178063E+03  0.21203539643E+03 -0.27409940708E+03  0.44337258911E+03  0.90903180759E+02 0.  0.
         11    1    3    3    0    0  0.10821597135E+03  0.13139991479E+03 -0.17463727815E+03  0.24387458453E+03  0.00000000000E+00 0. -1.
        -11    1    3    3    0    0  0.15298580928E+03  0.80635481644E+02 -0.99462128929E+02  0.19949800458E+03  0.00000000000E+00 0.  1.
         22    1    1    2    0    0 -0.26120178063E+03 -0.21203539643E+03  0.68452583077E+03  0.76273258259E+03  0.00000000000E+00 0. -1.
<mgrwt>
<rscale>  0 0.11341251E+04</rscale>
<asrwt>0</asrwt>
<pdfrwt beam="1">  1        2 0.12434858E+00 0.11341251E+04</pdfrwt>
<pdfrwt beam="2">  1       -2 0.61206058E-01 0.11341251E+04</pdfrwt>
<totfact> 0.83614916E+01</totfact>
</mgrwt>
</event>
<event>
 6    1  0.5040916E-004  0.3014958E+04  0.7818608E-02  0.8239472E-01
          2   -1    0    0  501    0  0.00000000000E+00  0.00000000000E+00  0.15005041392E+04  0.15005041392E+04  0.00000000000E+00 0.  1.
         -2   -1    0    0    0  501 -0.00000000000E+00 -0.00000000000E+00 -0.15144867124E+04  0.15144867124E+04  0.00000000000E+00 0. -1.
         23    2    1    2    0    0 -0.87834727041E+03 -0.10258572693E+03  0.12121374106E+04  0.15032408811E+04  0.91860142340E+02 0.  0.
         11    1    3    3    0    0 -0.59756476982E+03 -0.73789457733E+02  0.89509371638E+03  0.10787591480E+04  0.00000000000E+00 0. -1.
        -11    1    3    3    0    0 -0.28078250060E+03 -0.28796269197E+02  0.31704369417E+03  0.42448173315E+03  0.00000000000E+00 0.  1.
         22    1    1    2    0    0  0.87834727041E+03  0.10258572693E+03 -0.12261199838E+04  0.15117499705E+04  0.00000000000E+00 0. -1.
<mgrwt>
<rscale>  0 0.30149584E+04</rscale>
<asrwt>0</asrwt>
<pdfrwt beam="1">  1        2 0.23084679E+00 0.30149584E+04</pdfrwt>
<pdfrwt beam="2">  1       -2 0.23299795E+00 0.30149584E+04</pdfrwt>
<totfact> 0.88816561E-01</totfact>
</mgrwt>
</event>
<event>
 6    1  0.5040916E-004  0.2948339E+04  0.7818608E-02  0.8258639E-01
          2   -1    0    0  501    0  0.00000000000E+00  0.00000000000E+00  0.22999345504E+04  0.22999345504E+04  0.00000000000E+00 0.  1.
         -2   -1    0    0    0  501 -0.00000000000E+00 -0.00000000000E+00 -0.94488598513E+03  0.94488598513E+03  0.00000000000E+00 0. -1.
         23    2    1    2    0    0 -0.12832352880E+04 -0.41080524454E+03  0.23795906102E+02  0.13507013746E+04  0.91510682008E+02 0.  0.
         11    1    3    3    0    0 -0.62639473935E+03 -0.20848262449E+03 -0.33462061479E+02  0.66102578146E+03  0.00000000000E+00 0. -1.
        -11    1    3    3    0    0 -0.65684054864E+03 -0.20232262005E+03  0.57257967581E+02  0.68967559314E+03  0.00000000000E+00 0.  1.
         22    1    1    2    0    0  0.12832352880E+04  0.41080524454E+03  0.13312526592E+04  0.18941191609E+04  0.00000000000E+00 0.  1.
<mgrwt>
<rscale>  0 0.29483391E+04</rscale>
<asrwt>0</asrwt>
<pdfrwt beam="1">  1        2 0.35383608E+00 0.29483391E+04</pdfrwt>
<pdfrwt beam="2">  1       -2 0.14536708E+00 0.29483391E+04</pdfrwt>
<totfact> 0.12686024E+00</totfact>
</mgrwt>
</event>
<event>
 6    1  0.5040916E-004  0.1367135E+04  0.7818608E-02  0.8977958E-01
          2   -1    0    0  501    0  0.00000000000E+00  0.00000000000E+00  0.17348679026E+04  0.17348679026E+04  0.00000000000E+00 0.  1.
         -2   -1    0    0    0  501 -0.00000000000E+00 -0.00000000000E+00 -0.26933715233E+03  0.26933715233E+03  0.00000000000E+00 0. -1.
         23    2    1    2    0    0 -0.51510033061E+03 -0.26871637779E+03  0.12554727216E+04  0.13864176986E+04  0.91681175349E+02 0.  0.
         11    1    3    3    0    0 -0.18850287848E+03 -0.99286755048E+02  0.56868143422E+03  0.60728063410E+03  0.00000000000E+00 0.  1.
        -11    1    3    3    0    0 -0.32659745213E+03 -0.16942962274E+03  0.68679128739E+03  0.77913706447E+03  0.00000000000E+00 0. -1.
         22    1    1    2    0    0  0.51510033061E+03  0.26871637779E+03  0.21005802867E+03  0.61778735637E+03  0.00000000000E+00 0. -1.
<mgrwt>
<rscale>  0 0.13671348E+04</rscale>
<asrwt>0</asrwt>
<pdfrwt beam="1">  1        2 0.26690275E+00 0.13671348E+04</pdfrwt>
<pdfrwt beam="2">  1       -2 0.41436486E-01 0.13671348E+04</pdfrwt>
<totfact> 0.50481622E+01</totfact>
</mgrwt>
</event>
<event>
 6    1  0.5040916E-004  0.3937324E+04  0.7818608E-02  0.8017311E-01
          2   -1    0    0  501    0  0.00000000000E+00  0.00000000000E+00  0.18062537721E+04  0.18062537721E+04  0.00000000000E+00 0.  1.
         -2   -1    0    0    0  501 -0.00000000000E+00 -0.00000000000E+00 -0.21456729234E+04  0.21456729234E+04  0.00000000000E+00 0. -1.
         23    2    1    2    0    0 -0.13698077795E+03 -0.12041593709E+04 -0.17255671794E+04  0.21106852990E+04  0.92988261088E+02 0.  0.
         13    1    3    3    0    0  0.57304648256E+01 -0.28493600358E+03 -0.42331893463E+03  0.51031390808E+03  0.00000000000E+00 0. -1.
        -13    1    3    3    0    0 -0.14271124277E+03 -0.91922336733E+03 -0.13022482448E+04  0.16003713909E+04  0.00000000000E+00 0.  1.
         22    1    1    2    0    0  0.13698077795E+03  0.12041593709E+04  0.13861480281E+04  0.18412413964E+04  0.00000000000E+00 0.  1.
<mgrwt>
<rscale>  0 0.39373239E+04</rscale>
<asrwt>0</asrwt>
<pdfrwt beam="1">  1        2 0.27788519E+00 0.39373239E+04</pdfrwt>
<pdfrwt beam="2">  1       -2 0.33010353E+00 0.39373239E+04</pdfrwt>
<totfact> 0.14066159E-01</totfact>
</mgrwt>
</event>
<event>
 6    1  0.5040916E-004  0.1013091E+04  0.7818608E-02  0.9294303E-01
         -2   -1    0    0    0  501 -0.00000000000E+00  0.00000000000E+00  0.34427753844E+03  0.34427753844E+03  0.00000000000E+00 0. -1.
          2   -1    0    0  501    0  0.00000000000E+00 -0.00000000000E+00 -0.74529438810E+03  0.74529438810E+03  0.00000000000E+00 0.  1.
         23    2    1    2    0    0  0.36021921826E+03  0.32347926435E+03 -0.34677300637E+03  0.60239730261E+03  0.90742892639E+02 0.  0.
         11    1    3    3    0    0  0.20594867646E+03  0.15632540645E+03 -0.23305729814E+03  0.34809222090E+03  0.00000000000E+00 0. -1.
        -11    1    3    3    0    0  0.15427054180E+03  0.16715385791E+03 -0.11371570823E+03  0.25430508170E+03  0.00000000000E+00 0.  1.
         22    1    1    2    0    0 -0.36021921826E+03 -0.32347926435E+03 -0.54243843282E+02  0.48717462394E+03  0.00000000000E+00 0. -1.
<mgrwt>
<rscale>  0 0.10130906E+04</rscale>
<asrwt>0</asrwt>
<pdfrwt beam="1">  1        2 0.11466067E+00 0.10130906E+04</pdfrwt>
<pdfrwt beam="2">  1       -2 0.52965776E-01 0.10130906E+04</pdfrwt>
<totfact> 0.12683281E+02</totfact>
</mgrwt>
</event>
<event>
 6    1  0.5040916E-004  0.2523750E+04  0.7818608E-02  0.8394573E-01
         -2   -1    0    0    0  501 -0.00000000000E+00  0.00000000000E+00  0.86349139785E+03  0.86349139785E+03  0.00000000000E+00 0.  1.
          2   -1    0    0  501    0  0.00000000000E+00 -0.00000000000E+00 -0.18440583313E+04  0.18440583313E+04  0.00000000000E+00 0. -1.
         23    2    1    2    0    0  0.11840557097E+04  0.41038258605E+03 -0.34786954870E+03  0.13037307339E+04  0.91097820890E+02 0.  0.
         13    1    3    3    0    0  0.24088583016E+03  0.51347937224E+02 -0.48054501273E+02  0.25094188355E+03  0.00000000000E+00 0.  1.
        -13    1    3    3    0    0  0.94316987957E+03  0.35903464883E+03 -0.29981504743E+03  0.10527888504E+04  0.00000000000E+00 0. -1.
         22    1    1    2    0    0 -0.11840557097E+04 -0.41038258605E+03 -0.63269738476E+03  0.14038189952E+04  0.00000000000E+00 0. -1.
<mgrwt>
<rscale>  0 0.25237500E+04</rscale>
<asrwt>0</asrwt>
<pdfrwt beam="1">  1        2 0.28370128E+00 0.25237500E+04</pdfrwt>
<pdfrwt beam="2">  1       -2 0.13284483E+00 0.25237500E+04</pdfrwt>
<totfact> 0.29846612E+00</totfact>
</mgrwt>
</event>
<event>
 6    1  0.5040916E-004  0.1485148E+04  0.7818608E-02  0.8894390E-01
         -2   -1    0    0    0  501 -0.00000000000E+00  0.00000000000E+00  0.51519750366E+03  0.51519750366E+03  0.00000000000E+00 0. -1.
          2   -1    0    0  501    0  0.00000000000E+00 -0.00000000000E+00 -0.10703006145E+04  0.10703006145E+04  0.00000000000E+00 0.  1.
         23    2    1    2    0    0 -0.18040106898E+03 -0.57635116968E+03 -0.73479930067E+03  0.95540611132E+03  0.90253026576E+02 0.  0.
         13    1    3    3    0    0 -0.13364367147E+03 -0.52041789001E+03 -0.65819384433E+03  0.84965554660E+03  0.00000000000E+00 0. -1.
        -13    1    3    3    0    0 -0.46757397508E+02 -0.55933279665E+02 -0.76605456344E+02  0.10575056471E+03  0.00000000000E+00 0.  1.
         22    1    1    2    0    0  0.18040106898E+03  0.57635116968E+03  0.17969618981E+03  0.63009200686E+03  0.00000000000E+00 0. -1.
<mgrwt>
<rscale>  0 0.14851481E+04</rscale>
<asrwt>0</asrwt>
<pdfrwt beam="1">  1        2 0.16466163E+00 0.14851481E+04</pdfrwt>
<pdfrwt beam="2">  1       -2 0.79261155E-01 0.14851481E+04</pdfrwt>
<totfact> 0.31040881E+01</totfact>
</mgrwt>
</event>
<event>
 6    1  0.5040916E-004  0.2481825E+04  0.7818608E-02  0.8409489E-01
         -2   -1    0    0    0  501 -0.00000000000E+00  0.00000000000E+00  0.41381493617E+03  0.41381493617E+03  0.00000000000E+00 0. -1.
          2   -1    0    0  501    0  0.00000000000E+00 -0.00000000000E+00 -0.37211404157E+04  0.37211404157E+04  0.00000000000E+00 0.  1.
         23    2    1    2    0    0 -0.77158886599E+03 -0.67124951202E+03 -0.28219419395E+04  0.30029118605E+04  0.90543063139E+02 0.  0.
         11    1    3    3    0    0 -0.63263414545E+03 -0.51883772648E+03 -0.23303382297E+04  0.24697965125E+04  0.00000000000E+00 0. -1.
        -11    1    3    3    0    0 -0.13895472054E+03 -0.15241178554E+03 -0.49160370984E+03  0.53311534799E+03  0.00000000000E+00 0.  1.
         22    1    1    2    0    0  0.77158886599E+03  0.67124951202E+03 -0.48538354002E+03  0.11320434914E+04  0.00000000000E+00 0. -1.
<mgrwt>
<rscale>  0 0.24818247E+04</rscale>
<asrwt>0</asrwt>
<pdfrwt beam="1">  1        2 0.57248316E+00 0.24818247E+04</pdfrwt>
<pdfrwt beam="2">  1       -2 0.63663834E-01 0.24818247E+04</pdfrwt>
<totfact> 0.11505794E+00</totfact>
</mgrwt>
</event>
<event>
 6    1  0.5040916E-004  0.4088637E+03  0.7818608E-02  0.1040753E+00
          2   -1    0    0  501    0  0.00000000000E+00  0.00000000000E+00  0.20636071020E+04  0.20636071020E+04  0.00000000000E+00 0.  1.
         -2   -1    0    0    0  501 -0.00000000000E+00 -0.00000000000E+00 -0.20252097928E+02  0.20252097928E+02  0.00000000000E+00 0. -1.
         23    2    1    2    0    0 -0.62202339190E+02  0.17013429244E+03  0.14326688287E+04  0.14468722195E+04  0.89913504599E+02 0.  0.
         11    1    3    3    0    0 -0.24740699120E+02  0.10465546065E+03  0.51501845146E+03  0.52612628996E+03  0.00000000000E+00 0. -1.
        -11    1    3    3    0    0 -0.37461640071E+02  0.65478831793E+02  0.91765037724E+03  0.92074592953E+03  0.00000000000E+00 0.  1.
         22    1    1    2    0    0  0.62202339190E+02 -0.17013429244E+03  0.61068617533E+03  0.63698698041E+03  0.00000000000E+00 0. -1.
<mgrwt>
<rscale>  0 0.40886366E+03</rscale>
<asrwt>0</asrwt>
<pdfrwt beam="1">  1        2 0.31747785E+00 0.40886366E+03</pdfrwt>
<pdfrwt beam="2">  1       -2 0.31157090E-02 0.40886366E+03</pdfrwt>
<totfact> 0.27348576E+03</totfact>
</mgrwt>
</event>
<event>
 6    1  0.5040916E-004  0.1686846E+04  0.7818608E-02  0.8768902E-01
         -2   -1    0    0    0  501 -0.00000000000E+00  0.00000000000E+00  0.33428187052E+03  0.33428187052E+03  0.00000000000E+00 0.  1.
          2   -1    0    0  501    0  0.00000000000E+00 -0.00000000000E+00 -0.21280325820E+04  0.21280325820E+04  0.00000000000E+00 0. -1.
         23    2    1    2    0    0  0.25148475593E+03  0.80247321148E+03 -0.90928912961E+03  0.12418718576E+04  0.90725696110E+02 0.  0.
         11    1    3    3    0    0  0.15825480127E+03  0.43257918555E+03 -0.43881025224E+03  0.63617904034E+03  0.00000000000E+00 0.  1.
        -11    1    3    3    0    0  0.93229954657E+02  0.36989402593E+03 -0.47047887737E+03  0.60569281729E+03  0.00000000000E+00 0. -1.
         22    1    1    2    0    0 -0.25148475593E+03 -0.80247321148E+03 -0.88446158188E+03  0.12204425949E+04  0.00000000000E+00 0. -1.
<mgrwt>
<rscale>  0 0.16868464E+04</rscale>
<asrwt>0</asrwt>
<pdfrwt beam="1">  1        2 0.32738963E+00 0.16868464E+04</pdfrwt>
<pdfrwt beam="2">  1       -2 0.51427980E-01 0.16868464E+04</pdfrwt>
<totfact> 0.19290491E+01</totfact>
</mgrwt>
</event>
<event>
 6    1  0.5040916E-004  0.4603474E+04  0.7818608E-02  0.7892768E-01
          2   -1    0    0  501    0  0.00000000000E+00  0.00000000000E+00  0.18831597902E+04  0.18831597902E+04  0.00000000000E+00 0.  1.
         -2   -1    0    0    0  501 -0.00000000000E+00 -0.00000000000E+00 -0.28133530120E+04  0.28133530120E+04  0.00000000000E+00 0. -1.
         23    2    1    2    0    0 -0.94891796057E+03  0.12190142742E+04  0.12742679385E+04  0.20046565460E+04  0.91912958536E+02 0.  0.
         11    1    3    3    0    0 -0.23134858578E+03  0.32270759703E+03  0.28044271853E+03  0.48611776320E+03  0.00000000000E+00 0. -1.
        -11    1    3    3    0    0 -0.71756937479E+03  0.89630667714E+03  0.99382521993E+03  0.15185387828E+04  0.00000000000E+00 0.  1.
         22    1    1    2    0    0  0.94891796057E+03 -0.12190142742E+04 -0.22044611603E+04  0.26918562562E+04  0.00000000000E+00 0. -1.
<mgrwt>
<rscale>  0 0.46034740E+04</rscale>
<asrwt>0</asrwt>
<pdfrwt beam="1">  1        2 0.28971689E+00 0.46034740E+04</pdfrwt>
<pdfrwt beam="2">  1       -2 0.43282354E+00 0.46034740E+04</pdfrwt>
<totfact> 0.26318685E-02</totfact>
</mgrwt>
</event>
<event>
 6    1  0.5040916E-004  0.3937987E+04  0.7818608E-02  0.8017175E-01
          2   -1    0    0  501    0  0.00000000000E+00  0.00000000000E+00  0.15209877322E+04  0.15209877322E+04  0.00000000000E+00 0.  1.
         -2   -1    0    0    0  501 -0.00000000000E+00 -0.00000000000E+00 -0.25489589119E+04  0.25489589119E+04  0.00000000000E+00 0. -1.
         23    2    1    2    0    0 -0.16834544830E+03 -0.17179993814E+04  0.46297415627E+03  0.17889863071E+04  0.79150951659E+02 0.  0.
         11    1    3    3    0    0 -0.69926486856E+02 -0.39910212844E+03  0.12263121018E+03  0.42333277241E+03  0.00000000000E+00 0.  1.
        -11    1    3    3    0    0 -0.98418961443E+02 -0.13188972529E+04  0.34034294609E+03  0.13656535346E+04  0.00000000000E+00 0. -1.
         22    1    1    2    0    0  0.16834544830E+03  0.17179993814E+04 -0.14909453359E+04  0.22809603370E+04  0.00000000000E+00 0. -1.
<mgrwt>
<rscale>  0 0.39379869E+04</rscale>
<asrwt>0</asrwt>
<pdfrwt beam="1">  1        2 0.23399811E+00 0.39379869E+04</pdfrwt>
<pdfrwt beam="2">  1       -2 0.39214752E+00 0.39379869E+04</pdfrwt>
<totfact> 0.81750178E-02</totfact>
</mgrwt>
</event>
<event>
 6    1  0.5040916E-004  0.3381321E+04  0.7818608E-02  0.8142506E-01
          2   -1    0    0  501    0  0.00000000000E+00  0.00000000000E+00  0.12706041161E+04  0.12706041161E+04  0.00000000000E+00 0. -1.
         -2   -1    0    0    0  501 -0.00000000000E+00 -0.00000000000E+00 -0.22495858167E+04  0.22495858167E+04  0.00000000000E+00 0.  1.
         23    2    1    2    0    0 -0.11889779250E+04  0.10518129143E+04 -0.10914063315E+04  0.19287697461E+04  0.94900159019E+02 0.  0.
         13    1    3    3    0    0 -0.46997482493E+03  0.41487701147E+03 -0.48767805642E+03  0.79424754166E+03  0.00000000000E+00 0. -1.
        -13    1    3    3    0    0 -0.71900310012E+03  0.63693590285E+03 -0.60372827505E+03  0.11345222045E+04  0.00000000000E+00 0.  1.
         22    1    1    2    0    0  0.11889779250E+04 -0.10518129143E+04  0.11242463081E+03  0.15914201867E+04  0.00000000000E+00 0. -1.
<mgrwt>
<rscale>  0 0.33813210E+04</rscale>
<asrwt>0</asrwt>
<pdfrwt beam="1">  1        2 0.19547756E+00 0.33813210E+04</pdfrwt>
<pdfrwt beam="2">  1       -2 0.34609012E+00 0.33813210E+04</pdfrwt>
<totfact> 0.23488919E-01</totfact>
</mgrwt>
</event>
<event>
 6    1  0.5040916E-004  0.2116096E+04  0.7818608E-02  0.8554186E-01
         -2   -1    0    0    0  501 -0.00000000000E+00  0.00000000000E+00  0.39010387283E+03  0.39010387283E+03  0.00000000000E+00 0. -1.
          2   -1    0    0  501    0  0.00000000000E+00 -0.00000000000E+00 -0.28696601344E+04  0.28696601344E+04  0.00000000000E+00 0.  1.
         23    2    1    2    0    0 -0.10671261112E+03  0.79872035732E+03 -0.22937330009E+04  0.24327984246E+04  0.89192515596E+02 0.  0.
         11    1    3    3    0    0  0.79669448393E+00  0.18181745807E+03 -0.60360261307E+03  0.63039220910E+03  0.00000000000E+00 0.  1.
        -11    1    3    3    0    0 -0.10750930560E+03  0.61690289926E+03 -0.16901303878E+04  0.18024062155E+04  0.00000000000E+00 0. -1.
         22    1    1    2    0    0  0.10671261112E+03 -0.79872035732E+03 -0.18582326064E+03  0.82696558258E+03  0.00000000000E+00 0. -1.
<mgrwt>
<rscale>  0 0.21160960E+04</rscale>
<asrwt>0</asrwt>
<pdfrwt beam="1">  1        2 0.44148617E+00 0.21160960E+04</pdfrwt>
<pdfrwt beam="2">  1       -2 0.60015980E-01 0.21160960E+04</pdfrwt>
<totfact> 0.50021113E+00</totfact>
</mgrwt>
</event>
<event>
 6    1  0.5040916E-004  0.4156446E+04  0.7818608E-02  0.7973709E-01
         -2   -1    0    0    0  501 -0.00000000000E+00  0.00000000000E+00  0.23182476864E+04  0.23182476864E+04  0.00000000000E+00 0. -1.
          2   -1    0    0  501    0  0.00000000000E+00 -0.00000000000E+00 -0.18630498754E+04  0.18630498754E+04  0.00000000000E+00 0.  1.
         23    2    1    2    0    0  0.79567160127E+02 -0.20012525399E+04  0.78187821520E+03  0.21519965127E+04  0.91721238937E+02 0.  0.
         13    1    3    3    0    0  0.88534631484E+02 -0.10873652791E+04  0.41886783447E+03  0.11686110961E+04  0.00000000000E+00 0.  1.
        -13    1    3    3    0    0 -0.89674713570E+01 -0.91388726078E+03  0.36301038072E+03  0.98338541655E+03  0.00000000000E+00 0. -1.
         22    1    1    2    0    0 -0.79567160127E+02  0.20012525399E+04 -0.32668040414E+03  0.20293010491E+04  0.00000000000E+00 0.  1.
<mgrwt>
<rscale>  0 0.41564461E+04</rscale>
<asrwt>0</asrwt>
<pdfrwt beam="1">  1        2 0.28662306E+00 0.41564461E+04</pdfrwt>
<pdfrwt beam="2">  1       -2 0.35665349E+00 0.41564461E+04</pdfrwt>
<totfact> 0.87556188E-02</totfact>
</mgrwt>
</event>
<event>
 6    1  0.5040916E-004  0.1235161E+04  0.7818608E-02  0.9082625E-01
          2   -1    0    0  501    0  0.00000000000E+00  0.00000000000E+00  0.52987584813E+03  0.52987584813E+03  0.00000000000E+00 0.  1.
         -2   -1    0    0    0  501 -0.00000000000E+00 -0.00000000000E+00 -0.71980205554E+03  0.71980205554E+03  0.00000000000E+00 0. -1.
         23    2    1    2    0    0  0.43413262301E+02 -0.34764808525E+03  0.41484447470E+03  0.55075624822E+03  0.92155326721E+02 0.  0.
         13    1    3    3    0    0  0.54241368177E+01 -0.26716363510E+03  0.26413721552E+03  0.37573168326E+03  0.00000000000E+00 0. -1.
        -13    1    3    3    0    0  0.37989125483E+02 -0.80484450146E+02  0.15070725918E+03  0.17502456496E+03  0.00000000000E+00 0.  1.
         22    1    1    2    0    0 -0.43413262301E+02  0.34764808525E+03 -0.60477068211E+03  0.69892165545E+03  0.00000000000E+00 0. -1.
<mgrwt>
<rscale>  0 0.12351611E+04</rscale>
<asrwt>0</asrwt>
<pdfrwt beam="1">  1        2 0.81519361E-01 0.12351611E+04</pdfrwt>
<pdfrwt beam="2">  1       -2 0.11073878E+00 0.12351611E+04</pdfrwt>
<totfact> 0.36613011E+01</totfact>
</mgrwt>
</event>
<event>
 6    1  0.5040916E-004  0.6136076E+03  0.7818608E-02  0.9877570E-01
          1   -1    0    0  501    0  0.00000000000E+00  0.00000000000E+00  0.70272274745E+03  0.70272274745E+03  0.00000000000E+00 0.  1.
         -1   -1    0    0    0  501 -0.00000000000E+00 -0.00000000000E+00 -0.13394838821E+03  0.13394838821E+03  0.00000000000E+00 0. -1.
         23    2    1    2    0    0 -0.22135789409E+03  0.89243956853E+02  0.43799917751E+02  0.25998927768E+03  0.93339116141E+02 0.  0.
         13    1    3    3    0    0 -0.11143890984E+03  0.56938365457E+02 -0.23190881139E+02  0.12727303349E+03  0.00000000000E+00 0. -1.
        -13    1    3    3    0    0 -0.10991898426E+03  0.32305591396E+02  0.66990798890E+02  0.13271624419E+03  0.00000000000E+00 0.  1.
         22    1    1    2    0    0  0.22135789409E+03 -0.89243956853E+02  0.52497444149E+03  0.57668185798E+03  0.00000000000E+00 0.  1.
<mgrwt>
<rscale>  0 0.61360763E+03</rscale>
<asrwt>0</asrwt>
<pdfrwt beam="1">  1        1 0.10811119E+00 0.61360763E+03</pdfrwt>
<pdfrwt beam="2">  1       -1 0.20607445E-01 0.61360763E+03</pdfrwt>
<totfact> 0.53224629E+02</totfact>
</mgrwt>
</event>
<event>
 6    1  0.5040916E-004  0.3935609E+03  0.7818608E-02  0.1046032E+00
         -1   -1    0    0    0  501 -0.00000000000E+00  0.00000000000E+00  0.99860912050E+03  0.99860912050E+03  0.00000000000E+00 0. -1.
          1   -1    0    0  501    0  0.00000000000E+00 -0.00000000000E+00 -0.38776488591E+02  0.38776488591E+02  0.00000000000E+00 0.  1.
         23    2    1    2    0    0  0.13840148281E+03  0.12309154385E+03  0.45030200448E+03  0.49523437660E+03  0.90436131645E+02 0.  0.
         11    1    3    3    0    0  0.11097907065E+03  0.12964592365E+03  0.42237771986E+03  0.45555170714E+03  0.00000000000E+00 0.  1.
        -11    1    3    3    0    0  0.27422412166E+02 -0.65543798008E+01  0.27924284624E+02  0.39682669458E+02  0.00000000000E+00 0. -1.
         22    1    1    2    0    0 -0.13840148281E+03 -0.12309154385E+03  0.50953062742E+03  0.54215123249E+03  0.00000000000E+00 0. -1.
<mgrwt>
<rscale>  0 0.39356095E+03</rscale>
<asrwt>0</asrwt>
<pdfrwt beam="1">  1        1 0.59656144E-02 0.39356095E+03</pdfrwt>
<pdfrwt beam="2">  1       -1 0.15363215E+00 0.39356095E+03</pdfrwt>
<totfact> 0.46190955E+02</totfact>
</mgrwt>
</event>
<event>
 6    1  0.5040916E-004  0.2387545E+04  0.7818608E-02  0.8444181E-01
         -2   -1    0    0    0  501 -0.00000000000E+00  0.00000000000E+00  0.22589875240E+04  0.22589875240E+04  0.00000000000E+00 0. -1.
          2   -1    0    0  501    0  0.00000000000E+00 -0.00000000000E+00 -0.63085460363E+03  0.63085460363E+03  0.00000000000E+00 0.  1.
         23    2    1    2    0    0  0.61406316364E+03 -0.78802811946E+03  0.27968076345E+02  0.10034197428E+04  0.89482293868E+02 0.  0.
         13    1    3    3    0    0  0.35233835033E+03 -0.50629432877E+03  0.45274250884E+02  0.61848687799E+03  0.00000000000E+00 0. -1.
        -13    1    3    3    0    0  0.26172481331E+03 -0.28173379069E+03 -0.17306174540E+02  0.38493286479E+03  0.00000000000E+00 0.  1.
         22    1    1    2    0    0 -0.61406316364E+03  0.78802811946E+03  0.16001648440E+04  0.18864223848E+04  0.00000000000E+00 0. -1.
<mgrwt>
<rscale>  0 0.23875449E+04</rscale>
<asrwt>0</asrwt>
<pdfrwt beam="1">  1        2 0.97054555E-01 0.23875449E+04</pdfrwt>
<pdfrwt beam="2">  1       -2 0.34753654E+00 0.23875449E+04</pdfrwt>
<totfact> 0.67765327E-01</totfact>
</mgrwt>
</event>
<event>
 6    1  0.5040916E-004  0.3831522E+04  0.7818608E-02  0.8039424E-01
         -2   -1    0    0    0  501 -0.00000000000E+00  0.00000000000E+00  0.16281696179E+04  0.16281696179E+04  0.00000000000E+00 0. -1.
          2   -1    0    0  501    0  0.00000000000E+00 -0.00000000000E+00 -0.22541509379E+04  0.22541509379E+04  0.00000000000E+00 0.  1.
         23    2    1    2    0    0 -0.68038555074E+03 -0.14647181873E+04 -0.13552171632E+04  0.21102853472E+04  0.91470329980E+02 0.  0.
         11    1    3    3    0    0 -0.34340906008E+03 -0.83650301041E+03 -0.78333806168E+03  0.11963634848E+04  0.00000000000E+00 0. -1.
        -11    1    3    3    0    0 -0.33697649066E+03 -0.62821517690E+03 -0.57187910147E+03  0.91392186233E+03  0.00000000000E+00 0.  1.
         22    1    1    2    0    0  0.68038555074E+03  0.14647181873E+04  0.72923584316E+03  0.17720352087E+04  0.00000000000E+00 0. -1.
<mgrwt>
<rscale>  0 0.38315219E+04</rscale>
<asrwt>0</asrwt>
<pdfrwt beam="1">  1        2 0.34679245E+00 0.38315219E+04</pdfrwt>
<pdfrwt beam="2">  1       -2 0.25048764E+00 0.38315219E+04</pdfrwt>
<totfact> 0.24567028E-01</totfact>
</mgrwt>
</event>
<event>
 6    1  0.5040916E-004  0.6888399E+03  0.7818608E-02  0.9736510E-01
         -2   -1    0    0    0  501 -0.00000000000E+00  0.00000000000E+00  0.43274329460E+03  0.43274329460E+03  0.00000000000E+00 0. -1.
          2   -1    0    0  501    0  0.00000000000E+00 -0.00000000000E+00 -0.27412349275E+03  0.27412349275E+03  0.00000000000E+00 0.  1.
         23    2    1    2    0    0  0.22677050057E+03 -0.25018478609E+03  0.10588218509E+03  0.36510876866E+03  0.89867061323E+02 0.  0.
         11    1    3    3    0    0  0.20687569778E+03 -0.23385753474E+03  0.68387036319E+02  0.31963054864E+03  0.00000000000E+00 0. -1.
        -11    1    3    3    0    0  0.19894802787E+02 -0.16327251347E+02  0.37495148766E+02  0.45478220012E+02  0.00000000000E+00 0.  1.
         22    1    1    2    0    0 -0.22677050057E+03  0.25018478609E+03  0.52737616767E+02  0.34175801870E+03  0.00000000000E+00 0.  1.
<mgrwt>
<rscale>  0 0.68883990E+03</rscale>
<asrwt>0</asrwt>
<pdfrwt beam="1">  1        2 0.42172845E-01 0.68883990E+03</pdfrwt>
<pdfrwt beam="2">  1       -2 0.66575891E-01 0.68883990E+03</pdfrwt>
<totfact> 0.25422162E+02</totfact>
</mgrwt>
</event>
<event>
 6    1  0.5040916E-004  0.1785616E+04  0.7818608E-02  0.8713986E-01
         -2   -1    0    0    0  501 -0.00000000000E+00  0.00000000000E+00  0.52179601391E+03  0.52179601391E+03  0.00000000000E+00 0. -1.
          2   -1    0    0  501    0  0.00000000000E+00 -0.00000000000E+00 -0.15276206768E+04  0.15276206768E+04  0.00000000000E+00 0.  1.
         23    2    1    2    0    0  0.65813501375E+03  0.34339818712E+03 -0.10686977870E+04  0.13044220323E+04  0.91311922240E+02 0.  0.
         13    1    3    3    0    0  0.55347214806E+03  0.26030821393E+03 -0.83230730735E+03  0.10328732927E+04  0.00000000000E+00 0. -1.
        -13    1    3    3    0    0  0.10466286569E+03  0.83089973193E+02 -0.23639047968E+03  0.27154873961E+03  0.00000000000E+00 0.  1.
         22    1    1    2    0    0 -0.65813501375E+03 -0.34339818712E+03  0.62873124183E+02  0.74499465836E+03  0.00000000000E+00 0. -1.
<mgrwt>
<rscale>  0 0.17856163E+04</rscale>
<asrwt>0</asrwt>
<pdfrwt beam="1">  1        2 0.23501856E+00 0.17856163E+04</pdfrwt>
<pdfrwt beam="2">  1       -2 0.80276312E-01 0.17856163E+04</pdfrwt>
<totfact> 0.15875408E+01</totfact>
</mgrwt>
</event>
<event>
 6    1  0.5040916E-004  0.2698882E+04  0.7818608E-02  0.8335368E-01
          2   -1    0    0  501    0  0.00000000000E+00  0.00000000000E+00  0.17230183780E+04  0.17230183780E+04  0.00000000000E+00 0.  1.
         -2   -1    0    0    0  501 -0.00000000000E+00 -0.00000000000E+00 -0.10568612350E+04  0.10568612350E+04  0.00000000000E+00 0. -1.
         23    2    1    2    0    0  0.35302610677E+03  0.63633020756E+03  0.15021301464E+04  0.16715500467E+04  0.90227584907E+02 0.  0.
         13    1    3    3    0    0  0.19101214356E+03  0.36477431893E+03  0.74880539388E+03  0.85454985849E+03  0.00000000000E+00 0. -1.
        -13    1    3    3    0    0  0.16201396320E+03  0.27155588863E+03  0.75332475247E+03  0.81700018826E+03  0.00000000000E+00 0.  1.
         22    1    1    2    0    0 -0.35302610677E+03 -0.63633020756E+03 -0.83597300331E+03  0.11083295662E+04  0.00000000000E+00 0. -1.
<mgrwt>
<rscale>  0 0.26988822E+04</rscale>
<asrwt>0</asrwt>
<pdfrwt beam="1">  1        2 0.26507975E+00 0.26988822E+04</pdfrwt>
<pdfrwt beam="2">  1       -2 0.16259404E+00 0.26988822E+04</pdfrwt>
<totfact> 0.20141868E+00</totfact>
</mgrwt>
</event>
<event>
 6    1  0.5040916E-004  0.2974857E+04  0.7818608E-02  0.8250947E-01
          2   -1    0    0  501    0  0.00000000000E+00  0.00000000000E+00  0.17823245481E+04  0.17823245481E+04  0.00000000000E+00 0.  1.
         -2   -1    0    0    0  501 -0.00000000000E+00 -0.00000000000E+00 -0.12413246701E+04  0.12413246701E+04  0.00000000000E+00 0. -1.
         23    2    1    2    0    0 -0.41454863855E+03  0.11408346990E+04  0.11417227758E+04  0.16693145535E+04  0.98619456784E+02 0.  0.
         11    1    3    3    0    0 -0.22059111864E+03  0.50350795839E+03  0.56299924516E+03  0.78686012470E+03  0.00000000000E+00 0.  1.
        -11    1    3    3    0    0 -0.19395751990E+03  0.63732674066E+03  0.57872353066E+03  0.88245442875E+03  0.00000000000E+00 0. -1.
         22    1    1    2    0    0  0.41454863855E+03 -0.11408346990E+04 -0.60072289780E+03  0.13543346648E+04  0.00000000000E+00 0.  1.
<mgrwt>
<rscale>  0 0.29748569E+04</rscale>
<asrwt>0</asrwt>
<pdfrwt beam="1">  1        2 0.27420378E+00 0.29748569E+04</pdfrwt>
<pdfrwt beam="2">  1       -2 0.19097303E+00 0.29748569E+04</pdfrwt>
<totfact> 0.11561225E+00</totfact>
</mgrwt>
</event>
<event>
 6    1  0.5040916E-004  0.9288221E+03  0.7818608E-02  0.9390253E-01
         -2   -1    0    0    0  501 -0.00000000000E+00  0.00000000000E+00  0.13606704803E+03  0.13606704803E+03  0.00000000000E+00 0. -1.
          2   -1    0    0  501    0  0.00000000000E+00 -0.00000000000E+00 -0.15850832751E+04  0.15850832751E+04  0.00000000000E+00 0.  1.
         23    2    1    2    0    0  0.38067772313E+03  0.18608479282E+03 -0.40004190841E+03  0.58982799938E+03  0.91216563015E+02 0.  0.
         13    1    3    3    0    0  0.11241751110E+03  0.10334529352E+03 -0.14077817521E+03  0.20769314170E+03  0.00000000000E+00 0.  1.
        -13    1    3    3    0    0  0.26826021203E+03  0.82739499293E+02 -0.25926373320E+03  0.38213485768E+03  0.00000000000E+00 0. -1.
         22    1    1    2    0    0 -0.38067772313E+03 -0.18608479282E+03 -0.10489743186E+04  0.11313223237E+04  0.00000000000E+00 0.  1.
<mgrwt>
<rscale>  0 0.92882205E+03</rscale>
<asrwt>0</asrwt>
<pdfrwt beam="1">  1        2 0.24385897E+00 0.92882205E+03</pdfrwt>
<pdfrwt beam="2">  1       -2 0.20933392E-01 0.92882205E+03</pdfrwt>
<totfact> 0.22463144E+02</totfact>
</mgrwt>
</event>
<event>
 6    1  0.5040916E-004  0.1079678E+04  0.7818608E-02  0.9225229E-01
          2   -1    0    0  501    0  0.00000000000E+00  0.00000000000E+00  0.61051809654E+03  0.61051809654E+03  0.00000000000E+00 0.  1.
         -2   -1    0    0    0  501 -0.00000000000E+00 -0.00000000000E+00 -0.47734215805E+03  0.47734215805E+03  0.00000000000E+00 0. -1.
         23    2    1    2    0    0 -0.37047121620E+03 -0.33423678573E+03  0.26538330828E+03  0.57168011201E+03  0.86178298858E+02 0.  0.
         11    1    3    3    0    0 -0.25186673734E+03 -0.26446271828E+03  0.16180216666E+03  0.39944627158E+03  0.00000000000E+00 0. -1.
        -11    1    3    3    0    0 -0.11860447885E+03 -0.69774067444E+02  0.10358114162E+03  0.17223384044E+03  0.00000000000E+00 0.  1.
         22    1    1    2    0    0  0.37047121620E+03  0.33423678573E+03 -0.13220736979E+03  0.51618014258E+03  0.00000000000E+00 0. -1.
<mgrwt>
<rscale>  0 0.10796778E+04</rscale>
<asrwt>0</asrwt>
<pdfrwt beam="1">  1        2 0.93925861E-01 0.10796778E+04</pdfrwt>
<pdfrwt beam="2">  1       -2 0.73437255E-01 0.10796778E+04</pdfrwt>
<totfact> 0.80812802E+01</totfact>
</mgrwt>
</event>
<event>
 6    1  0.5040916E-004  0.4525339E+04  0.7818608E-02  0.7906216E-01
          2   -1    0    0  501    0  0.00000000000E+00  0.00000000000E+00  0.32171062486E+04  0.32171062486E+04  0.00000000000E+00 0.  1.
         -2   -1    0    0    0  501 -0.00000000000E+00 -0.00000000000E+00 -0.15913909035E+04  0.15913909035E+04  0.00000000000E+00 0. -1.
         23    2    1    2    0    0  0.95164095608E+03  0.12567463865E+04  0.25365248965E+04  0.29878912013E+04  0.92213287984E+02 0.  0.
         13    1    3    3    0    0  0.82581973217E+03  0.10344330090E+04  0.21246868552E+04  0.25032626935E+04  0.00000000000E+00 0. -1.
        -13    1    3    3    0    0  0.12582122391E+03  0.22231337755E+03  0.41183804138E+03  0.48462850778E+03  0.00000000000E+00 0.  1.
         22    1    1    2    0    0 -0.95164095608E+03 -0.12567463865E+04 -0.91080955142E+03  0.18206059509E+04  0.00000000000E+00 0. -1.
<mgrwt>
<rscale>  0 0.45253392E+04</rscale>
<asrwt>0</asrwt>
<pdfrwt beam="1">  1        2 0.49493942E+00 0.45253392E+04</pdfrwt>
<pdfrwt beam="2">  1       -2 0.24482937E+00 0.45253392E+04</pdfrwt>
<totfact> 0.66016969E-02</totfact>
</mgrwt>
</event>
<event>
 6    1  0.5040916E-004  0.5487325E+04  0.7818608E-02  0.7757436E-01
          2   -1    0    0  501    0  0.00000000000E+00  0.00000000000E+00  0.29050249068E+04  0.29050249068E+04  0.00000000000E+00 0.  1.
         -2   -1    0    0    0  501 -0.00000000000E+00 -0.00000000000E+00 -0.25912633301E+04  0.25912633301E+04  0.00000000000E+00 0. -1.
         23    2    1    2    0    0 -0.61236860292E+03  0.87688837420E+03 -0.23729878030E+04  0.26044807130E+04  0.91214826433E+02 0.  0.
         11    1    3    3    0    0 -0.86284139241E+02  0.18318372714E+03 -0.47284872156E+03  0.51438034960E+03  0.00000000000E+00 0.  1.
        -11    1    3    3    0    0 -0.52608446367E+03  0.69370464706E+03 -0.19001390814E+04  0.20901003634E+04  0.00000000000E+00 0. -1.
         22    1    1    2    0    0  0.61236860292E+03 -0.87688837420E+03  0.26867493796E+04  0.28918075239E+04  0.00000000000E+00 0.  1.
<mgrwt>
<rscale>  0 0.54873252E+04</rscale>
<asrwt>0</asrwt>
<pdfrwt beam="1">  1        2 0.44692691E+00 0.54873252E+04</pdfrwt>
<pdfrwt beam="2">  1       -2 0.39865590E+00 0.54873252E+04</pdfrwt>
<totfact> 0.10591210E-02</totfact>
</mgrwt>
</event>
<event>
 6    1  0.5040916E-004  0.6595013E+03  0.7818608E-02  0.9789112E-01
          2   -1    0    0  501    0  0.00000000000E+00  0.00000000000E+00  0.24799570425E+03  0.24799570425E+03  0.00000000000E+00 0.  1.
         -2   -1    0    0    0  501 -0.00000000000E+00 -0.00000000000E+00 -0.43845721699E+03  0.43845721699E+03  0.00000000000E+00 0. -1.
         23    2    1    2    0    0 -0.30053106437E+03  0.10710405762E+03 -0.44701928228E+02  0.33568796249E+03  0.94328924327E+02 0.  0.
         11    1    3    3    0    0 -0.12771333975E+03 -0.16996536545E+01 -0.62070634674E+01  0.12787538312E+03  0.00000000000E+00 0.  1.
        -11    1    3    3    0    0 -0.17281772462E+03  0.10880371128E+03 -0.38494864761E+02  0.20781257937E+03  0.00000000000E+00 0. -1.
         22    1    1    2    0    0  0.30053106437E+03 -0.10710405762E+03 -0.14575958452E+03  0.35076495875E+03  0.00000000000E+00 0. -1.
<mgrwt>
<rscale>  0 0.65950135E+03</rscale>
<asrwt>0</asrwt>
<pdfrwt beam="1">  1        2 0.38153186E-01 0.65950135E+03</pdfrwt>
<pdfrwt beam="2">  1       -2 0.67454956E-01 0.65950135E+03</pdfrwt>
<totfact> 0.27642222E+02</totfact>
</mgrwt>
</event>
<event>
 6    1  0.5040916E-004  0.2157955E+04  0.7818608E-02  0.8536135E-01
          2   -1    0    0  501    0  0.00000000000E+00  0.00000000000E+00  0.32349239298E+04  0.32349239298E+04  0.00000000000E+00 0.  1.
         -2   -1    0    0    0  501 -0.00000000000E+00 -0.00000000000E+00 -0.35988258712E+03  0.35988258712E+03  0.00000000000E+00 0. -1.
         23    2    1    2    0    0  0.12067562889E+02 -0.68205581455E+03  0.51665778388E+02  0.69019030522E+03  0.91364897654E+02 0.  0.
         11    1    3    3    0    0  0.20480620385E+02 -0.62930232642E+03  0.70448321152E+02  0.63356439278E+03  0.00000000000E+00 0. -1.
        -11    1    3    3    0    0 -0.84130574962E+01 -0.52753488135E+02 -0.18782542765E+02  0.56625912439E+02  0.00000000000E+00 0.  1.
         22    1    1    2    0    0 -0.12067562889E+02  0.68205581455E+03  0.28233755643E+04  0.29046162117E+04  0.00000000000E+00 0.  1.
<mgrwt>
<rscale>  0 0.21579553E+04</rscale>
<asrwt>0</asrwt>
<pdfrwt beam="1">  1        2 0.49768058E+00 0.21579553E+04</pdfrwt>
<pdfrwt beam="2">  1       -2 0.55366554E-01 0.21579553E+04</pdfrwt>
<totfact> 0.34682087E+00</totfact>
</mgrwt>
</event>
<event>
 6    1  0.5040916E-004  0.3491518E+04  0.7818608E-02  0.8115803E-01
         -2   -1    0    0    0  501 -0.00000000000E+00  0.00000000000E+00  0.17905380868E+04  0.17905380868E+04  0.00000000000E+00 0. -1.
          2   -1    0    0  501    0  0.00000000000E+00 -0.00000000000E+00 -0.17020994091E+04  0.17020994091E+04  0.00000000000E+00 0.  1.
         23    2    1    2    0    0 -0.94245432320E+03  0.58432905663E+03 -0.13030591141E+04  0.17133323781E+04  0.88792935193E+02 0.  0.
         11    1    3    3    0    0 -0.74885899975E+03  0.46757567044E+03 -0.10899817440E+04  0.14026678193E+04  0.00000000000E+00 0. -1.
        -11    1    3    3    0    0 -0.19359532344E+03  0.11675338619E+03 -0.21307737010E+03  0.31066455880E+03  0.00000000000E+00 0.  1.
         22    1    1    2    0    0  0.94245432320E+03 -0.58432905663E+03  0.13914977918E+04  0.17793051178E+04  0.00000000000E+00 0. -1.
<mgrwt>
<rscale>  0 0.34915176E+04</rscale>
<asrwt>0</asrwt>
<pdfrwt beam="1">  1        2 0.26186145E+00 0.34915176E+04</pdfrwt>
<pdfrwt beam="2">  1       -2 0.27546740E+00 0.34915176E+04</pdfrwt>
<totfact> 0.36095071E-01</totfact>
</mgrwt>
</event>
<event>
 6    1  0.5040916E-004  0.2357058E+04  0.7818608E-02  0.8455758E-01
          2   -1    0    0  501    0  0.00000000000E+00  0.00000000000E+00  0.10498574769E+04  0.10498574769E+04  0.00000000000E+00 0. -1.
         -2   -1    0    0    0  501 -0.00000000000E+00 -0.00000000000E+00 -0.13229708907E+04  0.13229708907E+04  0.00000000000E+00 0.  1.
         23    2    1    2    0    0 -0.37806741905E+03  0.10884303120E+04  0.10394044855E+03  0.11604814153E+04  0.91093254317E+02 0.  0.
         11    1    3    3    0    0 -0.23214706535E+03  0.56796374057E+03  0.23793718532E+02  0.61403681615E+03  0.00000000000E+00 0.  1.
        -11    1    3    3    0    0 -0.14592035370E+03  0.52046657145E+03  0.80146730018E+02  0.54644459916E+03  0.00000000000E+00 0. -1.
         22    1    1    2    0    0  0.37806741905E+03 -0.10884303120E+04 -0.37705386238E+03  0.12123469522E+04  0.00000000000E+00 0.  1.
<mgrwt>
<rscale>  0 0.23570582E+04</rscale>
<asrwt>0</asrwt>
<pdfrwt beam="1">  1        2 0.16151654E+00 0.23570582E+04</pdfrwt>
<pdfrwt beam="2">  1       -2 0.20353398E+00 0.23570582E+04</pdfrwt>
<totfact> 0.26638059E+00</totfact>
</mgrwt>
</event>
<event>
 6    1  0.5040916E-004  0.5829756E+03  0.7818608E-02  0.9941370E-01
          2   -1    0    0  501    0  0.00000000000E+00  0.00000000000E+00  0.82534796905E+03  0.82534796905E+03  0.00000000000E+00 0.  1.
         -2   -1    0    0    0  501 -0.00000000000E+00 -0.00000000000E+00 -0.10294462503E+03  0.10294462503E+03  0.00000000000E+00 0. -1.
         23    2    1    2    0    0  0.13754326811E+03  0.85266272630E+02  0.74241882755E+03  0.76523092651E+03  0.90576859800E+02 0.  0.
         11    1    3    3    0    0  0.51299089264E+02  0.65713260602E+02  0.50585385382E+03  0.51267723823E+03  0.00000000000E+00 0.  1.
        -11    1    3    3    0    0  0.86244178851E+02  0.19553012028E+02  0.23656497373E+03  0.25255368828E+03  0.00000000000E+00 0. -1.
         22    1    1    2    0    0 -0.13754326811E+03 -0.85266272630E+02 -0.20015483522E+02  0.16306166758E+03  0.00000000000E+00 0. -1.
<mgrwt>
<rscale>  0 0.58297560E+03</rscale>
<asrwt>0</asrwt>
<pdfrwt beam="1">  1        2 0.12697661E+00 0.58297560E+03</pdfrwt>
<pdfrwt beam="2">  1       -2 0.15837635E-01 0.58297560E+03</pdfrwt>
<totfact> 0.10610226E+03</totfact>
</mgrwt>
</event>
<event>
 6    1  0.5040916E-004  0.2097325E+04  0.7818608E-02  0.8562423E-01
          2   -1    0    0  501    0  0.00000000000E+00  0.00000000000E+00  0.70250422129E+03  0.70250422129E+03  0.00000000000E+00 0.  1.
         -2   -1    0    0    0  501 -0.00000000000E+00 -0.00000000000E+00 -0.15653893763E+04  0.15653893763E+04  0.00000000000E+00 0. -1.
         23    2    1    2    0    0 -0.48249466657E+03 -0.36638395643E+03 -0.13551119045E+04  0.14873005668E+04  0.93254466044E+02 0.  0.
         13    1    3    3    0    0 -0.21356476704E+03 -0.16430592886E+03 -0.49204543216E+03  0.56099470166E+03  0.00000000000E+00 0. -1.
        -13    1    3    3    0    0 -0.26892989953E+03 -0.20207802757E+03 -0.86306647232E+03  0.92630586511E+03  0.00000000000E+00 0.  1.
         22    1    1    2    0    0  0.48249466657E+03  0.36638395643E+03  0.49222674951E+03  0.78059303079E+03  0.00000000000E+00 0.  1.
<mgrwt>
<rscale>  0 0.20973246E+04</rscale>
<asrwt>0</asrwt>
<pdfrwt beam="1">  1        2 0.10807757E+00 0.20973246E+04</pdfrwt>
<pdfrwt beam="2">  1       -2 0.24082913E+00 0.20973246E+04</pdfrwt>
<totfact> 0.27513528E+00</totfact>
</mgrwt>
</event>
<event>
 6    1  0.5040916E-004  0.7258074E+03  0.7818608E-02  0.9674088E-01
         -2   -1    0    0    0  501 -0.00000000000E+00  0.00000000000E+00  0.18675454673E+03  0.18675454673E+03  0.00000000000E+00 0. -1.
          2   -1    0    0  501    0  0.00000000000E+00 -0.00000000000E+00 -0.70519880744E+03  0.70519880744E+03  0.00000000000E+00 0.  1.
         23    2    1    2    0    0 -0.16394388602E+03  0.30788657181E+03 -0.35760231793E+03  0.50784156130E+03  0.91388701340E+02 0.  0.
         11    1    3    3    0    0 -0.40931828011E+02  0.16473989463E+03 -0.19675681460E+03  0.25986129285E+03  0.00000000000E+00 0.  1.
        -11    1    3    3    0    0 -0.12301205801E+03  0.14314667718E+03 -0.16084550333E+03  0.24798026846E+03  0.00000000000E+00 0. -1.
         22    1    1    2    0    0  0.16394388602E+03 -0.30788657181E+03 -0.16084194278E+03  0.38411179287E+03  0.00000000000E+00 0.  1.
<mgrwt>
<rscale>  0 0.72580737E+03</rscale>
<asrwt>0</asrwt>
<pdfrwt beam="1">  1        2 0.10849212E+00 0.72580737E+03</pdfrwt>
<pdfrwt beam="2">  1       -2 0.28731469E-01 0.72580737E+03</pdfrwt>
<totfact> 0.45356758E+02</totfact>
</mgrwt>
</event>
<event>
 6    1  0.5040916E-004  0.3272785E+04  0.7818608E-02  0.8169855E-01
         -2   -1    0    0    0  501 -0.00000000000E+00  0.00000000000E+00  0.12185986947E+04  0.12185986947E+04  0.00000000000E+00 0. -1.
          2   -1    0    0  501    0  0.00000000000E+00 -0.00000000000E+00 -0.21974261221E+04  0.21974261221E+04  0.00000000000E+00 0.  1.
         23    2    1    2    0    0  0.24398739311E+03 -0.15912671024E+04 -0.78849962096E+03  0.17949493981E+04  0.91928507060E+02 0.  0.
         11    1    3    3    0    0  0.92867382127E+02 -0.63556408532E+03 -0.36471065364E+03  0.73863381867E+03  0.00000000000E+00 0. -1.
        -11    1    3    3    0    0  0.15112001098E+03 -0.95570301707E+03 -0.42378896733E+03  0.10563155794E+04  0.00000000000E+00 0.  1.
         22    1    1    2    0    0 -0.24398739311E+03  0.15912671024E+04 -0.19032780641E+03  0.16210754187E+04  0.00000000000E+00 0. -1.
<mgrwt>
<rscale>  0 0.32727851E+04</rscale>
<asrwt>0</asrwt>
<pdfrwt beam="1">  1        2 0.33806555E+00 0.32727851E+04</pdfrwt>
<pdfrwt beam="2">  1       -2 0.18747673E+00 0.32727851E+04</pdfrwt>
<totfact> 0.69906877E-01</totfact>
</mgrwt>
</event>
<event>
 6    1  0.5040916E-004  0.1930243E+04  0.7818608E-02  0.8639947E-01
          2   -1    0    0  501    0  0.00000000000E+00  0.00000000000E+00  0.78468108959E+03  0.78468108959E+03  0.00000000000E+00 0.  1.
         -2   -1    0    0    0  501 -0.00000000000E+00 -0.00000000000E+00 -0.11870547999E+04  0.11870547999E+04  0.00000000000E+00 0. -1.
         23    2    1    2    0    0 -0.35325784888E+03  0.72754418387E+03  0.33233422836E+03  0.87907519082E+03  0.90639420292E+02 0.  0.
         11    1    3    3    0    0 -0.94829161364E+02  0.22728032708E+03  0.14432718246E+03  0.28544570853E+03  0.00000000000E+00 0. -1.
        -11    1    3    3    0    0 -0.25842868751E+03  0.50026385679E+03  0.18800704589E+03  0.59362948229E+03  0.00000000000E+00 0.  1.
         22    1    1    2    0    0  0.35325784888E+03 -0.72754418387E+03 -0.73470793870E+03  0.10926606987E+04  0.00000000000E+00 0. -1.
<mgrwt>
<rscale>  0 0.19302429E+04</rscale>
<asrwt>0</asrwt>
<pdfrwt beam="1">  1        2 0.12072017E+00 0.19302429E+04</pdfrwt>
<pdfrwt beam="2">  1       -2 0.18262382E+00 0.19302429E+04</pdfrwt>
<totfact> 0.57402253E+00</totfact>
</mgrwt>
</event>
<event>
 6    1  0.5040916E-004  0.1887260E+04  0.7818608E-02  0.8661224E-01
          2   -1    0    0  501    0  0.00000000000E+00  0.00000000000E+00  0.40798011528E+03  0.40798011528E+03  0.00000000000E+00 0.  1.
         -2   -1    0    0    0  501 -0.00000000000E+00 -0.00000000000E+00 -0.21825522368E+04  0.21825522368E+04  0.00000000000E+00 0. -1.
         23    2    1    2    0    0  0.21681788145E+03 -0.38313566424E+03  0.25302991071E+03  0.51568948283E+03  0.90047632175E+02 0.  0.
         13    1    3    3    0    0  0.17026579793E+03 -0.35350712386E+03  0.20587718250E+03  0.44310624329E+03  0.00000000000E+00 0. -1.
        -13    1    3    3    0    0  0.46552083515E+02 -0.29628540374E+02  0.47152728216E+02  0.72583239543E+02  0.00000000000E+00 0.  1.
         22    1    1    2    0    0 -0.21681788145E+03  0.38313566424E+03 -0.20276020322E+04  0.20748428693E+04  0.00000000000E+00 0. -1.
<mgrwt>
<rscale>  0 0.18872604E+04</rscale>
<asrwt>0</asrwt>
<pdfrwt beam="1">  1        2 0.62766171E-01 0.18872604E+04</pdfrwt>
<pdfrwt beam="2">  1       -2 0.33577727E+00 0.18872604E+04</pdfrwt>
<totfact> 0.13966630E+00</totfact>
</mgrwt>
</event>
<event>
 6    1  0.5040916E-004  0.2237935E+04  0.7818608E-02  0.8502803E-01
          2   -1    0    0  501    0  0.00000000000E+00  0.00000000000E+00  0.36742361984E+04  0.36742361984E+04  0.00000000000E+00 0.  1.
         -2   -1    0    0    0  501 -0.00000000000E+00 -0.00000000000E+00 -0.34077504139E+03  0.34077504139E+03  0.00000000000E+00 0. -1.
         23    2    1    2    0    0  0.95818411512E+02  0.11072862184E+04  0.14676543333E+04  0.18432610145E+04  0.91312584877E+02 0.  0.
         13    1    3    3    0    0  0.42702911757E+02  0.59308942072E+03  0.71085457287E+03  0.92676470768E+03  0.00000000000E+00 0. -1.
        -13    1    3    3    0    0  0.53115499755E+02  0.51419679770E+03  0.75679976039E+03  0.91649630681E+03  0.00000000000E+00 0.  1.
         22    1    1    2    0    0 -0.95818411512E+02 -0.11072862184E+04  0.18658068237E+04  0.21717502253E+04  0.00000000000E+00 0.  1.
<mgrwt>
<rscale>  0 0.22379348E+04</rscale>
<asrwt>0</asrwt>
<pdfrwt beam="1">  1        2 0.56526708E+00 0.22379348E+04</pdfrwt>
<pdfrwt beam="2">  1       -2 0.52426932E-01 0.22379348E+04</pdfrwt>
<totfact> 0.19157779E+00</totfact>
</mgrwt>
</event>
<event>
 6    1  0.5969120E-004  0.2530622E+04  0.7818608E-02  0.8392157E-01
         -2   -1    0    0    0  501 -0.00000000000E+00  0.00000000000E+00  0.82495634425E+03  0.82495634425E+03  0.00000000000E+00 0. -1.
          2   -1    0    0  501    0  0.00000000000E+00 -0.00000000000E+00 -0.19407235266E+04  0.19407235266E+04  0.00000000000E+00 0.  1.
         23    2    1    2    0    0  0.61658808807E+02  0.46785078445E+03 -0.18397521796E+04  0.19014805642E+04  0.90852015448E+02 0.  0.
         13    1    3    3    0    0 -0.19156921931E+02  0.13444843584E+03 -0.59662675783E+03  0.61188794539E+03  0.00000000000E+00 0. -1.
        -13    1    3    3    0    0  0.80815730738E+02  0.33340234861E+03 -0.12431254217E+04  0.12895926188E+04  0.00000000000E+00 0.  1.
         22    1    1    2    0    0 -0.61658808807E+02 -0.46785078445E+03  0.72398499726E+03  0.86419930657E+03  0.00000000000E+00 0. -1.
<mgrwt>
<rscale>  0 0.25306222E+04</rscale>
<asrwt>0</asrwt>
<pdfrwt beam="1">  1        2 0.29857284E+00 0.25306222E+04</pdfrwt>
<pdfrwt beam="2">  1       -2 0.12691636E+00 0.25306222E+04</pdfrwt>
<totfact> 0.29593429E+00</totfact>
</mgrwt>
</event>
<event>
 6    1  0.5040916E-004  0.1470543E+04  0.7818608E-02  0.8904281E-01
          2   -1    0    0  501    0  0.00000000000E+00  0.00000000000E+00  0.15263617883E+04  0.15263617883E+04  0.00000000000E+00 0.  1.
         -2   -1    0    0    0  501 -0.00000000000E+00 -0.00000000000E+00 -0.35419125759E+03  0.35419125759E+03  0.00000000000E+00 0. -1.
         23    2    1    2    0    0  0.66809233052E+03  0.71439885159E+02  0.95863917902E+03  0.11755376862E+04  0.10699886381E+03 0.  0.
         11    1    3    3    0    0  0.18174770953E+03 -0.27916893914E+02  0.25031285784E+03  0.31059315782E+03  0.00000000000E+00 0. -1.
        -11    1    3    3    0    0  0.48634462099E+03  0.99356779073E+02  0.70832632117E+03  0.86494452838E+03  0.00000000000E+00 0.  1.
         22    1    1    2    0    0 -0.66809233052E+03 -0.71439885159E+02  0.21353135174E+03  0.70501535974E+03  0.00000000000E+00 0. -1.
<mgrwt>
<rscale>  0 0.14705428E+04</rscale>
<asrwt>0</asrwt>
<pdfrwt beam="1">  1        2 0.23482489E+00 0.14705428E+04</pdfrwt>
<pdfrwt beam="2">  1       -2 0.54490964E-01 0.14705428E+04</pdfrwt>
<totfact> 0.37641611E+01</totfact>
</mgrwt>
</event>
<event>
 6    1  0.5040916E-004  0.1698039E+04  0.7818608E-02  0.8762483E-01
          2   -1    0    0  501    0  0.00000000000E+00  0.00000000000E+00  0.20882157635E+04  0.20882157635E+04  0.00000000000E+00 0.  1.
         -2   -1    0    0    0  501 -0.00000000000E+00 -0.00000000000E+00 -0.34519152345E+03  0.34519152345E+03  0.00000000000E+00 0. -1.
         23    2    1    2    0    0  0.16787064330E+02 -0.80392398368E+03  0.49348941100E+03  0.94750255713E+03  0.87485541308E+02 0.  0.
         11    1    3    3    0    0 -0.35670568550E+02 -0.38473866152E+03  0.23506558880E+03  0.45227431738E+03  0.00000000000E+00 0.  1.
        -11    1    3    3    0    0  0.52457632880E+02 -0.41918532217E+03  0.25842382220E+03  0.49522823975E+03  0.00000000000E+00 0. -1.
         22    1    1    2    0    0 -0.16787064330E+02  0.80392398368E+03  0.12495348291E+04  0.14859047298E+04  0.00000000000E+00 0.  1.
<mgrwt>
<rscale>  0 0.16980393E+04</rscale>
<asrwt>0</asrwt>
<pdfrwt beam="1">  1        2 0.32126396E+00 0.16980393E+04</pdfrwt>
<pdfrwt beam="2">  1       -2 0.53106389E-01 0.16980393E+04</pdfrwt>
<totfact> 0.18986829E+01</totfact>
</mgrwt>
</event>
<event>
 6    1  0.5040916E-004  0.9183807E+03  0.7818608E-02  0.9402892E-01
          2   -1    0    0  501    0  0.00000000000E+00  0.00000000000E+00  0.36048897143E+03  0.36048897143E+03  0.00000000000E+00 0. -1.
         -2   -1    0    0    0  501 -0.00000000000E+00 -0.00000000000E+00 -0.58491606356E+03  0.58491606356E+03  0.00000000000E+00 0.  1.
         23    2    1    2    0    0  0.83991409998E+02 -0.35230474783E+03 -0.39608707217E+03  0.54460540795E+03  0.92395288469E+02 0.  0.
         11    1    3    3    0    0 -0.19754472518E+01 -0.49058560861E+02 -0.17827372863E+02  0.52234662906E+02  0.00000000000E+00 0.  1.
        -11    1    3    3    0    0  0.85966857250E+02 -0.30324618697E+03 -0.37825969930E+03  0.49237074504E+03  0.00000000000E+00 0. -1.
         22    1    1    2    0    0 -0.83991409998E+02  0.35230474783E+03  0.17165998003E+03  0.40079962705E+03  0.00000000000E+00 0. -1.
<mgrwt>
<rscale>  0 0.91838073E+03</rscale>
<asrwt>0</asrwt>
<pdfrwt beam="1">  1        2 0.55459842E-01 0.91838073E+03</pdfrwt>
<pdfrwt beam="2">  1       -2 0.89987086E-01 0.91838073E+03</pdfrwt>
<totfact> 0.94781438E+01</totfact>
</mgrwt>
</event>
<event>
 6    1  0.5040916E-004  0.1845522E+04  0.7818608E-02  0.8682459E-01
         -2   -1    0    0    0  501 -0.00000000000E+00  0.00000000000E+00  0.39581215206E+03  0.39581215206E+03  0.00000000000E+00 0. -1.
          2   -1    0    0  501    0  0.00000000000E+00 -0.00000000000E+00 -0.21512418625E+04  0.21512418625E+04  0.00000000000E+00 0.  1.
         23    2    1    2    0    0  0.29554720415E+03  0.77905672903E+03 -0.14214064819E+04  0.16493630577E+04  0.75660902738E+02 0.  0.
         13    1    3    3    0    0  0.96493381593E+02  0.30714479412E+03 -0.48706430973E+03  0.58384975726E+03  0.00000000000E+00 0. -1.
        -13    1    3    3    0    0  0.19905382255E+03  0.47191193491E+03 -0.93434217220E+03  0.10655133004E+04  0.00000000000E+00 0.  1.
         22    1    1    2    0    0 -0.29554720415E+03 -0.77905672903E+03 -0.33402322854E+03  0.89769095691E+03  0.00000000000E+00 0. -1.
<mgrwt>
<rscale>  0 0.18455218E+04</rscale>
<asrwt>0</asrwt>
<pdfrwt beam="1">  1        2 0.33096029E+00 0.18455218E+04</pdfrwt>
<pdfrwt beam="2">  1       -2 0.60894176E-01 0.18455218E+04</pdfrwt>
<totfact> 0.12987270E+01</totfact>
</mgrwt>
</event>
<event>
 6    1  0.5040916E-004  0.2386942E+04  0.7818608E-02  0.8444408E-01
         -2   -1    0    0    0  501 -0.00000000000E+00  0.00000000000E+00  0.27807814795E+04  0.27807814795E+04  0.00000000000E+00 0. -1.
          2   -1    0    0  501    0  0.00000000000E+00 -0.00000000000E+00 -0.51222053716E+03  0.51222053716E+03  0.00000000000E+00 0.  1.
         23    2    1    2    0    0  0.97662188477E+03 -0.35427233143E+03  0.19415940682E+04  0.22038709284E+04  0.89220809212E+02 0.  0.
         11    1    3    3    0    0  0.34360431965E+03 -0.12537632270E+03  0.59559333419E+03  0.69893817360E+03  0.00000000000E+00 0. -1.
        -11    1    3    3    0    0  0.63301756512E+03 -0.22889600873E+03  0.13460007340E+04  0.15049327548E+04  0.00000000000E+00 0.  1.
         22    1    1    2    0    0 -0.97662188477E+03  0.35427233143E+03  0.32696687415E+03  0.10891310883E+04  0.00000000000E+00 0.  1.
<mgrwt>
<rscale>  0 0.23869423E+04</rscale>
<asrwt>0</asrwt>
<pdfrwt beam="1">  1        2 0.78803161E-01 0.23869423E+04</pdfrwt>
<pdfrwt beam="2">  1       -2 0.42781253E+00 0.23869423E+04</pdfrwt>
<totfact> 0.26242112E-01</totfact>
</mgrwt>
</event>
<event>
 6    1  0.5040916E-004  0.1270070E+04  0.7818608E-02  0.9053642E-01
         -1   -1    0    0    0  501 -0.00000000000E+00  0.00000000000E+00  0.23915007076E+03  0.23915007076E+03  0.00000000000E+00 0. -1.
          1   -1    0    0  501    0  0.00000000000E+00 -0.00000000000E+00 -0.16862615135E+04  0.16862615135E+04  0.00000000000E+00 0.  1.
         23    2    1    2    0    0 -0.22413906885E+03  0.47432405402E+03 -0.12608671000E+04  0.13687172466E+04  0.91539209498E+02 0.  0.
         13    1    3    3    0    0 -0.82026600209E+02  0.12359308274E+03 -0.45166515616E+03  0.47539985963E+03  0.00000000000E+00 0. -1.
        -13    1    3    3    0    0 -0.14211246864E+03  0.35073097128E+03 -0.80920194380E+03  0.89331738694E+03  0.00000000000E+00 0.  1.
         22    1    1    2    0    0  0.22413906885E+03 -0.47432405402E+03 -0.18624434279E+03  0.55669433770E+03  0.00000000000E+00 0. -1.
<mgrwt>
<rscale>  0 0.12700702E+04</rscale>
<asrwt>0</asrwt>
<pdfrwt beam="1">  1        1 0.25942484E+00 0.12700702E+04</pdfrwt>
<pdfrwt beam="2">  1       -1 0.36792320E-01 0.12700702E+04</pdfrwt>
<totfact> 0.34016606E+01</totfact>
</mgrwt>
</event>
<event>
 6    1  0.5040916E-004  0.2818984E+04  0.7818608E-02  0.8297399E-01
          2   -1    0    0  501    0  0.00000000000E+00  0.00000000000E+00  0.37508284356E+04  0.37508284356E+04  0.00000000000E+00 0.  1.
         -2   -1    0    0    0  501 -0.00000000000E+00 -0.00000000000E+00 -0.52966110229E+03  0.52966110229E+03  0.00000000000E+00 0. -1.
         23    2    1    2    0    0 -0.91494642709E+03 -0.65870681133E+03  0.28930213836E+04  0.31063083798E+04  0.92506198069E+02 0.  0.
         13    1    3    3    0    0 -0.63457824035E+03 -0.42158680698E+03  0.18608806590E+04  0.20107963114E+04  0.00000000000E+00 0.  1.
        -13    1    3    3    0    0 -0.28036818674E+03 -0.23712000435E+03  0.10321407245E+04  0.10955120683E+04  0.00000000000E+00 0. -1.
         22    1    1    2    0    0  0.91494642709E+03  0.65870681133E+03  0.32814594973E+03  0.11741811581E+04  0.00000000000E+00 0. -1.
<mgrwt>
<rscale>  0 0.28189842E+04</rscale>
<asrwt>0</asrwt>
<pdfrwt beam="1">  1        2 0.57705051E+00 0.28189842E+04</pdfrwt>
<pdfrwt beam="2">  1       -2 0.81486326E-01 0.28189842E+04</pdfrwt>
<totfact> 0.61641697E-01</totfact>
</mgrwt>
</event>
<event>
 6    1  0.5040916E-004  0.1819074E+04  0.7818608E-02  0.8696221E-01
         -2   -1    0    0    0  501 -0.00000000000E+00  0.00000000000E+00  0.13973819444E+04  0.13973819444E+04  0.00000000000E+00 0. -1.
          2   -1    0    0  501    0  0.00000000000E+00 -0.00000000000E+00 -0.59200552594E+03  0.59200552594E+03  0.00000000000E+00 0.  1.
         23    2    1    2    0    0  0.40223532705E+03  0.61715875535E+03 -0.17497258679E+03  0.76310758397E+03  0.95076763453E+02 0.  0.
         13    1    3    3    0    0  0.26524731096E+03  0.32592897565E+03 -0.11567196985E+03  0.43585070580E+03  0.00000000000E+00 0. -1.
        -13    1    3    3    0    0  0.13698801609E+03  0.29122977970E+03 -0.59300616936E+02  0.32725687817E+03  0.00000000000E+00 0.  1.
         22    1    1    2    0    0 -0.40223532705E+03 -0.61715875535E+03  0.98034900530E+03  0.12262798864E+04  0.00000000000E+00 0. -1.
<mgrwt>
<rscale>  0 0.18190743E+04</rscale>
<asrwt>0</asrwt>
<pdfrwt beam="1">  1        2 0.91077774E-01 0.18190743E+04</pdfrwt>
<pdfrwt beam="2">  1       -2 0.21498184E+00 0.18190743E+04</pdfrwt>
<totfact> 0.50510859E+00</totfact>
</mgrwt>
</event>
<event>
 6    1  0.5040916E-004  0.4308011E+04  0.7818608E-02  0.7945138E-01
         -2   -1    0    0    0  501 -0.00000000000E+00  0.00000000000E+00  0.27155217521E+04  0.27155217521E+04  0.00000000000E+00 0.  1.
          2   -1    0    0  501    0  0.00000000000E+00 -0.00000000000E+00 -0.17085999509E+04  0.17085999509E+04  0.00000000000E+00 0. -1.
         23    2    1    2    0    0  0.14202652879E+04  0.13945742947E+04  0.13463616484E+04  0.24049113718E+04  0.94435514493E+02 0.  0.
         13    1    3    3    0    0  0.97219219567E+03  0.89431570017E+03  0.87817733892E+03  0.15862388457E+04  0.00000000000E+00 0.  1.
        -13    1    3    3    0    0  0.44807309223E+03  0.50025859455E+03  0.46818430950E+03  0.81867252615E+03  0.00000000000E+00 0. -1.
         22    1    1    2    0    0 -0.14202652879E+04 -0.13945742947E+04 -0.33943984726E+03  0.20192103311E+04  0.00000000000E+00 0. -1.
<mgrwt>
<rscale>  0 0.43080113E+04</rscale>
<asrwt>0</asrwt>
<pdfrwt beam="1">  1        2 0.26286153E+00 0.43080113E+04</pdfrwt>
<pdfrwt beam="2">  1       -2 0.41777258E+00 0.43080113E+04</pdfrwt>
<totfact> 0.42337252E-02</totfact>
</mgrwt>
</event>
<event>
 6    1  0.5040916E-004  0.2406805E+04  0.7818608E-02  0.8436960E-01
         -2   -1    0    0    0  501 -0.00000000000E+00  0.00000000000E+00  0.95730707399E+03  0.95730707399E+03  0.00000000000E+00 0. -1.
          2   -1    0    0  501    0  0.00000000000E+00 -0.00000000000E+00 -0.15127623939E+04  0.15127623939E+04  0.00000000000E+00 0.  1.
         23    2    1    2    0    0  0.86927044985E+03 -0.18578843367E+03 -0.11077933620E+04  0.14235391197E+04  0.95441266493E+02 0.  0.
         13    1    3    3    0    0  0.50639480646E+03 -0.62348949798E+02 -0.65598079338E+03  0.83104385735E+03  0.00000000000E+00 0. -1.
        -13    1    3    3    0    0  0.36287564339E+03 -0.12343948387E+03 -0.45181256858E+03  0.59249526232E+03  0.00000000000E+00 0.  1.
         22    1    1    2    0    0 -0.86927044985E+03  0.18578843367E+03  0.55233804204E+03  0.10465303482E+04  0.00000000000E+00 0. -1.
<mgrwt>
<rscale>  0 0.24068055E+04</rscale>
<asrwt>0</asrwt>
<pdfrwt beam="1">  1        2 0.23273268E+00 0.24068055E+04</pdfrwt>
<pdfrwt beam="2">  1       -2 0.14727801E+00 0.24068055E+04</pdfrwt>
<totfact> 0.35294284E+00</totfact>
</mgrwt>
</event>
<event>
 6    1  0.5040916E-004  0.3997660E+04  0.7818608E-02  0.8005019E-01
          2   -1    0    0  501    0  0.00000000000E+00  0.00000000000E+00  0.23570501815E+04  0.23570501815E+04  0.00000000000E+00 0.  1.
         -2   -1    0    0    0  501 -0.00000000000E+00 -0.00000000000E+00 -0.16950516259E+04  0.16950516259E+04  0.00000000000E+00 0. -1.
         23    2    1    2    0    0 -0.42756238255E+03  0.17364320497E+03  0.23014069518E+04  0.23489807186E+04  0.90966503790E+02 0.  0.
         13    1    3    3    0    0 -0.20031283443E+03  0.32745742738E+02  0.99617816640E+03  0.10166456878E+04  0.00000000000E+00 0.  1.
        -13    1    3    3    0    0 -0.22724954812E+03  0.14089746224E+03  0.13052287854E+04  0.13323350308E+04  0.00000000000E+00 0. -1.
         22    1    1    2    0    0  0.42756238255E+03 -0.17364320497E+03 -0.16394083962E+04  0.17031210888E+04  0.00000000000E+00 0. -1.
<mgrwt>
<rscale>  0 0.39976602E+04</rscale>
<asrwt>0</asrwt>
<pdfrwt beam="1">  1        2 0.36262311E+00 0.39976602E+04</pdfrwt>
<pdfrwt beam="2">  1       -2 0.26077717E+00 0.39976602E+04</pdfrwt>
<totfact> 0.18319203E-01</totfact>
</mgrwt>
</event>
<event>
 6    1  0.5040916E-004  0.3323291E+04  0.7818608E-02  0.8156994E-01
          1   -1    0    0  501    0  0.00000000000E+00  0.00000000000E+00  0.36420762378E+04  0.36420762378E+04  0.00000000000E+00 0.  1.
         -1   -1    0    0    0  501 -0.00000000000E+00 -0.00000000000E+00 -0.75810197511E+03  0.75810197511E+03  0.00000000000E+00 0. -1.
         23    2    1    2    0    0  0.75279548970E+03 -0.10271923004E+04  0.32557355381E+02  0.12772943773E+04  0.92713934138E+02 0.  0.
         13    1    3    3    0    0  0.39914106736E+03 -0.60023779666E+03  0.50530588750E+02  0.72260109646E+03  0.00000000000E+00 0.  1.
        -13    1    3    3    0    0  0.35365442233E+03 -0.42695450376E+03 -0.17973233369E+02  0.55469328086E+03  0.00000000000E+00 0. -1.
         22    1    1    2    0    0 -0.75279548970E+03  0.10271923004E+04  0.28514169073E+04  0.31228838356E+04  0.00000000000E+00 0.  1.
<mgrwt>
<rscale>  0 0.33232907E+04</rscale>
<asrwt>0</asrwt>
<pdfrwt beam="1">  1        1 0.56031941E+00 0.33232907E+04</pdfrwt>
<pdfrwt beam="2">  1       -1 0.11663107E+00 0.33232907E+04</pdfrwt>
<totfact> 0.10551566E-01</totfact>
</mgrwt>
</event>
<event>
 6    1  0.5040916E-004  0.4964473E+04  0.7818608E-02  0.7834011E-01
         -3   -1    0    0    0  501 -0.00000000000E+00  0.00000000000E+00  0.16157066543E+04  0.16157066543E+04  0.00000000000E+00 0.  1.
          3   -1    0    0  501    0  0.00000000000E+00 -0.00000000000E+00 -0.38135011987E+04  0.38135011987E+04  0.00000000000E+00 0. -1.
         23    2    1    2    0    0 -0.24578147611E+04 -0.33154568743E+02 -0.14709141937E+04  0.28659467133E+04  0.90052057868E+02 0.  0.
         11    1    3    3    0    0 -0.14805824805E+04 -0.32916819432E+02 -0.93506439109E+03  0.17514432375E+04  0.00000000000E+00 0. -1.
        -11    1    3    3    0    0 -0.97723228059E+03 -0.23774931039E+00 -0.53584980257E+03  0.11145034758E+04  0.00000000000E+00 0.  1.
         22    1    1    2    0    0  0.24578147611E+04  0.33154568743E+02 -0.72688035074E+03  0.25632611396E+04  0.00000000000E+00 0. -1.
<mgrwt>
<rscale>  0 0.49644735E+04</rscale>
<asrwt>0</asrwt>
<pdfrwt beam="1">  1        3 0.58669249E+00 0.49644735E+04</pdfrwt>
<pdfrwt beam="2">  1       -3 0.24857026E+00 0.49644735E+04</pdfrwt>
<totfact> 0.18307238E-04</totfact>
</mgrwt>
</event>
<event>
 6    1  0.5040916E-004  0.1672400E+04  0.7818608E-02  0.8777264E-01
          2   -1    0    0  501    0  0.00000000000E+00  0.00000000000E+00  0.12991123715E+04  0.12991123715E+04  0.00000000000E+00 0.  1.
         -2   -1    0    0    0  501 -0.00000000000E+00 -0.00000000000E+00 -0.53823713734E+03  0.53823713734E+03  0.00000000000E+00 0. -1.
         23    2    1    2    0    0  0.32059848150E+03 -0.75689487684E+03  0.53462840507E+03  0.98478815114E+03  0.91142362201E+02 0.  0.
         11    1    3    3    0    0  0.12079361349E+03 -0.31197583855E+03  0.16623642245E+03  0.37357003232E+03  0.00000000000E+00 0. -1.
        -11    1    3    3    0    0  0.19980486802E+03 -0.44491903829E+03  0.36839198262E+03  0.61121811882E+03  0.00000000000E+00 0.  1.
         22    1    1    2    0    0 -0.32059848150E+03  0.75689487684E+03  0.22624682907E+03  0.85256135767E+03  0.00000000000E+00 0. -1.
<mgrwt>
<rscale>  0 0.16724001E+04</rscale>
<asrwt>0</asrwt>
<pdfrwt beam="1">  1        2 0.19986344E+00 0.16724001E+04</pdfrwt>
<pdfrwt beam="2">  1       -2 0.82805714E-01 0.16724001E+04</pdfrwt>
<totfact> 0.20183986E+01</totfact>
</mgrwt>
</event>
<event>
 6    1  0.5040916E-004  0.2064601E+04  0.7818608E-02  0.8576999E-01
          1   -1    0    0  501    0  0.00000000000E+00  0.00000000000E+00  0.16360916969E+04  0.16360916969E+04  0.00000000000E+00 0.  1.
         -1   -1    0    0    0  501 -0.00000000000E+00 -0.00000000000E+00 -0.65133537827E+03  0.65133537827E+03  0.00000000000E+00 0. -1.
         23    2    1    2    0    0 -0.67322870514E+01 -0.62225374262E+03  0.14041368527E+04  0.15370104734E+04  0.59630949067E+02 0.  0.
         13    1    3    3    0    0  0.61870869065E+01 -0.37513151118E+03  0.77774337458E+03  0.86350835979E+03  0.00000000000E+00 0. -1.
        -13    1    3    3    0    0 -0.12919373958E+02 -0.24712223145E+03  0.62639347815E+03  0.67350211356E+03  0.00000000000E+00 0.  1.
         22    1    1    2    0    0  0.67322870514E+01  0.62225374262E+03 -0.41938053410E+03  0.75041660182E+03  0.00000000000E+00 0. -1.
<mgrwt>
<rscale>  0 0.20646011E+04</rscale>
<asrwt>0</asrwt>
<pdfrwt beam="1">  1        1 0.25170641E+00 0.20646011E+04</pdfrwt>
<pdfrwt beam="2">  1       -1 0.10020544E+00 0.20646011E+04</pdfrwt>
<totfact> 0.46121969E+00</totfact>
</mgrwt>
</event>
<event>
 6    1  0.5040916E-004  0.8668470E+03  0.7818608E-02  0.9468000E-01
          2   -1    0    0  501    0  0.00000000000E+00  0.00000000000E+00  0.11453546643E+04  0.11453546643E+04  0.00000000000E+00 0.  1.
         -2   -1    0    0    0  501 -0.00000000000E+00 -0.00000000000E+00 -0.16401549385E+03  0.16401549385E+03  0.00000000000E+00 0. -1.
         23    2    1    2    0    0  0.37941794510E+03  0.65092631089E+01  0.19493538225E+03  0.43619705637E+03  0.90927010097E+02 0.  0.
         13    1    3    3    0    0  0.27538385992E+03  0.37994050786E+02  0.16574003892E+03  0.32365039580E+03  0.00000000000E+00 0. -1.
        -13    1    3    3    0    0  0.10403408518E+03 -0.31484787677E+02  0.29195343333E+02  0.11254666058E+03  0.00000000000E+00 0.  1.
         22    1    1    2    0    0 -0.37941794510E+03 -0.65092631089E+01  0.78640378817E+03  0.87317310174E+03  0.00000000000E+00 0. -1.
<mgrwt>
<rscale>  0 0.86684696E+03</rscale>
<asrwt>0</asrwt>
<pdfrwt beam="1">  1        2 0.17620840E+00 0.86684696E+03</pdfrwt>
<pdfrwt beam="2">  1       -2 0.25233154E-01 0.86684696E+03</pdfrwt>
<totfact> 0.28887494E+02</totfact>
</mgrwt>
</event>
<event>
 6    1  0.5040916E-004  0.3203909E+04  0.7818608E-02  0.8187785E-01
          2   -1    0    0  501    0  0.00000000000E+00  0.00000000000E+00  0.31388482041E+04  0.31388482041E+04  0.00000000000E+00 0.  1.
         -2   -1    0    0    0  501 -0.00000000000E+00 -0.00000000000E+00 -0.81757982760E+03  0.81757982760E+03  0.00000000000E+00 0. -1.
         23    2    1    2    0    0 -0.83122953424E+02  0.31730832745E+03  0.30962489829E+04  0.31148884067E+04  0.90432415874E+02 0.  0.
         11    1    3    3    0    0 -0.25503534409E+02  0.25137533143E+03  0.22828324591E+04  0.22967725233E+04  0.00000000000E+00 0.  1.
        -11    1    3    3    0    0 -0.57619419015E+02  0.65932996021E+02  0.81341652384E+03  0.81811588340E+03  0.00000000000E+00 0. -1.
         22    1    1    2    0    0  0.83122953424E+02 -0.31730832745E+03 -0.77498060645E+03  0.84153962499E+03  0.00000000000E+00 0. -1.
<mgrwt>
<rscale>  0 0.32039095E+04</rscale>
<asrwt>0</asrwt>
<pdfrwt beam="1">  1        2 0.48289972E+00 0.32039095E+04</pdfrwt>
<pdfrwt beam="2">  1       -2 0.12578151E+00 0.32039095E+04</pdfrwt>
<totfact> 0.56407024E-01</totfact>
</mgrwt>
</event>
<event>
 6    1  0.5040916E-004  0.2053781E+04  0.7818608E-02  0.8581881E-01
          2   -1    0    0  501    0  0.00000000000E+00  0.00000000000E+00  0.13253503070E+04  0.13253503070E+04  0.00000000000E+00 0.  1.
         -2   -1    0    0    0  501 -0.00000000000E+00 -0.00000000000E+00 -0.79564208281E+03  0.79564208281E+03  0.00000000000E+00 0. -1.
         23    2    1    2    0    0 -0.67243027517E+03 -0.77468327554E+03  0.26765795845E+03  0.10622351021E+04  0.66377534855E+02 0.  0.
         13    1    3    3    0    0 -0.25922662108E+03 -0.34459945005E+03  0.12562479977E+03  0.44914230748E+03  0.00000000000E+00 0. -1.
        -13    1    3    3    0    0 -0.41320365409E+03 -0.43008382549E+03  0.14203315868E+03  0.61309279466E+03  0.00000000000E+00 0.  1.
         22    1    1    2    0    0  0.67243027517E+03  0.77468327554E+03  0.26205026570E+03  0.10587572876E+04  0.00000000000E+00 0.  1.
<mgrwt>
<rscale>  0 0.20537814E+04</rscale>
<asrwt>0</asrwt>
<pdfrwt beam="1">  1        2 0.20390005E+00 0.20537814E+04</pdfrwt>
<pdfrwt beam="2">  1       -2 0.12240647E+00 0.20537814E+04</pdfrwt>
<totfact> 0.74707906E+00</totfact>
</mgrwt>
</event>
<event>
 6    1  0.5040916E-004  0.2478946E+04  0.7818608E-02  0.8410525E-01
          2   -1    0    0  501    0  0.00000000000E+00  0.00000000000E+00  0.16028727665E+04  0.16028727665E+04  0.00000000000E+00 0.  1.
         -2   -1    0    0    0  501 -0.00000000000E+00 -0.00000000000E+00 -0.95846242519E+03  0.95846242519E+03  0.00000000000E+00 0. -1.
         23    2    1    2    0    0  0.70964680127E+03 -0.69853345119E+03  0.10823228212E+04  0.14735324039E+04  0.91255086941E+02 0.  0.
         11    1    3    3    0    0  0.12440926816E+03 -0.10754814403E+03  0.22894193469E+03  0.28188415839E+03  0.00000000000E+00 0. -1.
        -11    1    3    3    0    0  0.58523753311E+03 -0.59098530716E+03  0.85338088656E+03  0.11916482455E+04  0.00000000000E+00 0.  1.
         22    1    1    2    0    0 -0.70964680127E+03  0.69853345119E+03 -0.43791247997E+03  0.10878027878E+04  0.00000000000E+00 0. -1.
<mgrwt>
<rscale>  0 0.24789460E+04</rscale>
<asrwt>0</asrwt>
<pdfrwt beam="1">  1        2 0.24659581E+00 0.24789460E+04</pdfrwt>
<pdfrwt beam="2">  1       -2 0.14745576E+00 0.24789460E+04</pdfrwt>
<totfact> 0.31124755E+00</totfact>
</mgrwt>
</event>
<event>
 6    1  0.5040916E-004  0.2127527E+04  0.7818608E-02  0.8549213E-01
         -2   -1    0    0    0  501 -0.00000000000E+00  0.00000000000E+00  0.12602578451E+04  0.12602578451E+04  0.00000000000E+00 0. -1.
          2   -1    0    0  501    0  0.00000000000E+00 -0.00000000000E+00 -0.89790594529E+03  0.89790594529E+03  0.00000000000E+00 0.  1.
         23    2    1    2    0    0  0.31484568076E+03  0.71167692916E+03  0.91435998882E+03  0.12040543709E+04  0.89893741017E+02 0.  0.
         13    1    3    3    0    0  0.21672060770E+03  0.39473332927E+03  0.49215117355E+03  0.66707945604E+03  0.00000000000E+00 0. -1.
        -13    1    3    3    0    0  0.98125073063E+02  0.31694359989E+03  0.42220881527E+03  0.53697491484E+03  0.00000000000E+00 0.  1.
         22    1    1    2    0    0 -0.31484568076E+03 -0.71167692916E+03 -0.55200808897E+03  0.95410941955E+03  0.00000000000E+00 0.  1.
<mgrwt>
<rscale>  0 0.21275272E+04</rscale>
<asrwt>0</asrwt>
<pdfrwt beam="1">  1        2 0.13813938E+00 0.21275272E+04</pdfrwt>
<pdfrwt beam="2">  1       -2 0.19388582E+00 0.21275272E+04</pdfrwt>
<totfact> 0.39474703E+00</totfact>
</mgrwt>
</event>
<event>
 6    1  0.5040916E-004  0.2179929E+04  0.7818608E-02  0.8526829E-01
         -2   -1    0    0    0  501 -0.00000000000E+00  0.00000000000E+00  0.39172156438E+03  0.39172156438E+03  0.00000000000E+00 0. -1.
          2   -1    0    0  501    0  0.00000000000E+00 -0.00000000000E+00 -0.30328250182E+04  0.30328250182E+04  0.00000000000E+00 0.  1.
         23    2    1    2    0    0 -0.16667480743E+03  0.10396734840E+04 -0.17537304190E+04  0.20475453670E+04  0.90389173263E+02 0.  0.
         11    1    3    3    0    0 -0.80484103002E+02  0.66253902312E+03 -0.10405063636E+04  0.12361590272E+04  0.00000000000E+00 0.  1.
        -11    1    3    3    0    0 -0.86190704432E+02  0.37713446090E+03 -0.71322405543E+03  0.81138633978E+03  0.00000000000E+00 0. -1.
         22    1    1    2    0    0  0.16667480743E+03 -0.10396734840E+04 -0.88737303486E+03  0.13770012156E+04  0.00000000000E+00 0. -1.
<mgrwt>
<rscale>  0 0.21799293E+04</rscale>
<asrwt>0</asrwt>
<pdfrwt beam="1">  1        2 0.46658845E+00 0.21799293E+04</pdfrwt>
<pdfrwt beam="2">  1       -2 0.60264858E-01 0.21799293E+04</pdfrwt>
<totfact> 0.39059981E+00</totfact>
</mgrwt>
</event>
<event>
 6    1  0.5040916E-004  0.1796381E+04  0.7818608E-02  0.8708227E-01
          4   -1    0    0  501    0  0.00000000000E+00  0.00000000000E+00  0.69326942080E+03  0.69326942080E+03  0.00000000000E+00 0.  1.
         -4   -1    0    0    0  501 -0.00000000000E+00 -0.00000000000E+00 -0.11636831278E+04  0.11636831278E+04  0.00000000000E+00 0. -1.
         23    2    1    2    0    0  0.46842622976E+03 -0.75273061024E+03 -0.10283744247E+03  0.89719277940E+03  0.91393870180E+02 0.  0.
         11    1    3    3    0    0  0.18062886732E+03 -0.21333304808E+03 -0.20203584575E+02  0.28026052513E+03  0.00000000000E+00 0.  1.
        -11    1    3    3    0    0  0.28779736244E+03 -0.53939756215E+03 -0.82633857894E+02  0.61693225427E+03  0.00000000000E+00 0. -1.
         22    1    1    2    0    0 -0.46842622976E+03  0.75273061024E+03 -0.36757626452E+03  0.95975976919E+03  0.00000000000E+00 0. -1.
<mgrwt>
<rscale>  0 0.17963807E+04</rscale>
<asrwt>0</asrwt>
<pdfrwt beam="1">  1        4 0.10665684E+00 0.17963807E+04</pdfrwt>
<pdfrwt beam="2">  1       -4 0.17902817E+00 0.17963807E+04</pdfrwt>
<totfact> 0.24386519E-01</totfact>
</mgrwt>
</event>
<event>
 6    1  0.5040916E-004  0.1475803E+04  0.7818608E-02  0.8900705E-01
          2   -1    0    0  501    0  0.00000000000E+00  0.00000000000E+00  0.12665490668E+04  0.12665490668E+04  0.00000000000E+00 0.  1.
         -2   -1    0    0    0  501 -0.00000000000E+00 -0.00000000000E+00 -0.42990742428E+03  0.42990742428E+03  0.00000000000E+00 0. -1.
         23    2    1    2    0    0 -0.18598170100E+03 -0.22079746310E+03  0.11969693856E+04  0.12347457642E+04  0.92307525755E+02 0.  0.
         13    1    3    3    0    0 -0.93597957249E+02 -0.44157686421E+02  0.43340694149E+03  0.44559180401E+03  0.00000000000E+00 0.  1.
        -13    1    3    3    0    0 -0.92383743756E+02 -0.17663977667E+03  0.76356244415E+03  0.78915396022E+03  0.00000000000E+00 0. -1.
         22    1    1    2    0    0  0.18598170100E+03  0.22079746310E+03 -0.36032774313E+03  0.46171072685E+03  0.00000000000E+00 0. -1.
<mgrwt>
<rscale>  0 0.14758033E+04</rscale>
<asrwt>0</asrwt>
<pdfrwt beam="1">  1        2 0.19485370E+00 0.14758033E+04</pdfrwt>
<pdfrwt beam="2">  1       -2 0.66139604E-01 0.14758033E+04</pdfrwt>
<totfact> 0.35202563E+01</totfact>
</mgrwt>
</event>
<event>
 6    1  0.5040916E-004  0.1016791E+04  0.7818608E-02  0.9290319E-01
          2   -1    0    0  501    0  0.00000000000E+00  0.00000000000E+00  0.65914960748E+03  0.65914960748E+03  0.00000000000E+00 0.  1.
         -2   -1    0    0    0  501 -0.00000000000E+00 -0.00000000000E+00 -0.39212000062E+03  0.39212000062E+03  0.00000000000E+00 0. -1.
         23    2    1    2    0    0 -0.49953088164E+03 -0.26200942039E+02  0.20040209131E+03  0.54663427749E+03  0.91817449601E+02 0.  0.
         11    1    3    3    0    0 -0.17206798052E+03 -0.51358162560E+02  0.83358076485E+02  0.19797378538E+03  0.00000000000E+00 0. -1.
        -11    1    3    3    0    0 -0.32746290112E+03  0.25157220520E+02  0.11704401483E+03  0.34866049211E+03  0.00000000000E+00 0.  1.
         22    1    1    2    0    0  0.49953088164E+03  0.26200942039E+02  0.66627515545E+02  0.50463533061E+03  0.00000000000E+00 0. -1.
<mgrwt>
<rscale>  0 0.10167905E+04</rscale>
<asrwt>0</asrwt>
<pdfrwt beam="1">  1        2 0.10140763E+00 0.10167905E+04</pdfrwt>
<pdfrwt beam="2">  1       -2 0.60326154E-01 0.10167905E+04</pdfrwt>
<totfact> 0.11292016E+02</totfact>
</mgrwt>
</event>
<event>
 6    1  0.5040916E-004  0.1230590E+04  0.7818608E-02  0.9086495E-01
         -2   -1    0    0    0  501 -0.00000000000E+00  0.00000000000E+00  0.16099324314E+03  0.16099324314E+03  0.00000000000E+00 0.  1.
          2   -1    0    0  501    0  0.00000000000E+00 -0.00000000000E+00 -0.23515758013E+04  0.23515758013E+04  0.00000000000E+00 0. -1.
         23    2    1    2    0    0  0.22769758898E+03  0.24072340510E+03 -0.21516952010E+04  0.21789432416E+04  0.90595044627E+02 0.  0.
         11    1    3    3    0    0  0.20477994777E+03  0.24469661512E+03 -0.20449219741E+04  0.20696659490E+04  0.00000000000E+00 0. -1.
        -11    1    3    3    0    0  0.22917641209E+02 -0.39732100138E+01 -0.10677322694E+03  0.10927729255E+03  0.00000000000E+00 0.  1.
         22    1    1    2    0    0 -0.22769758898E+03 -0.24072340510E+03 -0.38887357128E+02  0.33362580286E+03  0.00000000000E+00 0.  1.
<mgrwt>
<rscale>  0 0.12305898E+04</rscale>
<asrwt>0</asrwt>
<pdfrwt beam="1">  1        2 0.36178087E+00 0.12305898E+04</pdfrwt>
<pdfrwt beam="2">  1       -2 0.24768193E-01 0.12305898E+04</pdfrwt>
<totfact> 0.61135751E+01</totfact>
</mgrwt>
</event>
<event>
 6    1  0.5040916E-004  0.2174268E+04  0.7818608E-02  0.8529215E-01
         -2   -1    0    0    0  501 -0.00000000000E+00  0.00000000000E+00  0.68561901350E+03  0.68561901350E+03  0.00000000000E+00 0. -1.
          2   -1    0    0  501    0  0.00000000000E+00 -0.00000000000E+00 -0.17237857148E+04  0.17237857148E+04  0.00000000000E+00 0.  1.
         23    2    1    2    0    0  0.75253022752E+03 -0.47045619199E+03 -0.12119261981E+04  0.15050689861E+04  0.94004102346E+02 0.  0.
         13    1    3    3    0    0  0.51503895302E+03 -0.36963113080E+03 -0.83839554704E+03  0.10510943770E+04  0.00000000000E+00 0.  1.
        -13    1    3    3    0    0  0.23749127450E+03 -0.10082506118E+03 -0.37353065106E+03  0.45397460910E+03  0.00000000000E+00 0. -1.
         22    1    1    2    0    0 -0.75253022752E+03  0.47045619199E+03  0.17375949682E+03  0.90433574221E+03  0.00000000000E+00 0. -1.
<mgrwt>
<rscale>  0 0.21742679E+04</rscale>
<asrwt>0</asrwt>
<pdfrwt beam="1">  1        2 0.26519780E+00 0.21742679E+04</pdfrwt>
<pdfrwt beam="2">  1       -2 0.10547985E+00 0.21742679E+04</pdfrwt>
<totfact> 0.63354716E+00</totfact>
</mgrwt>
</event>
<event>
 6    1  0.5040916E-004  0.3286619E+04  0.7818608E-02  0.8166308E-01
          2   -1    0    0  501    0  0.00000000000E+00  0.00000000000E+00  0.11038336445E+04  0.11038336445E+04  0.00000000000E+00 0.  1.
         -2   -1    0    0    0  501 -0.00000000000E+00 -0.00000000000E+00 -0.24464435502E+04  0.24464435502E+04  0.00000000000E+00 0. -1.
         23    2    1    2    0    0 -0.94910119415E+03 -0.91952705611E+03  0.38102613056E+03  0.13783554031E+04  0.91430965786E+02 0.  0.
         11    1    3    3    0    0 -0.38075723624E+03 -0.40179529173E+03  0.11962831755E+03  0.56632717026E+03  0.00000000000E+00 0. -1.
        -11    1    3    3    0    0 -0.56834395790E+03 -0.51773176437E+03  0.26139781300E+03  0.81202823287E+03  0.00000000000E+00 0.  1.
         22    1    1    2    0    0  0.94910119415E+03  0.91952705611E+03 -0.17236360362E+04  0.21719217916E+04  0.00000000000E+00 0. -1.
<mgrwt>
<rscale>  0 0.32866194E+04</rscale>
<asrwt>0</asrwt>
<pdfrwt beam="1">  1        2 0.16982056E+00 0.32866194E+04</pdfrwt>
<pdfrwt beam="2">  1       -2 0.37637593E+00 0.32866194E+04</pdfrwt>
<totfact> 0.19128688E-01</totfact>
</mgrwt>
</event>
<event>
 6    1  0.5040916E-004  0.6276909E+03  0.7818608E-02  0.9849565E-01
          2   -1    0    0  501    0  0.00000000000E+00  0.00000000000E+00  0.15441594738E+04  0.15441594738E+04  0.00000000000E+00 0.  1.
         -2   -1    0    0    0  501 -0.00000000000E+00 -0.00000000000E+00 -0.63788072723E+02  0.63788072723E+02  0.00000000000E+00 0. -1.
         23    2    1    2    0    0  0.14672821099E+03  0.17874640482E+03  0.23626868234E+03  0.34253416747E+03  0.89595315112E+02 0.  0.
         13    1    3    3    0    0  0.11160615597E+03  0.93060265607E+02  0.18946312217E+03  0.23877274079E+03  0.00000000000E+00 0. -1.
        -13    1    3    3    0    0  0.35122055025E+02  0.85686139210E+02  0.46805560176E+02  0.10376142667E+03  0.00000000000E+00 0.  1.
         22    1    1    2    0    0 -0.14672821099E+03 -0.17874640482E+03  0.12441027188E+04  0.12654133791E+04  0.00000000000E+00 0.  1.
<mgrwt>
<rscale>  0 0.62769087E+03</rscale>
<asrwt>0</asrwt>
<pdfrwt beam="1">  1        2 0.23756297E+00 0.62769087E+03</pdfrwt>
<pdfrwt beam="2">  1       -2 0.98135508E-02 0.62769087E+03</pdfrwt>
<totfact> 0.86442224E+02</totfact>
</mgrwt>
</event>
<event>
 6    1  0.5040916E-004  0.1788663E+04  0.7818608E-02  0.8712352E-01
          2   -1    0    0  501    0  0.00000000000E+00  0.00000000000E+00  0.10879309761E+04  0.10879309761E+04  0.00000000000E+00 0.  1.
         -2   -1    0    0    0  501 -0.00000000000E+00 -0.00000000000E+00 -0.73518348820E+03  0.73518348820E+03  0.00000000000E+00 0. -1.
         23    2    1    2    0    0 -0.39276794510E+03 -0.27704255492E+03  0.94257279769E+03  0.10622510522E+04  0.94417069113E+02 0.  0.
         11    1    3    3    0    0 -0.19152518671E+03 -0.17456543374E+03  0.57744235459E+03  0.63292547798E+03  0.00000000000E+00 0.  1.
        -11    1    3    3    0    0 -0.20124275839E+03 -0.10247712118E+03  0.36513044311E+03  0.42932557419E+03  0.00000000000E+00 0. -1.
         22    1    1    2    0    0  0.39276794510E+03  0.27704255492E+03 -0.58982530976E+03  0.76086341216E+03  0.00000000000E+00 0. -1.
<mgrwt>
<rscale>  0 0.17886631E+04</rscale>
<asrwt>0</asrwt>
<pdfrwt beam="1">  1        2 0.16737400E+00 0.17886631E+04</pdfrwt>
<pdfrwt beam="2">  1       -2 0.11310515E+00 0.17886631E+04</pdfrwt>
<totfact> 0.12862136E+01</totfact>
</mgrwt>
</event>
<event>
 6    1  0.5040916E-004  0.2771598E+04  0.7818608E-02  0.8312141E-01
         -2   -1    0    0    0  501 -0.00000000000E+00  0.00000000000E+00  0.15821685885E+04  0.15821685885E+04  0.00000000000E+00 0. -1.
          2   -1    0    0  501    0  0.00000000000E+00 -0.00000000000E+00 -0.12138012612E+04  0.12138012612E+04  0.00000000000E+00 0.  1.
         23    2    1    2    0    0  0.22587530144E+02 -0.32399692481E+03  0.15418341786E+04  0.15783867293E+04  0.92562569608E+02 0.  0.
         11    1    3    3    0    0 -0.50593383597E+01 -0.13499147450E+03  0.44528992681E+03  0.46532936079E+03  0.00000000000E+00 0.  1.
        -11    1    3    3    0    0  0.27646868503E+02 -0.18900545031E+03  0.10965442518E+04  0.11130573685E+04  0.00000000000E+00 0. -1.
         22    1    1    2    0    0 -0.22587530144E+02  0.32399692481E+03 -0.11734668513E+04  0.12175831204E+04  0.00000000000E+00 0.  1.
<mgrwt>
<rscale>  0 0.27715975E+04</rscale>
<asrwt>0</asrwt>
<pdfrwt beam="1">  1        2 0.18673866E+00 0.27715975E+04</pdfrwt>
<pdfrwt beam="2">  1       -2 0.24341055E+00 0.27715975E+04</pdfrwt>
<totfact> 0.11437451E+00</totfact>
</mgrwt>
</event>
<event>
 6    1  0.5040916E-004  0.9014752E+03  0.7818608E-02  0.9423739E-01
         -2   -1    0    0    0  501 -0.00000000000E+00  0.00000000000E+00  0.54157698470E+03  0.54157698470E+03  0.00000000000E+00 0. -1.
          2   -1    0    0  501    0  0.00000000000E+00 -0.00000000000E+00 -0.37513478114E+03  0.37513478114E+03  0.00000000000E+00 0.  1.
         23    2    1    2    0    0  0.38228871902E+03  0.15165976730E+03  0.25988664008E+03  0.49495684598E+03  0.91081633604E+02 0.  0.
         13    1    3    3    0    0  0.34927080537E+03  0.11137858247E+03  0.20827572921E+03  0.42163261673E+03  0.00000000000E+00 0. -1.
        -13    1    3    3    0    0  0.33017913653E+02  0.40281184839E+02  0.51610910862E+02  0.73324229243E+02  0.00000000000E+00 0.  1.
         22    1    1    2    0    0 -0.38228871902E+03 -0.15165976730E+03 -0.93444436523E+02  0.42175491986E+03  0.00000000000E+00 0. -1.
<mgrwt>
<rscale>  0 0.90147515E+03</rscale>
<asrwt>0</asrwt>
<pdfrwt beam="1">  1        2 0.57713043E-01 0.90147515E+03</pdfrwt>
<pdfrwt beam="2">  1       -2 0.83319536E-01 0.90147515E+03</pdfrwt>
<totfact> 0.10819674E+02</totfact>
</mgrwt>
</event>
<event>
 6    1  0.5040916E-004  0.4715826E+04  0.7818608E-02  0.7873904E-01
         -2   -1    0    0    0  501 -0.00000000000E+00  0.00000000000E+00  0.23913144930E+04  0.23913144930E+04  0.00000000000E+00 0. -1.
          2   -1    0    0  501    0  0.00000000000E+00 -0.00000000000E+00 -0.23249778641E+04  0.23249778641E+04  0.00000000000E+00 0.  1.
         23    2    1    2    0    0 -0.63202182267E+03  0.15898746001E+04  0.16545845216E+04  0.23818364896E+04  0.91336168776E+02 0.  0.
         11    1    3    3    0    0 -0.27560675107E+03  0.71363833762E+03  0.67778267223E+03  0.10220705010E+04  0.00000000000E+00 0.  1.
        -11    1    3    3    0    0 -0.35641507160E+03  0.87623626250E+03  0.97680184937E+03  0.13597659887E+04  0.00000000000E+00 0. -1.
         22    1    1    2    0    0  0.63202182267E+03 -0.15898746001E+04 -0.15882478927E+04  0.23344558675E+04  0.00000000000E+00 0.  1.
<mgrwt>
<rscale>  0 0.47158258E+04</rscale>
<asrwt>0</asrwt>
<pdfrwt beam="1">  1        2 0.35768890E+00 0.47158258E+04</pdfrwt>
<pdfrwt beam="2">  1       -2 0.36789454E+00 0.47158258E+04</pdfrwt>
<totfact> 0.39132193E-02</totfact>
</mgrwt>
</event>
<event>
 6    1  0.5040916E-004  0.1293934E+04  0.7818608E-02  0.9034390E-01
          2   -1    0    0  501    0  0.00000000000E+00  0.00000000000E+00  0.21660506599E+03  0.21660506599E+03  0.00000000000E+00 0.  1.
         -2   -1    0    0    0  501 -0.00000000000E+00 -0.00000000000E+00 -0.19323934843E+04  0.19323934843E+04  0.00000000000E+00 0. -1.
         23    2    1    2    0    0  0.47623410689E+03 -0.38002319001E+03 -0.51679259370E+03  0.80407939400E+03  0.90843477688E+02 0.  0.
         11    1    3    3    0    0  0.33416887625E+03 -0.21317688686E+03 -0.31716633424E+03  0.50764919632E+03  0.00000000000E+00 0. -1.
        -11    1    3    3    0    0  0.14206523064E+03 -0.16684630315E+03 -0.19962625946E+03  0.29643019768E+03  0.00000000000E+00 0.  1.
         22    1    1    2    0    0 -0.47623410689E+03  0.38002319001E+03 -0.11989958246E+04  0.13449191563E+04  0.00000000000E+00 0. -1.
<mgrwt>
<rscale>  0 0.12939339E+04</rscale>
<asrwt>0</asrwt>
<pdfrwt beam="1">  1        2 0.33323856E-01 0.12939339E+04</pdfrwt>
<pdfrwt beam="2">  1       -2 0.29729131E+00 0.12939339E+04</pdfrwt>
<totfact> 0.51515794E+00</totfact>
</mgrwt>
</event>
<event>
 6    1  0.5040916E-004  0.2983308E+04  0.7818608E-02  0.8248513E-01
          2   -1    0    0  501    0  0.00000000000E+00  0.00000000000E+00  0.21608031545E+04  0.21608031545E+04  0.00000000000E+00 0.  1.
         -2   -1    0    0    0  501 -0.00000000000E+00 -0.00000000000E+00 -0.10297243880E+04  0.10297243880E+04  0.00000000000E+00 0. -1.
         23    2    1    2    0    0  0.12221412161E+04 -0.36445881189E+03  0.13906171747E+04  0.18890593090E+04  0.90937169473E+02 0.  0.
         11    1    3    3    0    0  0.85536287630E+03 -0.27219186428E+03  0.10335734139E+04  0.13689441417E+04  0.00000000000E+00 0. -1.
        -11    1    3    3    0    0  0.36677833980E+03 -0.92266947613E+02  0.35704376073E+03  0.52011516729E+03  0.00000000000E+00 0.  1.
         22    1    1    2    0    0 -0.12221412161E+04  0.36445881189E+03 -0.25953840820E+03  0.13014682336E+04  0.00000000000E+00 0. -1.
<mgrwt>
<rscale>  0 0.29833080E+04</rscale>
<asrwt>0</asrwt>
<pdfrwt beam="1">  1        2 0.33243125E+00 0.29833080E+04</pdfrwt>
<pdfrwt beam="2">  1       -2 0.15841914E+00 0.29833080E+04</pdfrwt>
<totfact> 0.12051261E+00</totfact>
</mgrwt>
</event>
<event>
 6    1  0.5040916E-004  0.1948101E+04  0.7818608E-02  0.8631277E-01
         -2   -1    0    0    0  501 -0.00000000000E+00  0.00000000000E+00  0.19705078013E+04  0.19705078013E+04  0.00000000000E+00 0.  1.
          2   -1    0    0  501    0  0.00000000000E+00 -0.00000000000E+00 -0.48148749007E+03  0.48148749007E+03  0.00000000000E+00 0. -1.
         23    2    1    2    0    0 -0.12226689308E+03 -0.95644350905E+03  0.59237552100E+03  0.11352928728E+04  0.90817234431E+02 0.  0.
         11    1    3    3    0    0 -0.59290021821E+02 -0.33193590363E+03  0.25452292368E+03  0.42246735908E+03  0.00000000000E+00 0. -1.
        -11    1    3    3    0    0 -0.62976871254E+02 -0.62450760542E+03  0.33785259731E+03  0.71282551375E+03  0.00000000000E+00 0.  1.
         22    1    1    2    0    0  0.12226689308E+03  0.95644350905E+03  0.89664479026E+03  0.13167024186E+04  0.00000000000E+00 0. -1.
<mgrwt>
<rscale>  0 0.19481015E+04</rscale>
<asrwt>0</asrwt>
<pdfrwt beam="1">  1        2 0.74075000E-01 0.19481015E+04</pdfrwt>
<pdfrwt beam="2">  1       -2 0.30315504E+00 0.19481015E+04</pdfrwt>
<totfact> 0.18270676E+00</totfact>
</mgrwt>
</event>
<event>
 6    1  0.5040916E-004  0.1006110E+04  0.7818608E-02  0.9301868E-01
         -2   -1    0    0    0  501 -0.00000000000E+00  0.00000000000E+00  0.10892277177E+04  0.10892277177E+04  0.00000000000E+00 0. -1.
          2   -1    0    0  501    0  0.00000000000E+00 -0.00000000000E+00 -0.23233391831E+03  0.23233391831E+03  0.00000000000E+00 0.  1.
         23    2    1    2    0    0  0.30690147771E+03  0.29643863734E+03  0.77296157888E+03  0.88669498936E+03  0.81816984827E+02 0.  0.
         13    1    3    3    0    0  0.10022131568E+03  0.14818416913E+03  0.35218080078E+03  0.39501161569E+03  0.00000000000E+00 0.  1.
        -13    1    3    3    0    0  0.20668016202E+03  0.14825446821E+03  0.42078077811E+03  0.49168337367E+03  0.00000000000E+00 0. -1.
         22    1    1    2    0    0 -0.30690147771E+03 -0.29643863734E+03  0.83932220512E+02  0.43486664665E+03  0.00000000000E+00 0.  1.
<mgrwt>
<rscale>  0 0.10061104E+04</rscale>
<asrwt>0</asrwt>
<pdfrwt beam="1">  1        2 0.35743680E-01 0.10061104E+04</pdfrwt>
<pdfrwt beam="2">  1       -2 0.16757349E+00 0.10061104E+04</pdfrwt>
<totfact> 0.32327820E+01</totfact>
</mgrwt>
</event>
<event>
 6    1  0.5040916E-004  0.1044214E+04  0.7818608E-02  0.9261339E-01
          2   -1    0    0  501    0  0.00000000000E+00  0.00000000000E+00  0.15060390233E+04  0.15060390233E+04  0.00000000000E+00 0.  1.
         -2   -1    0    0    0  501 -0.00000000000E+00 -0.00000000000E+00 -0.18100161359E+03  0.18100161359E+03  0.00000000000E+00 0. -1.
         23    2    1    2    0    0  0.46501706913E+03  0.95026666026E+02  0.33231105511E+03  0.58668771307E+03  0.92200290082E+02 0.  0.
         13    1    3    3    0    0  0.30752774089E+03  0.18165443088E+02  0.20384194781E+03  0.36939793506E+03  0.00000000000E+00 0. -1.
        -13    1    3    3    0    0  0.15748932824E+03  0.76861222937E+02  0.12846910730E+03  0.21728977802E+03  0.00000000000E+00 0.  1.
         22    1    1    2    0    0 -0.46501706913E+03 -0.95026666026E+02  0.99272635458E+03  0.11003529238E+04  0.00000000000E+00 0.  1.
<mgrwt>
<rscale>  0 0.10442136E+04</rscale>
<asrwt>0</asrwt>
<pdfrwt beam="1">  1        2 0.23169830E+00 0.10442136E+04</pdfrwt>
<pdfrwt beam="2">  1       -2 0.27846403E-01 0.10442136E+04</pdfrwt>
<totfact> 0.14760265E+02</totfact>
</mgrwt>
</event>
<event>
 6    1  0.5040916E-004  0.3100963E+04  0.7818608E-02  0.8215474E-01
         -2   -1    0    0    0  501 -0.00000000000E+00  0.00000000000E+00  0.11483263638E+04  0.11483263638E+04  0.00000000000E+00 0. -1.
          2   -1    0    0  501    0  0.00000000000E+00 -0.00000000000E+00 -0.20934755505E+04  0.20934755505E+04  0.00000000000E+00 0.  1.
         23    2    1    2    0    0  0.72753964143E+03  0.50615091168E+03 -0.18012887164E+04  0.20095366955E+04  0.89966747070E+02 0.  0.
         11    1    3    3    0    0  0.31386055334E+03  0.21335782883E+03 -0.87260091489E+03  0.95155786305E+03  0.00000000000E+00 0.  1.
        -11    1    3    3    0    0  0.41367908809E+03  0.29279308284E+03 -0.92868780151E+03  0.10579788325E+04  0.00000000000E+00 0. -1.
         22    1    1    2    0    0 -0.72753964143E+03 -0.50615091168E+03  0.85613952969E+03  0.12322652188E+04  0.00000000000E+00 0. -1.
<mgrwt>
<rscale>  0 0.31009632E+04</rscale>
<asrwt>0</asrwt>
<pdfrwt beam="1">  1        2 0.32207316E+00 0.31009632E+04</pdfrwt>
<pdfrwt beam="2">  1       -2 0.17666560E+00 0.31009632E+04</pdfrwt>
<totfact> 0.96220280E-01</totfact>
</mgrwt>
</event>
<event>
 6    1  0.5040916E-004  0.2544580E+04  0.7818608E-02  0.8387274E-01
          2   -1    0    0  501    0  0.00000000000E+00  0.00000000000E+00  0.30855246078E+04  0.30855246078E+04  0.00000000000E+00 0.  1.
         -2   -1    0    0    0  501 -0.00000000000E+00 -0.00000000000E+00 -0.52461808141E+03  0.52461808141E+03  0.00000000000E+00 0. -1.
         23    2    1    2    0    0  0.87141582345E+03 -0.89452964504E+03  0.16156172681E+04  0.20438985815E+04  0.88053570141E+02 0.  0.
         13    1    3    3    0    0  0.28210075352E+03 -0.29105455229E+03  0.45847254763E+03  0.61195642368E+03  0.00000000000E+00 0.  1.
        -13    1    3    3    0    0  0.58931506993E+03 -0.60347509275E+03  0.11571447204E+04  0.14319421578E+04  0.00000000000E+00 0. -1.
         22    1    1    2    0    0 -0.87141582345E+03  0.89452964504E+03  0.94528925836E+03  0.15662441078E+04  0.00000000000E+00 0. -1.
<mgrwt>
<rscale>  0 0.25445801E+04</rscale>
<asrwt>0</asrwt>
<pdfrwt beam="1">  1        2 0.47469608E+00 0.25445801E+04</pdfrwt>
<pdfrwt beam="2">  1       -2 0.80710476E-01 0.25445801E+04</pdfrwt>
<totfact> 0.18512757E+00</totfact>
</mgrwt>
</event>
<event>
 6    1  0.5040916E-004  0.1744530E+04  0.7818608E-02  0.8736367E-01
         -2   -1    0    0    0  501 -0.00000000000E+00  0.00000000000E+00  0.64066071499E+03  0.64066071499E+03  0.00000000000E+00 0. -1.
          2   -1    0    0  501    0  0.00000000000E+00 -0.00000000000E+00 -0.11875958652E+04  0.11875958652E+04  0.00000000000E+00 0.  1.
         23    2    1    2    0    0 -0.47704474246E+03 -0.33719094798E+03 -0.94982524636E+03  0.11186159308E+04  0.88680213654E+02 0.  0.
         13    1    3    3    0    0 -0.31191174657E+03 -0.23734514452E+03 -0.55862789543E+03  0.68241247119E+03  0.00000000000E+00 0. -1.
        -13    1    3    3    0    0 -0.16513299589E+03 -0.99845803463E+02 -0.39119735093E+03  0.43620345961E+03  0.00000000000E+00 0.  1.
         22    1    1    2    0    0  0.47704474246E+03  0.33719094798E+03  0.40289009615E+03  0.70964064940E+03  0.00000000000E+00 0. -1.
<mgrwt>
<rscale>  0 0.17445298E+04</rscale>
<asrwt>0</asrwt>
<pdfrwt beam="1">  1        2 0.18270705E+00 0.17445298E+04</pdfrwt>
<pdfrwt beam="2">  1       -2 0.98563188E-01 0.17445298E+04</pdfrwt>
<totfact> 0.15619757E+01</totfact>
</mgrwt>
</event>
<event>
 6    1  0.5040916E-004  0.1813227E+04  0.7818608E-02  0.8699297E-01
         -2   -1    0    0    0  501 -0.00000000000E+00  0.00000000000E+00  0.28861622657E+03  0.28861622657E+03  0.00000000000E+00 0.  1.
          2   -1    0    0  501    0  0.00000000000E+00 -0.00000000000E+00 -0.28478942448E+04  0.28478942448E+04  0.00000000000E+00 0. -1.
         23    2    1    2    0    0  0.14392855085E+03 -0.15597308336E+03 -0.28034926965E+04  0.28129616503E+04  0.90215940840E+02 0.  0.
         11    1    3    3    0    0  0.64587540512E+02 -0.12433792976E+02 -0.69886795591E+03  0.70195624465E+03  0.00000000000E+00 0. -1.
        -11    1    3    3    0    0  0.79341010342E+02 -0.14353929039E+03 -0.21046247406E+04  0.21110054056E+04  0.00000000000E+00 0.  1.
         22    1    1    2    0    0 -0.14392855085E+03  0.15597308336E+03  0.24421467834E+03  0.32354882105E+03  0.00000000000E+00 0.  1.
<mgrwt>
<rscale>  0 0.18132275E+04</rscale>
<asrwt>0</asrwt>
<pdfrwt beam="1">  1        2 0.43813758E+00 0.18132275E+04</pdfrwt>
<pdfrwt beam="2">  1       -2 0.44402496E-01 0.18132275E+04</pdfrwt>
<totfact> 0.98367464E+00</totfact>
</mgrwt>
</event>
<event>
 6    1  0.5040916E-004  0.2240332E+04  0.7818608E-02  0.8501826E-01
          2   -1    0    0  501    0  0.00000000000E+00  0.00000000000E+00  0.15650346502E+04  0.15650346502E+04  0.00000000000E+00 0.  1.
         -2   -1    0    0    0  501 -0.00000000000E+00 -0.00000000000E+00 -0.80175318173E+03  0.80175318173E+03  0.00000000000E+00 0. -1.
         23    2    1    2    0    0  0.82235962964E+02  0.41768015217E+03 -0.71014692939E+03  0.83309597672E+03  0.92308081874E+02 0.  0.
         11    1    3    3    0    0 -0.14619556223E+02  0.15110514616E+03 -0.25828622294E+03  0.29959684508E+03  0.00000000000E+00 0. -1.
        -11    1    3    3    0    0  0.96855519188E+02  0.26657500601E+03 -0.45186070645E+03  0.53349913164E+03  0.00000000000E+00 0.  1.
         22    1    1    2    0    0 -0.82235962964E+02 -0.41768015217E+03  0.14734283979E+04  0.15336918553E+04  0.00000000000E+00 0.  1.
<mgrwt>
<rscale>  0 0.22403317E+04</rscale>
<asrwt>0</asrwt>
<pdfrwt beam="1">  1        2 0.24077456E+00 0.22403317E+04</pdfrwt>
<pdfrwt beam="2">  1       -2 0.12334664E+00 0.22403317E+04</pdfrwt>
<totfact> 0.52702844E+00</totfact>
</mgrwt>
</event>
<event>
 6    1  0.5040916E-004  0.5876439E+04  0.7818608E-02  0.7705913E-01
          2   -1    0    0  501    0  0.00000000000E+00  0.00000000000E+00  0.42943761321E+04  0.42943761321E+04  0.00000000000E+00 0.  1.
         -2   -1    0    0    0  501 -0.00000000000E+00 -0.00000000000E+00 -0.20103347265E+04  0.20103347265E+04  0.00000000000E+00 0. -1.
         23    2    1    2    0    0 -0.50436875560E+03  0.21154612184E+03  0.42387921134E+04  0.42748857596E+04  0.90277758740E+02 0.  0.
         13    1    3    3    0    0 -0.86981159826E+02  0.19878320079E+02  0.48934390253E+03  0.49741162503E+03  0.00000000000E+00 0. -1.
        -13    1    3    3    0    0 -0.41738759578E+03  0.19166780176E+03  0.37494482109E+04  0.37774741346E+04  0.00000000000E+00 0.  1.
         22    1    1    2    0    0  0.50436875560E+03 -0.21154612184E+03 -0.19547507077E+04  0.20298250990E+04  0.00000000000E+00 0. -1.
<mgrwt>
<rscale>  0 0.58764389E+04</rscale>
<asrwt>0</asrwt>
<pdfrwt beam="1">  1        2 0.66067325E+00 0.58764389E+04</pdfrwt>
<pdfrwt beam="2">  1       -2 0.30928227E+00 0.58764389E+04</pdfrwt>
<totfact> 0.36042103E-03</totfact>
</mgrwt>
</event>
<event>
 6    1  0.5040916E-004  0.1149941E+04  0.7818608E-02  0.9157838E-01
         -2   -1    0    0    0  501 -0.00000000000E+00  0.00000000000E+00  0.41208433572E+03  0.41208433572E+03  0.00000000000E+00 0. -1.
          2   -1    0    0  501    0  0.00000000000E+00 -0.00000000000E+00 -0.80224157106E+03  0.80224157106E+03  0.00000000000E+00 0.  1.
         23    2    1    2    0    0 -0.52745760153E+03  0.20662399507E+03 -0.11658272717E+03  0.58524085032E+03  0.89500412587E+02 0.  0.
         11    1    3    3    0    0 -0.42062532145E+03  0.12554511166E+03 -0.79605720457E+02  0.44612140370E+03  0.00000000000E+00 0. -1.
        -11    1    3    3    0    0 -0.10683228008E+03  0.81078883412E+02 -0.36977006713E+02  0.13911944662E+03  0.00000000000E+00 0.  1.
         22    1    1    2    0    0  0.52745760153E+03 -0.20662399507E+03 -0.27357450817E+03  0.62908505647E+03  0.00000000000E+00 0. -1.
<mgrwt>
<rscale>  0 0.11499412E+04</rscale>
<asrwt>0</asrwt>
<pdfrwt beam="1">  1        2 0.12342178E+00 0.11499412E+04</pdfrwt>
<pdfrwt beam="2">  1       -2 0.63397590E-01 0.11499412E+04</pdfrwt>
<totfact> 0.78275441E+01</totfact>
</mgrwt>
</event>
<event>
 6    1  0.5692215E-004  0.2519469E+04  0.7818608E-02  0.8396082E-01
          2   -1    0    0  501    0  0.00000000000E+00  0.00000000000E+00  0.81413268236E+03  0.81413268236E+03  0.00000000000E+00 0.  1.
         -2   -1    0    0    0  501 -0.00000000000E+00 -0.00000000000E+00 -0.19492293965E+04  0.19492293965E+04  0.00000000000E+00 0. -1.
         23    2    1    2    0    0  0.11455611091E+04  0.17822095606E+03 -0.11041461748E+04  0.16036074067E+04  0.91350838013E+02 0.  0.
         11    1    3    3    0    0  0.64360811322E+03  0.57706717055E+02 -0.63774448456E+03  0.90789839530E+03  0.00000000000E+00 0.  1.
        -11    1    3    3    0    0  0.50195299585E+03  0.12051423900E+03 -0.46640169024E+03  0.69570901137E+03  0.00000000000E+00 0. -1.
         22    1    1    2    0    0 -0.11455611091E+04 -0.17822095606E+03 -0.30950539346E+02  0.11597546722E+04  0.00000000000E+00 0. -1.
<mgrwt>
<rscale>  0 0.25194693E+04</rscale>
<asrwt>0</asrwt>
<pdfrwt beam="1">  1        2 0.12525118E+00 0.25194693E+04</pdfrwt>
<pdfrwt beam="2">  1       -2 0.29988144E+00 0.25194693E+04</pdfrwt>
<totfact> 0.95405642E-01</totfact>
</mgrwt>
</event>
<event>
 6    1  0.5040916E-004  0.2923772E+04  0.7818608E-02  0.8265839E-01
          1   -1    0    0  501    0  0.00000000000E+00  0.00000000000E+00  0.25290986146E+04  0.25290986146E+04  0.00000000000E+00 0.  1.
         -1   -1    0    0    0  501 -0.00000000000E+00 -0.00000000000E+00 -0.84500911590E+03  0.84500911590E+03  0.00000000000E+00 0. -1.
         23    2    1    2    0    0  0.52034462135E+03 -0.70510071799E+03 -0.50554668032E+03  0.10156268330E+04  0.89414039272E+02 0.  0.
         11    1    3    3    0    0  0.31834269086E+03 -0.44967686265E+03 -0.36534488629E+03  0.66108111118E+03  0.00000000000E+00 0. -1.
        -11    1    3    3    0    0  0.20200193049E+03 -0.25542385533E+03 -0.14020179403E+03  0.35454572180E+03  0.00000000000E+00 0.  1.
         22    1    1    2    0    0 -0.52034462135E+03  0.70510071799E+03  0.21896361790E+04  0.23584808975E+04  0.00000000000E+00 0.  1.
<mgrwt>
<rscale>  0 0.29237725E+04</rscale>
<asrwt>0</asrwt>
<pdfrwt beam="1">  1        1 0.38909209E+00 0.29237725E+04</pdfrwt>
<pdfrwt beam="2">  1       -1 0.13000140E+00 0.29237725E+04</pdfrwt>
<totfact> 0.56149409E-01</totfact>
</mgrwt>
</event>
<event>
 6    1  0.5040916E-004  0.2116500E+04  0.7818608E-02  0.8554009E-01
         -2   -1    0    0    0  501 -0.00000000000E+00  0.00000000000E+00  0.75649444815E+03  0.75649444815E+03  0.00000000000E+00 0. -1.
          2   -1    0    0  501    0  0.00000000000E+00 -0.00000000000E+00 -0.14803722926E+04  0.14803722926E+04  0.00000000000E+00 0.  1.
         23    2    1    2    0    0  0.62744017672E+03 -0.74697511777E+03  0.65137626798E+02  0.98219610037E+03  0.93879003027E+02 0.  0.
         11    1    3    3    0    0  0.30503312024E+03 -0.35476634064E+03  0.77943573305E+02  0.47432010448E+03  0.00000000000E+00 0. -1.
        -11    1    3    3    0    0  0.32240705648E+03 -0.39220877713E+03 -0.12805946507E+02  0.50787599588E+03  0.00000000000E+00 0.  1.
         22    1    1    2    0    0 -0.62744017672E+03  0.74697511777E+03 -0.78901547123E+03  0.12546706404E+04  0.00000000000E+00 0.  1.
<mgrwt>
<rscale>  0 0.21165003E+04</rscale>
<asrwt>0</asrwt>
<pdfrwt beam="1">  1        2 0.22774958E+00 0.21165003E+04</pdfrwt>
<pdfrwt beam="2">  1       -2 0.11638376E+00 0.21165003E+04</pdfrwt>
<totfact> 0.68641789E+00</totfact>
</mgrwt>
</event>
<event>
 6    1  0.5040916E-004  0.2124299E+04  0.7818608E-02  0.8550614E-01
          2   -1    0    0  501    0  0.00000000000E+00  0.00000000000E+00  0.10182210572E+04  0.10182210572E+04  0.00000000000E+00 0.  1.
         -2   -1    0    0    0  501 -0.00000000000E+00 -0.00000000000E+00 -0.11079732058E+04  0.11079732058E+04  0.00000000000E+00 0. -1.
         23    2    1    2    0    0 -0.35771833897E+03  0.28769648451E+03  0.91159595819E+03  0.10246364078E+04  0.90226935662E+02 0.  0.
         13    1    3    3    0    0 -0.15300319054E+03  0.17803806071E+03  0.42732228765E+03  0.48755703759E+03  0.00000000000E+00 0.  1.
        -13    1    3    3    0    0 -0.20471514843E+03  0.10965842380E+03  0.48427367054E+03  0.53707937019E+03  0.00000000000E+00 0. -1.
         22    1    1    2    0    0  0.35771833897E+03 -0.28769648451E+03 -0.10013481068E+04  0.11015578551E+04  0.00000000000E+00 0. -1.
<mgrwt>
<rscale>  0 0.21242991E+04</rscale>
<asrwt>0</asrwt>
<pdfrwt beam="1">  1        2 0.15664939E+00 0.21242991E+04</pdfrwt>
<pdfrwt beam="2">  1       -2 0.17045742E+00 0.21242991E+04</pdfrwt>
<totfact> 0.47698618E+00</totfact>
</mgrwt>
</event>
<event>
 6    1  0.5040916E-004  0.3200872E+04  0.7818608E-02  0.8188587E-01
         -2   -1    0    0    0  501 -0.00000000000E+00  0.00000000000E+00  0.66757098551E+03  0.66757098551E+03  0.00000000000E+00 0. -1.
          2   -1    0    0  501    0  0.00000000000E+00 -0.00000000000E+00 -0.38368874336E+04  0.38368874336E+04  0.00000000000E+00 0.  1.
         23    2    1    2    0    0  0.11754936731E+04  0.22332340143E+03 -0.30789665619E+04  0.33045326635E+04  0.90787211757E+02 0.  0.
         13    1    3    3    0    0  0.37110301143E+03  0.46806988335E+02 -0.86741878523E+03  0.94462886269E+03  0.00000000000E+00 0.  1.
        -13    1    3    3    0    0  0.80439066162E+03  0.17651641309E+03 -0.22115477766E+04  0.23599038008E+04  0.00000000000E+00 0. -1.
         22    1    1    2    0    0 -0.11754936731E+04 -0.22332340143E+03 -0.90349886170E+02  0.11999257556E+04  0.00000000000E+00 0. -1.
<mgrwt>
<rscale>  0 0.32008716E+04</rscale>
<asrwt>0</asrwt>
<pdfrwt beam="1">  1        2 0.59029038E+00 0.32008716E+04</pdfrwt>
<pdfrwt beam="2">  1       -2 0.10270323E+00 0.32008716E+04</pdfrwt>
<totfact> 0.29988691E-01</totfact>
</mgrwt>
</event>
<event>
 6    1  0.5040916E-004  0.3580603E+04  0.7818608E-02  0.8094949E-01
          2   -1    0    0  501    0  0.00000000000E+00  0.00000000000E+00  0.12240007664E+04  0.12240007664E+04  0.00000000000E+00 0.  1.
         -2   -1    0    0    0  501 -0.00000000000E+00 -0.00000000000E+00 -0.26186084206E+04  0.26186084206E+04  0.00000000000E+00 0. -1.
         23    2    1    2    0    0  0.14968645300E+04 -0.44280234756E+03  0.23997833006E+03  0.15823993117E+04  0.98593319065E+02 0.  0.
         13    1    3    3    0    0  0.59937870872E+03 -0.22450142256E+03  0.11581905402E+03  0.65043814346E+03  0.00000000000E+00 0. -1.
        -13    1    3    3    0    0  0.89748582129E+03 -0.21830092499E+03  0.12415927604E+03  0.93196116824E+03  0.00000000000E+00 0.  1.
         22    1    1    2    0    0 -0.14968645300E+04  0.44280234756E+03 -0.16345859843E+04  0.22602098753E+04  0.00000000000E+00 0. -1.
<mgrwt>
<rscale>  0 0.35806026E+04</rscale>
<asrwt>0</asrwt>
<pdfrwt beam="1">  1        2 0.18830781E+00 0.35806026E+04</pdfrwt>
<pdfrwt beam="2">  1       -2 0.40286283E+00 0.35806026E+04</pdfrwt>
<totfact> 0.10626141E-01</totfact>
</mgrwt>
</event>
<event>
 6    1  0.5040916E-004  0.4031415E+04  0.7818608E-02  0.7998239E-01
         -2   -1    0    0    0  501 -0.00000000000E+00  0.00000000000E+00  0.18383936176E+04  0.18383936176E+04  0.00000000000E+00 0. -1.
          2   -1    0    0  501    0  0.00000000000E+00 -0.00000000000E+00 -0.22101228778E+04  0.22101228778E+04  0.00000000000E+00 0.  1.
         23    2    1    2    0    0  0.80529195397E+03 -0.10576351285E+04  0.13343137668E+04  0.18857243172E+04  0.92063976768E+02 0.  0.
         13    1    3    3    0    0  0.60569291488E+03 -0.81274395927E+03  0.96220975106E+03  0.13975923066E+04  0.00000000000E+00 0.  1.
        -13    1    3    3    0    0  0.19959903909E+03 -0.24489116923E+03  0.37210401576E+03  0.48813201055E+03  0.00000000000E+00 0. -1.
         22    1    1    2    0    0 -0.80529195397E+03  0.10576351285E+04 -0.17060430270E+04  0.21627921782E+04  0.00000000000E+00 0.  1.
<mgrwt>
<rscale>  0 0.40314145E+04</rscale>
<asrwt>0</asrwt>
<pdfrwt beam="1">  1        2 0.34001890E+00 0.40314145E+04</pdfrwt>
<pdfrwt beam="2">  1       -2 0.28282979E+00 0.40314145E+04</pdfrwt>
<totfact> 0.16231477E-01</totfact>
</mgrwt>
</event>
<event>
 6    1  0.5040916E-004  0.1935238E+04  0.7818608E-02  0.8637512E-01
          2   -1    0    0  501    0  0.00000000000E+00  0.00000000000E+00  0.18409746245E+04  0.18409746245E+04  0.00000000000E+00 0.  1.
         -2   -1    0    0    0  501 -0.00000000000E+00 -0.00000000000E+00 -0.50858223190E+03  0.50858223190E+03  0.00000000000E+00 0. -1.
         23    2    1    2    0    0  0.40777753273E+03 -0.77580093260E+03  0.17648561551E+03  0.89894661221E+03  0.93852202414E+02 0.  0.
         13    1    3    3    0    0  0.15319524552E+03 -0.36641216993E+03  0.11144535148E+03  0.41248845789E+03  0.00000000000E+00 0.  1.
        -13    1    3    3    0    0  0.25458228721E+03 -0.40938876267E+03  0.65040264026E+02  0.48645815433E+03  0.00000000000E+00 0. -1.
         22    1    1    2    0    0 -0.40777753273E+03  0.77580093260E+03  0.11559067771E+04  0.14506102442E+04  0.00000000000E+00 0.  1.
<mgrwt>
<rscale>  0 0.19352385E+04</rscale>
<asrwt>0</asrwt>
<pdfrwt beam="1">  1        2 0.28322686E+00 0.19352385E+04</pdfrwt>
<pdfrwt beam="2">  1       -2 0.78243421E-01 0.19352385E+04</pdfrwt>
<totfact> 0.11110431E+01</totfact>
</mgrwt>
</event>
<event>
 6    1  0.5040916E-004  0.2197804E+04  0.7818608E-02  0.8519343E-01
          2   -1    0    0  501    0  0.00000000000E+00  0.00000000000E+00  0.20174269416E+04  0.20174269416E+04  0.00000000000E+00 0.  1.
         -2   -1    0    0    0  501 -0.00000000000E+00 -0.00000000000E+00 -0.59857716850E+03  0.59857716850E+03  0.00000000000E+00 0. -1.
         23    2    1    2    0    0  0.10700481680E+04 -0.45440388153E+01  0.42175347283E+03  0.11533952211E+04  0.86144146722E+02 0.  0.
         13    1    3    3    0    0  0.85337324831E+03  0.19454045994E+01  0.37231180332E+03  0.93105626276E+03  0.00000000000E+00 0. -1.
        -13    1    3    3    0    0  0.21667491973E+03 -0.64894434147E+01  0.49441669510E+02  0.22233895835E+03  0.00000000000E+00 0.  1.
         22    1    1    2    0    0 -0.10700481680E+04  0.45440388153E+01  0.99709630029E+03  0.14626088890E+04  0.00000000000E+00 0. -1.
<mgrwt>
<rscale>  0 0.21978041E+04</rscale>
<asrwt>0</asrwt>
<pdfrwt beam="1">  1        2 0.31037337E+00 0.21978041E+04</pdfrwt>
<pdfrwt beam="2">  1       -2 0.92088796E-01 0.21978041E+04</pdfrwt>
<totfact> 0.59851816E+00</totfact>
</mgrwt>
</event>
<event>
 6    1  0.5040916E-004  0.5358273E+04  0.7818608E-02  0.7775498E-01
          2   -1    0    0  501    0  0.00000000000E+00  0.00000000000E+00  0.34889602758E+04  0.34889602758E+04  0.00000000000E+00 0.  1.
         -2   -1    0    0    0  501 -0.00000000000E+00 -0.00000000000E+00 -0.20572810928E+04  0.20572810928E+04  0.00000000000E+00 0. -1.
         23    2    1    2    0    0 -0.22757232611E+04 -0.10268078593E+03 -0.74200787216E+03  0.23975312965E+04  0.90116206461E+02 0.  0.
         11    1    3    3    0    0 -0.69129645568E+03  0.30061704295E+01 -0.24976116325E+03  0.73503773058E+03  0.00000000000E+00 0.  1.
        -11    1    3    3    0    0 -0.15844268054E+04 -0.10568695636E+03 -0.49224670891E+03  0.16624935659E+04  0.00000000000E+00 0. -1.
         22    1    1    2    0    0  0.22757232611E+04  0.10268078593E+03  0.21736870551E+04  0.31487100721E+04  0.00000000000E+00 0.  1.
<mgrwt>
<rscale>  0 0.53582729E+04</rscale>
<asrwt>0</asrwt>
<pdfrwt beam="1">  1        2 0.53676312E+00 0.53582729E+04</pdfrwt>
<pdfrwt beam="2">  1       -2 0.31650478E+00 0.53582729E+04</pdfrwt>
<totfact> 0.14707805E-02</totfact>
</mgrwt>
</event>
<event>
 6    1  0.5040916E-004  0.1501730E+04  0.7818608E-02  0.8883304E-01
          2   -1    0    0  501    0  0.00000000000E+00  0.00000000000E+00  0.16133503279E+04  0.16133503279E+04  0.00000000000E+00 0.  1.
         -2   -1    0    0    0  501 -0.00000000000E+00 -0.00000000000E+00 -0.34945789490E+03  0.34945789490E+03  0.00000000000E+00 0. -1.
         23    2    1    2    0    0  0.36703363168E+03  0.37723449887E+03  0.13290112376E+04  0.14324686970E+04  0.93145823540E+02 0.  0.
         13    1    3    3    0    0  0.26928849961E+03  0.25618639331E+03  0.82208489632E+03  0.90220360280E+03  0.00000000000E+00 0.  1.
        -13    1    3    3    0    0  0.97745132064E+02  0.12104810556E+03  0.50692634125E+03  0.53026509422E+03  0.00000000000E+00 0. -1.
         22    1    1    2    0    0 -0.36703363168E+03 -0.37723449887E+03 -0.65118804547E+02  0.53033952580E+03  0.00000000000E+00 0. -1.
<mgrwt>
<rscale>  0 0.15017297E+04</rscale>
<asrwt>0</asrwt>
<pdfrwt beam="1">  1        2 0.24820774E+00 0.15017297E+04</pdfrwt>
<pdfrwt beam="2">  1       -2 0.53762754E-01 0.15017297E+04</pdfrwt>
<totfact> 0.34510812E+01</totfact>
</mgrwt>
</event>
<event>
 6    1  0.5040916E-004  0.1456715E+04  0.7818608E-02  0.8913758E-01
         -2   -1    0    0    0  501 -0.00000000000E+00  0.00000000000E+00  0.49418358733E+03  0.49418358733E+03  0.00000000000E+00 0. -1.
          2   -1    0    0  501    0  0.00000000000E+00 -0.00000000000E+00 -0.10734971404E+04  0.10734971404E+04  0.00000000000E+00 0.  1.
         23    2    1    2    0    0 -0.51484915265E+03 -0.91878485202E+02 -0.83183569074E+03  0.98692369074E+03  0.92501075272E+02 0.  0.
         11    1    3    3    0    0 -0.21301279515E+02 -0.24752411270E+02 -0.43006939894E+02  0.54000215293E+02  0.00000000000E+00 0.  1.
        -11    1    3    3    0    0 -0.49354787314E+03 -0.67126073932E+02 -0.78882875084E+03  0.93292347544E+03  0.00000000000E+00 0. -1.
         22    1    1    2    0    0  0.51484915265E+03  0.91878485202E+02  0.25252213765E+03  0.58075703700E+03  0.00000000000E+00 0. -1.
<mgrwt>
<rscale>  0 0.14567150E+04</rscale>
<asrwt>0</asrwt>
<pdfrwt beam="1">  1        2 0.16515340E+00 0.14567150E+04</pdfrwt>
<pdfrwt beam="2">  1       -2 0.76028245E-01 0.14567150E+04</pdfrwt>
<totfact> 0.33985384E+01</totfact>
</mgrwt>
</event>
<event>
 6    1  0.5040916E-004  0.2388245E+04  0.7818608E-02  0.8443918E-01
         -2   -1    0    0    0  501 -0.00000000000E+00  0.00000000000E+00  0.72271583053E+03  0.72271583053E+03  0.00000000000E+00 0. -1.
          2   -1    0    0  501    0  0.00000000000E+00 -0.00000000000E+00 -0.19730136420E+04  0.19730136420E+04  0.00000000000E+00 0.  1.
         23    2    1    2    0    0  0.19492622484E+03 -0.11396522348E+04 -0.95535708002E+03  0.15025012947E+04  0.89440152373E+02 0.  0.
         11    1    3    3    0    0  0.14108382704E+03 -0.85013252488E+03 -0.76089220241E+03  0.11496029314E+04  0.00000000000E+00 0.  1.
        -11    1    3    3    0    0  0.53842397803E+02 -0.28951970988E+03 -0.19446487761E+03  0.35289836332E+03  0.00000000000E+00 0. -1.
         22    1    1    2    0    0 -0.19492622484E+03  0.11396522348E+04 -0.29494073144E+03  0.11932281778E+04  0.00000000000E+00 0. -1.
<mgrwt>
<rscale>  0 0.23882447E+04</rscale>
<asrwt>0</asrwt>
<pdfrwt beam="1">  1        2 0.30354056E+00 0.23882447E+04</pdfrwt>
<pdfrwt beam="2">  1       -2 0.11118705E+00 0.23882447E+04</pdfrwt>
<totfact> 0.39849071E+00</totfact>
</mgrwt>
</event>
<event>
 6    1  0.5040916E-004  0.8576791E+03  0.7818608E-02  0.9480088E-01
         -4   -1    0    0    0  501 -0.00000000000E+00  0.00000000000E+00  0.15076128191E+03  0.15076128191E+03  0.00000000000E+00 0. -1.
          4   -1    0    0  501    0  0.00000000000E+00 -0.00000000000E+00 -0.12198315136E+04  0.12198315136E+04  0.00000000000E+00 0.  1.
         23    2    1    2    0    0 -0.38128339258E+03  0.14114111015E+03 -0.34764182158E+03  0.54248846070E+03  0.90227797579E+02 0.  0.
         13    1    3    3    0    0 -0.17736678946E+03  0.11291934521E+03 -0.18659008711E+03  0.28111495359E+03  0.00000000000E+00 0.  1.
        -13    1    3    3    0    0 -0.20391660312E+03  0.28221764938E+02 -0.16105173447E+03  0.26137350711E+03  0.00000000000E+00 0. -1.
         22    1    1    2    0    0  0.38128339258E+03 -0.14114111015E+03 -0.72142841009E+03  0.82810433480E+03  0.00000000000E+00 0.  1.
<mgrwt>
<rscale>  0 0.85767911E+03</rscale>
<asrwt>0</asrwt>
<pdfrwt beam="1">  1        4 0.18766639E+00 0.85767911E+03</pdfrwt>
<pdfrwt beam="2">  1       -4 0.23194044E-01 0.85767911E+03</pdfrwt>
<totfact> 0.55927555E+00</totfact>
</mgrwt>
</event>
<event>
 6    1  0.5040916E-004  0.2604324E+04  0.7818608E-02  0.8366734E-01
          2   -1    0    0  501    0  0.00000000000E+00  0.00000000000E+00  0.14073395644E+04  0.14073395644E+04  0.00000000000E+00 0.  1.
         -2   -1    0    0    0  501 -0.00000000000E+00 -0.00000000000E+00 -0.12048452715E+04  0.12048452715E+04  0.00000000000E+00 0. -1.
         23    2    1    2    0    0  0.10038529320E+04  0.73080872851E+03  0.48798419494E+03  0.13380943404E+04  0.10278999226E+03 0.  0.
         11    1    3    3    0    0  0.68509352034E+03  0.48631086829E+03  0.27904426702E+03  0.88527797622E+03  0.00000000000E+00 0. -1.
        -11    1    3    3    0    0  0.31875941167E+03  0.24449786022E+03  0.20893992792E+03  0.45281636417E+03  0.00000000000E+00 0.  1.
         22    1    1    2    0    0 -0.10038529320E+04 -0.73080872851E+03 -0.28548990204E+03  0.12740904956E+04  0.00000000000E+00 0. -1.
<mgrwt>
<rscale>  0 0.26043244E+04</rscale>
<asrwt>0</asrwt>
<pdfrwt beam="1">  1        2 0.21651378E+00 0.26043244E+04</pdfrwt>
<pdfrwt beam="2">  1       -2 0.18536081E+00 0.26043244E+04</pdfrwt>
<totfact> 0.21115270E+00</totfact>
</mgrwt>
</event>
<event>
 6    1  0.5040916E-004  0.2394227E+04  0.7818608E-02  0.8441668E-01
         -2   -1    0    0    0  501 -0.00000000000E+00  0.00000000000E+00  0.66600378861E+03  0.66600378861E+03  0.00000000000E+00 0. -1.
          2   -1    0    0  501    0  0.00000000000E+00 -0.00000000000E+00 -0.21517609202E+04  0.21517609202E+04  0.00000000000E+00 0.  1.
         23    2    1    2    0    0  0.54210451756E+02 -0.11367776008E+04 -0.11744371391E+04  0.16378824162E+04  0.90300215069E+02 0.  0.
         11    1    3    3    0    0  0.45172809740E+02 -0.54131222155E+03 -0.61882422786E+03  0.82340933254E+03  0.00000000000E+00 0. -1.
        -11    1    3    3    0    0  0.90376420162E+01 -0.59546537926E+03 -0.55561291124E+03  0.81447308366E+03  0.00000000000E+00 0.  1.
         22    1    1    2    0    0 -0.54210451756E+02  0.11367776008E+04 -0.31131999253E+03  0.11798822927E+04  0.00000000000E+00 0. -1.
<mgrwt>
<rscale>  0 0.23942272E+04</rscale>
<asrwt>0</asrwt>
<pdfrwt beam="1">  1        2 0.33104014E+00 0.23942272E+04</pdfrwt>
<pdfrwt beam="2">  1       -2 0.10246212E+00 0.23942272E+04</pdfrwt>
<totfact> 0.38540146E+00</totfact>
</mgrwt>
</event>
<event>
 6    1  0.5040916E-004  0.7129267E+03  0.7818608E-02  0.9695378E-01
          4   -1    0    0  501    0  0.00000000000E+00  0.00000000000E+00  0.72757728180E+03  0.72757728180E+03  0.00000000000E+00 0.  1.
         -4   -1    0    0    0  501 -0.00000000000E+00 -0.00000000000E+00 -0.17464280337E+03  0.17464280337E+03  0.00000000000E+00 0. -1.
         23    2    1    2    0    0  0.34094045462E+03  0.27631064368E+02  0.39347817225E+03  0.52482084975E+03  0.60066488014E+02 0.  0.
         13    1    3    3    0    0  0.72155948968E+02  0.26933204486E+02  0.10880083241E+03  0.13330228658E+03  0.00000000000E+00 0.  1.
        -13    1    3    3    0    0  0.26878450565E+03  0.69785988143E+00  0.28467733984E+03  0.39151856317E+03  0.00000000000E+00 0. -1.
         22    1    1    2    0    0 -0.34094045462E+03 -0.27631064368E+02  0.15945630618E+03  0.37739923542E+03  0.00000000000E+00 0. -1.
<mgrwt>
<rscale>  0 0.71292675E+03</rscale>
<asrwt>0</asrwt>
<pdfrwt beam="1">  1        4 0.11193496E+00 0.71292675E+03</pdfrwt>
<pdfrwt beam="2">  1       -4 0.26868124E-01 0.71292675E+03</pdfrwt>
<totfact> 0.16606847E+01</totfact>
</mgrwt>
</event>
<event>
 6    1  0.5040916E-004  0.2636567E+04  0.7818608E-02  0.8355885E-01
         -2   -1    0    0    0  501 -0.00000000000E+00  0.00000000000E+00  0.11472625365E+04  0.11472625365E+04  0.00000000000E+00 0. -1.
          2   -1    0    0  501    0  0.00000000000E+00 -0.00000000000E+00 -0.15147986676E+04  0.15147986676E+04  0.00000000000E+00 0.  1.
         23    2    1    2    0    0 -0.12657131062E+04  0.36174282068E+03 -0.20750047160E+03  0.13359771389E+04  0.94291751490E+02 0.  0.
         13    1    3    3    0    0 -0.76990511024E+03  0.17332141300E+03 -0.13513502988E+03  0.80065952020E+03  0.00000000000E+00 0. -1.
        -13    1    3    3    0    0 -0.49580799599E+03  0.18842140768E+03 -0.72365441729E+02  0.53531761872E+03  0.00000000000E+00 0.  1.
         22    1    1    2    0    0  0.12657131062E+04 -0.36174282068E+03 -0.16003565943E+03  0.13260840652E+04  0.00000000000E+00 0. -1.
<mgrwt>
<rscale>  0 0.26365673E+04</rscale>
<asrwt>0</asrwt>
<pdfrwt beam="1">  1        2 0.23304595E+00 0.26365673E+04</pdfrwt>
<pdfrwt beam="2">  1       -2 0.17650193E+00 0.26365673E+04</pdfrwt>
<totfact> 0.21062192E+00</totfact>
</mgrwt>
</event>
<event>
 6    1  0.5040916E-004  0.3311048E+04  0.7818608E-02  0.8160090E-01
          2   -1    0    0  501    0  0.00000000000E+00  0.00000000000E+00  0.21632041602E+04  0.21632041602E+04  0.00000000000E+00 0.  1.
         -2   -1    0    0    0  501 -0.00000000000E+00 -0.00000000000E+00 -0.12669904837E+04  0.12669904837E+04  0.00000000000E+00 0. -1.
         23    2    1    2    0    0 -0.12006355390E+04  0.11367795850E+04  0.50354095262E+03  0.17307872793E+04  0.90981277212E+02 0.  0.
         11    1    3    3    0    0 -0.34121471064E+03  0.27279299313E+03  0.11562787731E+03  0.45189965907E+03  0.00000000000E+00 0.  1.
        -11    1    3    3    0    0 -0.85942082839E+03  0.86398659191E+03  0.38791307531E+03  0.12788876203E+04  0.00000000000E+00 0. -1.
         22    1    1    2    0    0  0.12006355390E+04 -0.11367795850E+04  0.39267272384E+03  0.16994073645E+04  0.00000000000E+00 0.  1.
<mgrwt>
<rscale>  0 0.33110476E+04</rscale>
<asrwt>0</asrwt>
<pdfrwt beam="1">  1        2 0.33280064E+00 0.33110476E+04</pdfrwt>
<pdfrwt beam="2">  1       -2 0.19492161E+00 0.33110476E+04</pdfrwt>
<totfact> 0.64938632E-01</totfact>
</mgrwt>
</event>
<event>
 6    1  0.5040916E-004  0.4711881E+04  0.7818608E-02  0.7874557E-01
          2   -1    0    0  501    0  0.00000000000E+00  0.00000000000E+00  0.25996876192E+04  0.25996876192E+04  0.00000000000E+00 0.  1.
         -2   -1    0    0    0  501 -0.00000000000E+00 -0.00000000000E+00 -0.21350473116E+04  0.21350473116E+04  0.00000000000E+00 0. -1.
         23    2    1    2    0    0  0.10685821972E+04  0.42585518911E+03 -0.18325837391E+04  0.21655991081E+04  0.90751209808E+02 0.  0.
         13    1    3    3    0    0  0.93175036968E+03  0.39842998361E+03 -0.16385980281E+04  0.19266314388E+04  0.00000000000E+00 0. -1.
        -13    1    3    3    0    0  0.13683182755E+03  0.27425205500E+02 -0.19398571096E+03  0.23896766932E+03  0.00000000000E+00 0.  1.
         22    1    1    2    0    0 -0.10685821972E+04 -0.42585518911E+03  0.22972240467E+04  0.25691358226E+04  0.00000000000E+00 0.  1.
<mgrwt>
<rscale>  0 0.47118812E+04</rscale>
<asrwt>0</asrwt>
<pdfrwt beam="1">  1        2 0.39995194E+00 0.47118812E+04</pdfrwt>
<pdfrwt beam="2">  1       -2 0.32846882E+00 0.47118812E+04</pdfrwt>
<totfact> 0.48116921E-02</totfact>
</mgrwt>
</event>
<event>
 6    1  0.5040916E-004  0.3972564E+04  0.7818608E-02  0.8010104E-01
          2   -1    0    0  501    0  0.00000000000E+00  0.00000000000E+00  0.37939068705E+04  0.37939068705E+04  0.00000000000E+00 0.  1.
         -2   -1    0    0    0  501 -0.00000000000E+00 -0.00000000000E+00 -0.10399086579E+04  0.10399086579E+04  0.00000000000E+00 0. -1.
         23    2    1    2    0    0 -0.32791954316E+03  0.52115318165E+03 -0.91877483856E+03  0.11097862923E+04  0.91359427799E+02 0.  0.
         13    1    3    3    0    0 -0.11915964691E+03  0.23884892178E+03 -0.46330705796E+03  0.53469735257E+03  0.00000000000E+00 0.  1.
        -13    1    3    3    0    0 -0.20875989625E+03  0.28230425987E+03 -0.45546778060E+03  0.57508893972E+03  0.00000000000E+00 0. -1.
         22    1    1    2    0    0  0.32791954316E+03 -0.52115318165E+03  0.36727730512E+04  0.37240292361E+04  0.00000000000E+00 0.  1.
<mgrwt>
<rscale>  0 0.39725642E+04</rscale>
<asrwt>0</asrwt>
<pdfrwt beam="1">  1        2 0.58367797E+00 0.39725642E+04</pdfrwt>
<pdfrwt beam="2">  1       -2 0.15998595E+00 0.39725642E+04</pdfrwt>
<totfact> 0.98604156E-02</totfact>
</mgrwt>
</event>
<event>
 6    1  0.5040916E-004  0.2980224E+04  0.7818608E-02  0.8249401E-01
         -2   -1    0    0    0  501 -0.00000000000E+00  0.00000000000E+00  0.79821886031E+03  0.79821886031E+03  0.00000000000E+00 0. -1.
          2   -1    0    0  501    0  0.00000000000E+00 -0.00000000000E+00 -0.27817349619E+04  0.27817349619E+04  0.00000000000E+00 0.  1.
         23    2    1    2    0    0 -0.12144864149E+04  0.22003217494E+03  0.71345066484E+01  0.12377153087E+04  0.92178492287E+02 0.  0.
         13    1    3    3    0    0 -0.79343560879E+03  0.10035578659E+03 -0.62701025169E+01  0.79978163482E+03  0.00000000000E+00 0.  1.
        -13    1    3    3    0    0 -0.42105080606E+03  0.11967638835E+03  0.13404609165E+02  0.43793367392E+03  0.00000000000E+00 0. -1.
         22    1    1    2    0    0  0.12144864149E+04 -0.22003217494E+03 -0.19906506082E+04  0.23422385135E+04  0.00000000000E+00 0.  1.
<mgrwt>
<rscale>  0 0.29802237E+04</rscale>
<asrwt>0</asrwt>
<pdfrwt beam="1">  1        2 0.42795923E+00 0.29802237E+04</pdfrwt>
<pdfrwt beam="2">  1       -2 0.12280290E+00 0.29802237E+04</pdfrwt>
<totfact> 0.10190366E+00</totfact>
</mgrwt>
</event>
<event>
 6    1  0.5040916E-004  0.3185503E+04  0.7818608E-02  0.8192656E-01
          2   -1    0    0  501    0  0.00000000000E+00  0.00000000000E+00  0.30568790636E+04  0.30568790636E+04  0.00000000000E+00 0. -1.
         -2   -1    0    0    0  501 -0.00000000000E+00 -0.00000000000E+00 -0.82988469779E+03  0.82988469779E+03  0.00000000000E+00 0.  1.
         23    2    1    2    0    0  0.12424727603E+04  0.11321320865E+03 -0.91077319905E+02  0.12542721411E+04  0.91365940839E+02 0.  0.
         11    1    3    3    0    0  0.70509070858E+03  0.57447908202E+02 -0.67253994989E+01  0.70745911577E+03  0.00000000000E+00 0.  1.
        -11    1    3    3    0    0  0.53738205170E+03  0.55765300446E+02 -0.84351920406E+02  0.54681302536E+03  0.00000000000E+00 0. -1.
         22    1    1    2    0    0 -0.12424727603E+04 -0.11321320865E+03  0.23180716858E+04  0.26324916203E+04  0.00000000000E+00 0. -1.
<mgrwt>
<rscale>  0 0.31855029E+04</rscale>
<asrwt>0</asrwt>
<pdfrwt beam="1">  1        2 0.47028908E+00 0.31855029E+04</pdfrwt>
<pdfrwt beam="2">  1       -2 0.12767457E+00 0.31855029E+04</pdfrwt>
<totfact> 0.61390974E-01</totfact>
</mgrwt>
</event>
<event>
 6    1  0.5040916E-004  0.2384945E+04  0.7818608E-02  0.8445162E-01
          2   -1    0    0  501    0  0.00000000000E+00  0.00000000000E+00  0.28253459379E+04  0.28253459379E+04  0.00000000000E+00 0.  1.
         -2   -1    0    0    0  501 -0.00000000000E+00 -0.00000000000E+00 -0.50329786517E+03  0.50329786517E+03  0.00000000000E+00 0. -1.
         23    2    1    2    0    0  0.85238120519E+02 -0.71072598112E+03 -0.16541212428E+03  0.74023595477E+03  0.90504919433E+02 0.  0.
         13    1    3    3    0    0  0.45063198961E+02 -0.11669170020E+03 -0.43910887135E+02  0.13257379381E+03  0.00000000000E+00 0. -1.
        -13    1    3    3    0    0  0.40174921558E+02 -0.59403428093E+03 -0.12150123714E+03  0.60766216096E+03  0.00000000000E+00 0.  1.
         22    1    1    2    0    0 -0.85238120519E+02  0.71072598112E+03  0.24874601970E+04  0.25884078483E+04  0.00000000000E+00 0.  1.
<mgrwt>
<rscale>  0 0.23849449E+04</rscale>
<asrwt>0</asrwt>
<pdfrwt beam="1">  1        2 0.43466860E+00 0.23849449E+04</pdfrwt>
<pdfrwt beam="2">  1       -2 0.77430443E-01 0.23849449E+04</pdfrwt>
<totfact> 0.29894005E+00</totfact>
</mgrwt>
</event>
<event>
 6    1  0.5040916E-004  0.1648735E+04  0.7818608E-02  0.8791155E-01
         -2   -1    0    0    0  501 -0.00000000000E+00  0.00000000000E+00  0.35359258892E+03  0.35359258892E+03  0.00000000000E+00 0. -1.
          2   -1    0    0  501    0  0.00000000000E+00 -0.00000000000E+00 -0.19219338848E+04  0.19219338848E+04  0.00000000000E+00 0.  1.
         23    2    1    2    0    0  0.65686648991E+03  0.26004757270E+03 -0.13656792782E+04  0.15405637406E+04  0.95699646803E+02 0.  0.
         11    1    3    3    0    0  0.59759035933E+03  0.21195177346E+03 -0.11748180324E+04  0.13350038206E+04  0.00000000000E+00 0. -1.
        -11    1    3    3    0    0  0.59276130572E+02  0.48095799237E+02 -0.19086124584E+03  0.20555992004E+03  0.00000000000E+00 0.  1.
         22    1    1    2    0    0 -0.65686648991E+03 -0.26004757270E+03 -0.20266201769E+03  0.73496273310E+03  0.00000000000E+00 0. -1.
<mgrwt>
<rscale>  0 0.16487348E+04</rscale>
<asrwt>0</asrwt>
<pdfrwt beam="1">  1        2 0.29568214E+00 0.16487348E+04</pdfrwt>
<pdfrwt beam="2">  1       -2 0.54398860E-01 0.16487348E+04</pdfrwt>
<totfact> 0.22437909E+01</totfact>
</mgrwt>
</event>
<event>
 6    1  0.5040916E-004  0.1806351E+04  0.7818608E-02  0.8702929E-01
         -2   -1    0    0    0  501 -0.00000000000E+00  0.00000000000E+00  0.40885894217E+03  0.40885894217E+03  0.00000000000E+00 0. -1.
          2   -1    0    0  501    0  0.00000000000E+00 -0.00000000000E+00 -0.19951277655E+04  0.19951277655E+04  0.00000000000E+00 0.  1.
         23    2    1    2    0    0 -0.83818930475E+03 -0.27213302131E+03 -0.10436345904E+04  0.13690617816E+04  0.92408395946E+02 0.  0.
         13    1    3    3    0    0 -0.61671544071E+03 -0.24221507430E+03 -0.77549135030E+03  0.10199965252E+04  0.00000000000E+00 0.  1.
        -13    1    3    3    0    0 -0.22147386404E+03 -0.29917947003E+02 -0.26814324007E+03  0.34906525636E+03  0.00000000000E+00 0. -1.
         22    1    1    2    0    0  0.83818930475E+03  0.27213302131E+03 -0.54263423295E+03  0.10349249261E+04  0.00000000000E+00 0. -1.
<mgrwt>
<rscale>  0 0.18063508E+04</rscale>
<asrwt>0</asrwt>
<pdfrwt beam="1">  1        2 0.30694273E+00 0.18063508E+04</pdfrwt>
<pdfrwt beam="2">  1       -2 0.62901377E-01 0.18063508E+04</pdfrwt>
<totfact> 0.14859489E+01</totfact>
</mgrwt>
</event>
<event>
 6    1  0.5040916E-004  0.1629141E+04  0.7818608E-02  0.8802843E-01
         -2   -1    0    0    0  501 -0.00000000000E+00  0.00000000000E+00  0.26834921865E+03  0.26834921865E+03  0.00000000000E+00 0. -1.
          2   -1    0    0  501    0  0.00000000000E+00 -0.00000000000E+00 -0.24726178670E+04  0.24726178670E+04  0.00000000000E+00 0.  1.
         23    2    1    2    0    0 -0.66952363775E+03  0.50363933702E+02 -0.18739444136E+04  0.19926940557E+04  0.91452210942E+02 0.  0.
         11    1    3    3    0    0 -0.55743843139E+03  0.42589210350E+02 -0.14479158852E+04  0.15520991773E+04  0.00000000000E+00 0. -1.
        -11    1    3    3    0    0 -0.11208520636E+03  0.77747233523E+01 -0.42602852844E+03  0.44059487838E+03  0.00000000000E+00 0.  1.
         22    1    1    2    0    0  0.66952363775E+03 -0.50363933702E+02 -0.33032423472E+03  0.74827302996E+03  0.00000000000E+00 0. -1.
<mgrwt>
<rscale>  0 0.16291410E+04</rscale>
<asrwt>0</asrwt>
<pdfrwt beam="1">  1        2 0.38040275E+00 0.16291410E+04</pdfrwt>
<pdfrwt beam="2">  1       -2 0.41284496E-01 0.16291410E+04</pdfrwt>
<totfact> 0.19235785E+01</totfact>
</mgrwt>
</event>
<event>
 6    1  0.5040916E-004  0.2880162E+04  0.7818608E-02  0.8278805E-01
         -2   -1    0    0    0  501 -0.00000000000E+00  0.00000000000E+00  0.99154525578E+03  0.99154525578E+03  0.00000000000E+00 0. -1.
          2   -1    0    0  501    0  0.00000000000E+00 -0.00000000000E+00 -0.20915160387E+04  0.20915160387E+04  0.00000000000E+00 0.  1.
         23    2    1    2    0    0  0.59978741809E+03  0.88838868260E+03  0.47651436255E+03  0.11766812662E+04  0.92376762504E+02 0.  0.
         11    1    3    3    0    0  0.53515560764E+03  0.75120397635E+03  0.38426039585E+03  0.99917715661E+03  0.00000000000E+00 0.  1.
        -11    1    3    3    0    0  0.64631810450E+02  0.13718470625E+03  0.92253966707E+02  0.17750410960E+03  0.00000000000E+00 0. -1.
         22    1    1    2    0    0 -0.59978741809E+03 -0.88838868260E+03 -0.15764851454E+04  0.19063800282E+04  0.00000000000E+00 0.  1.
<mgrwt>
<rscale>  0 0.28801617E+04</rscale>
<asrwt>0</asrwt>
<pdfrwt beam="1">  1        2 0.32177170E+00 0.28801617E+04</pdfrwt>
<pdfrwt beam="2">  1       -2 0.15254542E+00 0.28801617E+04</pdfrwt>
<totfact> 0.14712974E+00</totfact>
</mgrwt>
</event>
<event>
 6    1  0.5040916E-004  0.2995845E+04  0.7818608E-02  0.8244918E-01
          2   -1    0    0  501    0  0.00000000000E+00  0.00000000000E+00  0.32263989787E+04  0.32263989787E+04  0.00000000000E+00 0.  1.
         -2   -1    0    0    0  501 -0.00000000000E+00 -0.00000000000E+00 -0.69544155165E+03  0.69544155165E+03  0.00000000000E+00 0. -1.
         23    2    1    2    0    0  0.11218464460E+03  0.14200026153E+04  0.18675800413E+04  0.23505154914E+04  0.89861242122E+02 0.  0.
         11    1    3    3    0    0 -0.85864963843E+01  0.86571729850E+02  0.14027734020E+03  0.16506400123E+03  0.00000000000E+00 0.  1.
        -11    1    3    3    0    0  0.12077114098E+03  0.13334308855E+04  0.17273027011E+04  0.21854514902E+04  0.00000000000E+00 0. -1.
         22    1    1    2    0    0 -0.11218464460E+03 -0.14200026153E+04  0.66337738573E+03  0.15713250389E+04  0.00000000000E+00 0. -1.
<mgrwt>
<rscale>  0 0.29958451E+04</rscale>
<asrwt>0</asrwt>
<pdfrwt beam="1">  1        2 0.49636906E+00 0.29958451E+04</pdfrwt>
<pdfrwt beam="2">  1       -2 0.10699101E+00 0.29958451E+04</pdfrwt>
<totfact> 0.74917559E-01</totfact>
</mgrwt>
</event>
<event>
 6    1  0.5040916E-004  0.2391100E+04  0.7818608E-02  0.8442843E-01
          2   -1    0    0  501    0  0.00000000000E+00  0.00000000000E+00  0.11981652439E+04  0.11981652439E+04  0.00000000000E+00 0.  1.
         -2   -1    0    0    0  501 -0.00000000000E+00 -0.00000000000E+00 -0.11929400858E+04  0.11929400858E+04  0.00000000000E+00 0. -1.
         23    2    1    2    0    0 -0.99092693867E+03 -0.99653337114E+02 -0.65537741863E+03  0.11960058570E+04  0.95097127831E+02 0.  0.
         11    1    3    3    0    0 -0.42507739551E+03 -0.25549426920E+02 -0.33282577615E+03  0.54047808712E+03  0.00000000000E+00 0. -1.
        -11    1    3    3    0    0 -0.56584954316E+03 -0.74103910194E+02 -0.32255164248E+03  0.65552776987E+03  0.00000000000E+00 0.  1.
         22    1    1    2    0    0  0.99092693867E+03  0.99653337114E+02  0.66060257674E+03  0.11950994728E+04  0.00000000000E+00 0.  1.
<mgrwt>
<rscale>  0 0.23910996E+04</rscale>
<asrwt>0</asrwt>
<pdfrwt beam="1">  1        2 0.18433311E+00 0.23910996E+04</pdfrwt>
<pdfrwt beam="2">  1       -2 0.18352924E+00 0.23910996E+04</pdfrwt>
<totfact> 0.29300282E+00</totfact>
</mgrwt>
</event>
<event>
 6    1  0.5040916E-004  0.2990022E+04  0.7818608E-02  0.8246586E-01
          1   -1    0    0  501    0  0.00000000000E+00  0.00000000000E+00  0.24258259984E+04  0.24258259984E+04  0.00000000000E+00 0.  1.
         -1   -1    0    0    0  501 -0.00000000000E+00 -0.00000000000E+00 -0.92135929537E+03  0.92135929537E+03  0.00000000000E+00 0. -1.
         23    2    1    2    0    0  0.20671656415E+03 -0.35130901943E+03 -0.85575595798E+03  0.95202334214E+03  0.88771725973E+02 0.  0.
         13    1    3    3    0    0  0.34743721494E+02 -0.13637112368E+03 -0.25650640680E+03  0.29257434318E+03  0.00000000000E+00 0.  1.
        -13    1    3    3    0    0  0.17197284266E+03 -0.21493789575E+03 -0.59924955117E+03  0.65944899895E+03  0.00000000000E+00 0. -1.
         22    1    1    2    0    0 -0.20671656415E+03  0.35130901943E+03  0.23602226611E+04  0.23951619517E+04  0.00000000000E+00 0.  1.
<mgrwt>
<rscale>  0 0.29900216E+04</rscale>
<asrwt>0</asrwt>
<pdfrwt beam="1">  1        1 0.37320400E+00 0.29900216E+04</pdfrwt>
<pdfrwt beam="2">  1       -1 0.14174759E+00 0.29900216E+04</pdfrwt>
<totfact> 0.52678368E-01</totfact>
</mgrwt>
</event>
<event>
 6    1  0.5040916E-004  0.3295834E+04  0.7818608E-02  0.8163956E-01
          2   -1    0    0  501    0  0.00000000000E+00  0.00000000000E+00  0.14670943956E+04  0.14670943956E+04  0.00000000000E+00 0. -1.
         -2   -1    0    0    0  501 -0.00000000000E+00 -0.00000000000E+00 -0.18510261472E+04  0.18510261472E+04  0.00000000000E+00 0.  1.
         23    2    1    2    0    0 -0.13510488014E+04  0.29732036191E+03 -0.10914063932E+04  0.17643339970E+04  0.89298804750E+02 0.  0.
         11    1    3    3    0    0 -0.11589353989E+04  0.22467226905E+03 -0.91530377896E+03  0.14937837512E+04  0.00000000000E+00 0. -1.
        -11    1    3    3    0    0 -0.19211340250E+03  0.72648092864E+02 -0.17610261420E+03  0.27055024588E+03  0.00000000000E+00 0.  1.
         22    1    1    2    0    0  0.13510488014E+04 -0.29732036191E+03  0.70747464150E+03  0.15537865458E+04  0.00000000000E+00 0. -1.
<mgrwt>
<rscale>  0 0.32958338E+04</rscale>
<asrwt>0</asrwt>
<pdfrwt beam="1">  1        2 0.22570683E+00 0.32958338E+04</pdfrwt>
<pdfrwt beam="2">  1       -2 0.28477325E+00 0.32958338E+04</pdfrwt>
<totfact> 0.43594742E-01</totfact>
</mgrwt>
</event>
<event>
 6    1  0.5040916E-004  0.1990920E+04  0.7818608E-02  0.8610877E-01
         -2   -1    0    0    0  501 -0.00000000000E+00  0.00000000000E+00  0.76225297538E+03  0.76225297538E+03  0.00000000000E+00 0. -1.
          2   -1    0    0  501    0  0.00000000000E+00 -0.00000000000E+00 -0.13000158296E+04  0.13000158296E+04  0.00000000000E+00 0.  1.
         23    2    1    2    0    0 -0.36612590981E+03 -0.44667783760E+03 -0.11066845044E+04  0.12515647180E+04  0.89968764399E+02 0.  0.
         11    1    3    3    0    0 -0.24194123949E+03 -0.24201362269E+03 -0.58870193328E+03  0.68093767937E+03  0.00000000000E+00 0. -1.
        -11    1    3    3    0    0 -0.12418467032E+03 -0.20466421491E+03 -0.51798257117E+03  0.57062703865E+03  0.00000000000E+00 0.  1.
         22    1    1    2    0    0  0.36612590981E+03  0.44667783760E+03  0.56892165025E+03  0.81070408693E+03  0.00000000000E+00 0. -1.
<mgrwt>
<rscale>  0 0.19909203E+04</rscale>
<asrwt>0</asrwt>
<pdfrwt beam="1">  1        2 0.20000243E+00 0.19909203E+04</pdfrwt>
<pdfrwt beam="2">  1       -2 0.11726969E+00 0.19909203E+04</pdfrwt>
<totfact> 0.86407380E+00</totfact>
</mgrwt>
</event>
<event>
 6    1  0.5040916E-004  0.2898550E+04  0.7818608E-02  0.8273309E-01
         -2   -1    0    0    0  501 -0.00000000000E+00  0.00000000000E+00  0.16640850917E+04  0.16640850917E+04  0.00000000000E+00 0. -1.
          2   -1    0    0  501    0  0.00000000000E+00 -0.00000000000E+00 -0.12621936448E+04  0.12621936448E+04  0.00000000000E+00 0.  1.
         23    2    1    2    0    0  0.31354985717E+03 -0.14133803260E+04  0.23318630551E+03  0.14687400977E+04  0.82850241602E+02 0.  0.
         11    1    3    3    0    0  0.11569066588E+03 -0.61215780736E+03  0.63870835923E+02  0.62625952685E+03  0.00000000000E+00 0.  1.
        -11    1    3    3    0    0  0.19785919129E+03 -0.80122251866E+03  0.16931546959E+03  0.84248057083E+03  0.00000000000E+00 0. -1.
         22    1    1    2    0    0 -0.31354985717E+03  0.14133803260E+04  0.16870514140E+03  0.14575386388E+04  0.00000000000E+00 0.  1.
<mgrwt>
<rscale>  0 0.28985497E+04</rscale>
<asrwt>0</asrwt>
<pdfrwt beam="1">  1        2 0.19418364E+00 0.28985497E+04</pdfrwt>
<pdfrwt beam="2">  1       -2 0.25601309E+00 0.28985497E+04</pdfrwt>
<totfact> 0.88629172E-01</totfact>
</mgrwt>
</event>
<event>
 6    1  0.5040916E-004  0.1528876E+04  0.7818608E-02  0.8865474E-01
          2   -1    0    0  501    0  0.00000000000E+00  0.00000000000E+00  0.93326152081E+03  0.93326152081E+03  0.00000000000E+00 0.  1.
         -2   -1    0    0    0  501 -0.00000000000E+00 -0.00000000000E+00 -0.62615427771E+03  0.62615427771E+03  0.00000000000E+00 0. -1.
         23    2    1    2    0    0  0.53599413721E+03  0.18799971583E+03 -0.36326842974E+03  0.68075935200E+03  0.93998590539E+02 0.  0.
         13    1    3    3    0    0  0.42852298493E+03  0.11030244291E+03 -0.26590632766E+03  0.51624098308E+03  0.00000000000E+00 0. -1.
        -13    1    3    3    0    0  0.10747115227E+03  0.77697272916E+02 -0.97362102086E+02  0.16451836892E+03  0.00000000000E+00 0.  1.
         22    1    1    2    0    0 -0.53599413721E+03 -0.18799971583E+03  0.67037567284E+03  0.87865644652E+03  0.00000000000E+00 0.  1.
<mgrwt>
<rscale>  0 0.15288763E+04</rscale>
<asrwt>0</asrwt>
<pdfrwt beam="1">  1        2 0.14357870E+00 0.15288763E+04</pdfrwt>
<pdfrwt beam="2">  1       -2 0.96331427E-01 0.15288763E+04</pdfrwt>
<totfact> 0.24228972E+01</totfact>
</mgrwt>
</event>
<event>
 6    1  0.5040916E-004  0.1465011E+04  0.7818608E-02  0.8908059E-01
          2   -1    0    0  501    0  0.00000000000E+00  0.00000000000E+00  0.26535925827E+04  0.26535925827E+04  0.00000000000E+00 0.  1.
         -2   -1    0    0    0  501 -0.00000000000E+00 -0.00000000000E+00 -0.20220303888E+03  0.20220303888E+03  0.00000000000E+00 0. -1.
         23    2    1    2    0    0 -0.42769399341E+03 -0.59059959538E+03  0.11808898563E+04  0.13909067213E+04  0.91600331355E+02 0.  0.
         13    1    3    3    0    0 -0.25553489846E+03 -0.29162790466E+03  0.67822847913E+03  0.78124182493E+03  0.00000000000E+00 0. -1.
        -13    1    3    3    0    0 -0.17215909495E+03 -0.29897169072E+03  0.50266137712E+03  0.60966489638E+03  0.00000000000E+00 0.  1.
         22    1    1    2    0    0  0.42769399341E+03  0.59059959538E+03  0.12704996876E+04  0.14648889003E+04  0.00000000000E+00 0.  1.
<mgrwt>
<rscale>  0 0.14650112E+04</rscale>
<asrwt>0</asrwt>
<pdfrwt beam="1">  1        2 0.40824499E+00 0.14650112E+04</pdfrwt>
<pdfrwt beam="2">  1       -2 0.31108162E-01 0.14650112E+04</pdfrwt>
<totfact> 0.26375111E+01</totfact>
</mgrwt>
</event>
<event>
 6    1  0.5040916E-004  0.2492741E+04  0.7818608E-02  0.8405576E-01
         -2   -1    0    0    0  501 -0.00000000000E+00  0.00000000000E+00  0.12065711416E+04  0.12065711416E+04  0.00000000000E+00 0. -1.
          2   -1    0    0  501    0  0.00000000000E+00 -0.00000000000E+00 -0.12874828626E+04  0.12874828626E+04  0.00000000000E+00 0.  1.
         23    2    1    2    0    0  0.34072632753E+03 -0.75126605941E+03  0.89204147723E+03  0.12184627498E+04  0.91751584880E+02 0.  0.
         13    1    3    3    0    0  0.14614436092E+03 -0.32824973719E+03  0.45593400248E+03  0.58050140294E+03  0.00000000000E+00 0.  1.
        -13    1    3    3    0    0  0.19458196662E+03 -0.42301632222E+03  0.43610747475E+03  0.63796134689E+03  0.00000000000E+00 0. -1.
         22    1    1    2    0    0 -0.34072632753E+03  0.75126605941E+03 -0.97295319824E+03  0.12755912544E+04  0.00000000000E+00 0.  1.
<mgrwt>
<rscale>  0 0.24927412E+04</rscale>
<asrwt>0</asrwt>
<pdfrwt beam="1">  1        2 0.19807429E+00 0.24927412E+04</pdfrwt>
<pdfrwt beam="2">  1       -2 0.18562633E+00 0.24927412E+04</pdfrwt>
<totfact> 0.24894480E+00</totfact>
</mgrwt>
</event>
<event>
 6    1  0.9192011E-004  0.3659442E+04  0.7818608E-02  0.8077010E-01
          2   -1    0    0  501    0  0.00000000000E+00  0.00000000000E+00  0.17630440310E+04  0.17630440310E+04  0.00000000000E+00 0.  1.
         -2   -1    0    0    0  501 -0.00000000000E+00 -0.00000000000E+00 -0.18989198539E+04  0.18989198539E+04  0.00000000000E+00 0. -1.
         23    2    1    2    0    0 -0.11974966845E+04 -0.13246477925E+03  0.13084607304E+04  0.17810988428E+04  0.93265094103E+02 0.  0.
         13    1    3    3    0    0 -0.29997525388E+03 -0.16553438078E+02  0.27345519691E+03  0.40624735565E+03  0.00000000000E+00 0. -1.
        -13    1    3    3    0    0 -0.89752143060E+03 -0.11591134117E+03  0.10350055335E+04  0.13748514872E+04  0.00000000000E+00 0.  1.
         22    1    1    2    0    0  0.11974966845E+04  0.13246477925E+03 -0.14443365533E+04  0.18808650420E+04  0.00000000000E+00 0. -1.
<mgrwt>
<rscale>  0 0.36594422E+04</rscale>
<asrwt>0</asrwt>
<pdfrwt beam="1">  1        2 0.27123754E+00 0.36594422E+04</pdfrwt>
<pdfrwt beam="2">  1       -2 0.29214152E+00 0.36594422E+04</pdfrwt>
<totfact> 0.26049693E-01</totfact>
</mgrwt>
</event>
<event>
 6    1  0.5040916E-004  0.3146839E+04  0.7818608E-02  0.8203000E-01
         -2   -1    0    0    0  501 -0.00000000000E+00  0.00000000000E+00  0.83193703604E+03  0.83193703604E+03  0.00000000000E+00 0. -1.
          2   -1    0    0  501    0  0.00000000000E+00 -0.00000000000E+00 -0.29757655811E+04  0.29757655811E+04  0.00000000000E+00 0.  1.
         23    2    1    2    0    0 -0.15277571911E+04 -0.26492628164E+03 -0.75953981114E+03  0.17291253950E+04  0.93519715592E+02 0.  0.
         13    1    3    3    0    0 -0.36145064248E+03 -0.34604260144E+02 -0.14655132116E+03  0.39156265335E+03  0.00000000000E+00 0. -1.
        -13    1    3    3    0    0 -0.11663065486E+04 -0.23032202149E+03 -0.61298848998E+03  0.13375627416E+04  0.00000000000E+00 0.  1.
         22    1    1    2    0    0  0.15277571911E+04  0.26492628164E+03 -0.13842887339E+04  0.20785772222E+04  0.00000000000E+00 0. -1.
<mgrwt>
<rscale>  0 0.31468394E+04</rscale>
<asrwt>0</asrwt>
<pdfrwt beam="1">  1        2 0.45781008E+00 0.31468394E+04</pdfrwt>
<pdfrwt beam="2">  1       -2 0.12799032E+00 0.31468394E+04</pdfrwt>
<totfact> 0.68844690E-01</totfact>
</mgrwt>
</event>
<event>
 6    1  0.5040916E-004  0.3042781E+04  0.7818608E-02  0.8231619E-01
          2   -1    0    0  501    0  0.00000000000E+00  0.00000000000E+00  0.24060230539E+04  0.24060230539E+04  0.00000000000E+00 0.  1.
         -2   -1    0    0    0  501 -0.00000000000E+00 -0.00000000000E+00 -0.96201449708E+03  0.96201449708E+03  0.00000000000E+00 0. -1.
         23    2    1    2    0    0 -0.13928867492E+04 -0.38875735143E+03  0.12408389770E+04  0.19077144181E+04  0.91799561849E+02 0.  0.
         13    1    3    3    0    0 -0.27937541562E+03 -0.11371784304E+03  0.23986901539E+03  0.38538229750E+03  0.00000000000E+00 0. -1.
        -13    1    3    3    0    0 -0.11135113336E+04 -0.27503950839E+03  0.10009699617E+04  0.15223321206E+04  0.00000000000E+00 0.  1.
         22    1    1    2    0    0  0.13928867492E+04  0.38875735143E+03  0.20316957977E+03  0.14603231329E+04  0.00000000000E+00 0. -1.
<mgrwt>
<rscale>  0 0.30427810E+04</rscale>
<asrwt>0</asrwt>
<pdfrwt beam="1">  1        2 0.37015739E+00 0.30427810E+04</pdfrwt>
<pdfrwt beam="2">  1       -2 0.14800223E+00 0.30427810E+04</pdfrwt>
<totfact> 0.10442918E+00</totfact>
</mgrwt>
</event>
<event>
 6    1  0.5040916E-004  0.1183048E+04  0.7818608E-02  0.9127825E-01
          2   -1    0    0  501    0  0.00000000000E+00  0.00000000000E+00  0.10354418775E+04  0.10354418775E+04  0.00000000000E+00 0.  1.
         -2   -1    0    0    0  501 -0.00000000000E+00 -0.00000000000E+00 -0.33792417628E+03  0.33792417628E+03  0.00000000000E+00 0. -1.
         23    2    1    2    0    0 -0.42437628660E+03 -0.86760679585E+02  0.81239624856E+03  0.92523691079E+03  0.91940351645E+02 0.  0.
         11    1    3    3    0    0 -0.13913554310E+03  0.15028654619E+02  0.25759812185E+03  0.29315755524E+03  0.00000000000E+00 0. -1.
        -11    1    3    3    0    0 -0.28524074350E+03 -0.10178933420E+03  0.55479812671E+03  0.63207935555E+03  0.00000000000E+00 0.  1.
         22    1    1    2    0    0  0.42437628660E+03  0.86760679585E+02 -0.11487854736E+03  0.44812914298E+03  0.00000000000E+00 0. -1.
<mgrwt>
<rscale>  0 0.11830483E+04</rscale>
<asrwt>0</asrwt>
<pdfrwt beam="1">  1        2 0.15929875E+00 0.11830483E+04</pdfrwt>
<pdfrwt beam="2">  1       -2 0.51988335E-01 0.11830483E+04</pdfrwt>
<totfact> 0.82496254E+01</totfact>
</mgrwt>
</event>
<event>
 6    1  0.5040916E-004  0.3517854E+04  0.7818608E-02  0.8109572E-01
          2   -1    0    0  501    0  0.00000000000E+00  0.00000000000E+00  0.17822432890E+04  0.17822432890E+04  0.00000000000E+00 0.  1.
         -2   -1    0    0    0  501 -0.00000000000E+00 -0.00000000000E+00 -0.17359153334E+04  0.17359153334E+04  0.00000000000E+00 0. -1.
         23    2    1    2    0    0  0.36369778141E+03  0.10893061750E+04 -0.13077161071E+04  0.17426870391E+04  0.89289867867E+02 0.  0.
         11    1    3    3    0    0  0.11484324773E+03  0.48338313090E+03 -0.56039208706E+03  0.74892423784E+03  0.00000000000E+00 0. -1.
        -11    1    3    3    0    0  0.24885453368E+03  0.60592304408E+03 -0.74732402007E+03  0.99376280130E+03  0.00000000000E+00 0.  1.
         22    1    1    2    0    0 -0.36369778141E+03 -0.10893061750E+04  0.13540440628E+04  0.17754715833E+04  0.00000000000E+00 0.  1.
<mgrwt>
<rscale>  0 0.35178536E+04</rscale>
<asrwt>0</asrwt>
<pdfrwt beam="1">  1        2 0.27419127E+00 0.35178536E+04</pdfrwt>
<pdfrwt beam="2">  1       -2 0.26706390E+00 0.35178536E+04</pdfrwt>
<totfact> 0.36584461E-01</totfact>
</mgrwt>
</event>
<event>
 6    1  0.5040916E-004  0.1550269E+04  0.7818608E-02  0.8851696E-01
         -2   -1    0    0    0  501 -0.00000000000E+00  0.00000000000E+00  0.30808500589E+03  0.30808500589E+03  0.00000000000E+00 0. -1.
          2   -1    0    0  501    0  0.00000000000E+00 -0.00000000000E+00 -0.19502204357E+04  0.19502204357E+04  0.00000000000E+00 0.  1.
         23    2    1    2    0    0 -0.65433573164E+03 -0.23360664443E+03 -0.13155592734E+04  0.14905950144E+04  0.91923779436E+02 0.  0.
         11    1    3    3    0    0 -0.43243576082E+03 -0.18488529426E+03 -0.95316550803E+03  0.10628771072E+04  0.00000000000E+00 0.  1.
        -11    1    3    3    0    0 -0.22189997082E+03 -0.48721350171E+02 -0.36239376534E+03  0.42771790723E+03  0.00000000000E+00 0. -1.
         22    1    1    2    0    0  0.65433573164E+03  0.23360664443E+03 -0.32657615643E+03  0.76771042716E+03  0.00000000000E+00 0. -1.
<mgrwt>
<rscale>  0 0.15502692E+04</rscale>
<asrwt>0</asrwt>
<pdfrwt beam="1">  1        2 0.30003392E+00 0.15502692E+04</pdfrwt>
<pdfrwt beam="2">  1       -2 0.47397692E-01 0.15502692E+04</pdfrwt>
<totfact> 0.28920958E+01</totfact>
</mgrwt>
</event>
<event>
 6    1  0.5040916E-004  0.1316512E+04  0.7818608E-02  0.9016573E-01
          4   -1    0    0  501    0  0.00000000000E+00  0.00000000000E+00  0.10704301764E+04  0.10704301764E+04  0.00000000000E+00 0. -1.
         -4   -1    0    0    0  501 -0.00000000000E+00 -0.00000000000E+00 -0.40479139128E+03  0.40479139128E+03  0.00000000000E+00 0.  1.
         23    2    1    2    0    0  0.49407469938E+03  0.20296386868E+03  0.75970703128E+03  0.93286285294E+03  0.88171358440E+02 0.  0.
         13    1    3    3    0    0  0.37545234795E+03  0.11829898175E+03  0.51772346056E+03  0.65038196183E+03  0.00000000000E+00 0.  1.
        -13    1    3    3    0    0  0.11862235143E+03  0.84664886931E+02  0.24198357073E+03  0.28248089110E+03  0.00000000000E+00 0. -1.
         22    1    1    2    0    0 -0.49407469938E+03 -0.20296386868E+03 -0.94068246132E+02  0.54235871477E+03  0.00000000000E+00 0.  1.
<mgrwt>
<rscale>  0 0.13165119E+04</rscale>
<asrwt>0</asrwt>
<pdfrwt beam="1">  1        4 0.16468156E+00 0.13165119E+04</pdfrwt>
<pdfrwt beam="2">  1       -4 0.62275599E-01 0.13165119E+04</pdfrwt>
<totfact> 0.10930505E+00</totfact>
</mgrwt>
</event>
<event>
 6    1  0.5475743E-004  0.5532390E+04  0.7818608E-02  0.7751248E-01
          2   -1    0    0  501    0  0.00000000000E+00  0.00000000000E+00  0.28590117126E+04  0.28590117126E+04  0.00000000000E+00 0.  1.
         -2   -1    0    0    0  501 -0.00000000000E+00 -0.00000000000E+00 -0.26763912204E+04  0.26763912204E+04  0.00000000000E+00 0. -1.
         23    2    1    2    0    0  0.76430247470E+03  0.12444849110E+04 -0.22583223204E+04  0.26909165504E+04  0.90062266913E+02 0.  0.
         13    1    3    3    0    0  0.48167354827E+03  0.86232020075E+03 -0.15051881929E+04  0.18003324781E+04  0.00000000000E+00 0.  1.
        -13    1    3    3    0    0  0.28262892643E+03  0.38216471024E+03 -0.75313412750E+03  0.89058407229E+03  0.00000000000E+00 0. -1.
         22    1    1    2    0    0 -0.76430247470E+03 -0.12444849110E+04  0.24409428126E+04  0.28444863826E+04  0.00000000000E+00 0.  1.
<mgrwt>
<rscale>  0 0.55323897E+04</rscale>
<asrwt>0</asrwt>
<pdfrwt beam="1">  1        2 0.43984796E+00 0.55323897E+04</pdfrwt>
<pdfrwt beam="2">  1       -2 0.41175250E+00 0.55323897E+04</pdfrwt>
<totfact> 0.92469431E-03</totfact>
</mgrwt>
</event>
<event>
 6    1  0.5040916E-004  0.2136291E+04  0.7818608E-02  0.8545423E-01
         -2   -1    0    0    0  501 -0.00000000000E+00  0.00000000000E+00  0.41113500346E+03  0.41113500346E+03  0.00000000000E+00 0. -1.
          2   -1    0    0  501    0  0.00000000000E+00 -0.00000000000E+00 -0.27750855340E+04  0.27750855340E+04  0.00000000000E+00 0.  1.
         23    2    1    2    0    0 -0.41334344877E+03  0.24170244457E+03  0.23719108567E+03  0.54137449545E+03  0.86912915334E+02 0.  0.
         11    1    3    3    0    0 -0.13907513348E+03  0.12093738823E+03  0.11812311972E+03  0.21890823657E+03  0.00000000000E+00 0.  1.
        -11    1    3    3    0    0 -0.27426831528E+03  0.12076505635E+03  0.11906796595E+03  0.32246625888E+03  0.00000000000E+00 0. -1.
         22    1    1    2    0    0  0.41334344877E+03 -0.24170244457E+03 -0.26011416162E+04  0.26448460420E+04  0.00000000000E+00 0.  1.
<mgrwt>
<rscale>  0 0.21362910E+04</rscale>
<asrwt>0</asrwt>
<pdfrwt beam="1">  1        2 0.42693624E+00 0.21362910E+04</pdfrwt>
<pdfrwt beam="2">  1       -2 0.63251539E-01 0.21362910E+04</pdfrwt>
<totfact> 0.50958749E+00</totfact>
</mgrwt>
</event>
<event>
 6    1  0.5040916E-004  0.1921090E+04  0.7818608E-02  0.8644429E-01
         -2   -1    0    0    0  501 -0.00000000000E+00  0.00000000000E+00  0.55495048931E+03  0.55495048931E+03  0.00000000000E+00 0. -1.
          2   -1    0    0  501    0  0.00000000000E+00 -0.00000000000E+00 -0.16625744468E+04  0.16625744468E+04  0.00000000000E+00 0.  1.
         23    2    1    2    0    0  0.53746462903E+03  0.40593377270E+03 -0.13420888832E+04  0.15043459567E+04  0.90574455107E+02 0.  0.
         13    1    3    3    0    0  0.21042978208E+03  0.10498850281E+03 -0.46451707947E+03  0.52065285558E+03  0.00000000000E+00 0. -1.
        -13    1    3    3    0    0  0.32703484695E+03  0.30094526989E+03 -0.87757180369E+03  0.98369310113E+03  0.00000000000E+00 0.  1.
         22    1    1    2    0    0 -0.53746462903E+03 -0.40593377270E+03  0.23446492566E+03  0.71317897939E+03  0.00000000000E+00 0. -1.
<mgrwt>
<rscale>  0 0.19210898E+04</rscale>
<asrwt>0</asrwt>
<pdfrwt beam="1">  1        2 0.25578069E+00 0.19210898E+04</pdfrwt>
<pdfrwt beam="2">  1       -2 0.85376997E-01 0.19210898E+04</pdfrwt>
<totfact> 0.11474897E+01</totfact>
</mgrwt>
</event>
<event>
 6    1  0.5040916E-004  0.2956243E+04  0.7818608E-02  0.8256337E-01
          2   -1    0    0  501    0  0.00000000000E+00  0.00000000000E+00  0.34626329907E+04  0.34626329907E+04  0.00000000000E+00 0.  1.
         -2   -1    0    0    0  501 -0.00000000000E+00 -0.00000000000E+00 -0.63097761115E+03  0.63097761115E+03  0.00000000000E+00 0. -1.
         23    2    1    2    0    0  0.12506797888E+03 -0.98329860054E+03  0.29329565016E+04  0.30972271141E+04  0.89798768716E+02 0.  0.
         11    1    3    3    0    0  0.13820621501E+03 -0.93212985690E+03  0.27881960159E+04  0.29431282764E+04  0.00000000000E+00 0.  1.
        -11    1    3    3    0    0 -0.13138236127E+02 -0.51168743643E+02  0.14476048572E+03  0.15409883776E+03  0.00000000000E+00 0. -1.
         22    1    1    2    0    0 -0.12506797888E+03  0.98329860054E+03 -0.10130112213E+03  0.99638348767E+03  0.00000000000E+00 0. -1.
<mgrwt>
<rscale>  0 0.29562435E+04</rscale>
<asrwt>0</asrwt>
<pdfrwt beam="1">  1        2 0.53271275E+00 0.29562435E+04</pdfrwt>
<pdfrwt beam="2">  1       -2 0.97073481E-01 0.29562435E+04</pdfrwt>
<totfact> 0.65661787E-01</totfact>
</mgrwt>
</event>
<event>
 6    1  0.5040916E-004  0.2097250E+04  0.7818608E-02  0.8562456E-01
         -2   -1    0    0    0  501 -0.00000000000E+00  0.00000000000E+00  0.36661801972E+03  0.36661801972E+03  0.00000000000E+00 0. -1.
          2   -1    0    0  501    0  0.00000000000E+00 -0.00000000000E+00 -0.29993472188E+04  0.29993472188E+04  0.00000000000E+00 0.  1.
         23    2    1    2    0    0 -0.39317034943E+03 -0.30280404021E+03  0.15997926494E+03  0.52950727560E+03  0.92257136660E+02 0.  0.
         11    1    3    3    0    0 -0.39590820311E+02 -0.60015034960E+02  0.47234433702E+02  0.86025166093E+02  0.00000000000E+00 0.  1.
        -11    1    3    3    0    0 -0.35357952912E+03 -0.24278900525E+03  0.11274483124E+03  0.44348210951E+03  0.00000000000E+00 0. -1.
         22    1    1    2    0    0  0.39317034943E+03  0.30280404021E+03 -0.27927084640E+04  0.28364579629E+04  0.00000000000E+00 0.  1.
<mgrwt>
<rscale>  0 0.20972503E+04</rscale>
<asrwt>0</asrwt>
<pdfrwt beam="1">  1        2 0.46143801E+00 0.20972503E+04</pdfrwt>
<pdfrwt beam="2">  1       -2 0.56402775E-01 0.20972503E+04</pdfrwt>
<totfact> 0.47471802E+00</totfact>
</mgrwt>
</event>
<event>
 6    1  0.5040916E-004  0.3012046E+04  0.7818608E-02  0.8240299E-01
         -2   -1    0    0    0  501 -0.00000000000E+00  0.00000000000E+00  0.11629812164E+04  0.11629812164E+04  0.00000000000E+00 0. -1.
          2   -1    0    0  501    0  0.00000000000E+00 -0.00000000000E+00 -0.19502514192E+04  0.19502514192E+04  0.00000000000E+00 0.  1.
         23    2    1    2    0    0 -0.25652276352E+03  0.56138283487E+03  0.10243078332E+04  0.11993962800E+04  0.91598492613E+02 0.  0.
         11    1    3    3    0    0 -0.47107721878E+02  0.19755085202E+03  0.30137389353E+03  0.36341670338E+03  0.00000000000E+00 0. -1.
        -11    1    3    3    0    0 -0.20941504165E+03  0.36383198286E+03  0.72293393970E+03  0.83597957665E+03  0.00000000000E+00 0.  1.
         22    1    1    2    0    0  0.25652276352E+03 -0.56138283487E+03 -0.18115780360E+04  0.19138363556E+04  0.00000000000E+00 0.  1.
<mgrwt>
<rscale>  0 0.30120463E+04</rscale>
<asrwt>0</asrwt>
<pdfrwt beam="1">  1        2 0.30003868E+00 0.30120463E+04</pdfrwt>
<pdfrwt beam="2">  1       -2 0.17892019E+00 0.30120463E+04</pdfrwt>
<totfact> 0.11234780E+00</totfact>
</mgrwt>
</event>
<event>
 6    1  0.5040916E-004  0.2684063E+04  0.7818608E-02  0.8340194E-01
         -2   -1    0    0    0  501 -0.00000000000E+00  0.00000000000E+00  0.57234224963E+03  0.57234224963E+03  0.00000000000E+00 0. -1.
          2   -1    0    0  501    0  0.00000000000E+00 -0.00000000000E+00 -0.31468037875E+04  0.31468037875E+04  0.00000000000E+00 0.  1.
         23    2    1    2    0    0  0.68815371960E+03  0.10716125423E+04 -0.18681825820E+04  0.22628703262E+04  0.92557933770E+02 0.  0.
         11    1    3    3    0    0  0.44412518456E+03  0.64695515557E+03 -0.10820799931E+04  0.13366732078E+04  0.00000000000E+00 0.  1.
        -11    1    3    3    0    0  0.24402853504E+03  0.42465738674E+03 -0.78610258885E+03  0.92619711845E+03  0.00000000000E+00 0. -1.
         22    1    1    2    0    0 -0.68815371960E+03 -0.10716125423E+04 -0.70627895592E+03  0.14562757109E+04  0.00000000000E+00 0.  1.
<mgrwt>
<rscale>  0 0.26840632E+04</rscale>
<asrwt>0</asrwt>
<pdfrwt beam="1">  1        2 0.48412367E+00 0.26840632E+04</pdfrwt>
<pdfrwt beam="2">  1       -2 0.88052652E-01 0.26840632E+04</pdfrwt>
<totfact> 0.13706578E+00</totfact>
</mgrwt>
</event>
<event>
 6    1  0.5040916E-004  0.5800327E+04  0.7818608E-02  0.7715664E-01
          2   -1    0    0  501    0  0.00000000000E+00  0.00000000000E+00  0.36051375143E+04  0.36051375143E+04  0.00000000000E+00 0.  1.
         -2   -1    0    0    0  501 -0.00000000000E+00 -0.00000000000E+00 -0.23330454621E+04  0.23330454621E+04  0.00000000000E+00 0. -1.
         23    2    1    2    0    0  0.18737525861E+04 -0.21485465255E+03  0.28907737017E+04  0.34527772635E+04  0.89369799542E+02 0.  0.
         13    1    3    3    0    0  0.88649284933E+03 -0.57636263507E+02  0.13440430435E+04  0.16111000011E+04  0.00000000000E+00 0. -1.
        -13    1    3    3    0    0  0.98725973680E+03 -0.15721838905E+03  0.15467306581E+04  0.18416772623E+04  0.00000000000E+00 0.  1.
         22    1    1    2    0    0 -0.18737525861E+04  0.21485465255E+03 -0.16186816494E+04  0.24854057130E+04  0.00000000000E+00 0. -1.
<mgrwt>
<rscale>  0 0.58003275E+04</rscale>
<asrwt>0</asrwt>
<pdfrwt beam="1">  1        2 0.55463654E+00 0.58003275E+04</pdfrwt>
<pdfrwt beam="2">  1       -2 0.35893007E+00 0.58003275E+04</pdfrwt>
<totfact> 0.63763088E-03</totfact>
</mgrwt>
</event>
<event>
 6    1  0.5040916E-004  0.4629499E+04  0.7818608E-02  0.7888349E-01
         -2   -1    0    0    0  501 -0.00000000000E+00  0.00000000000E+00  0.16679386686E+04  0.16679386686E+04  0.00000000000E+00 0. -1.
          2   -1    0    0  501    0  0.00000000000E+00 -0.00000000000E+00 -0.32123877186E+04  0.32123877186E+04  0.00000000000E+00 0.  1.
         23    2    1    2    0    0  0.21200462733E+04 -0.91136647326E+03 -0.59416892065E+03  0.23846867149E+04  0.92244091689E+02 0.  0.
         11    1    3    3    0    0  0.14263282922E+04 -0.65683810552E+03 -0.38801118493E+03  0.16175294042E+04  0.00000000000E+00 0.  1.
        -11    1    3    3    0    0  0.69371798112E+03 -0.25452836775E+03 -0.20615773572E+03  0.76715731066E+03  0.00000000000E+00 0. -1.
         22    1    1    2    0    0 -0.21200462733E+04  0.91136647326E+03 -0.95028012938E+03  0.24956396723E+04  0.00000000000E+00 0. -1.
<mgrwt>
<rscale>  0 0.46294992E+04</rscale>
<asrwt>0</asrwt>
<pdfrwt beam="1">  1        2 0.49421350E+00 0.46294992E+04</pdfrwt>
<pdfrwt beam="2">  1       -2 0.25660595E+00 0.46294992E+04</pdfrwt>
<totfact> 0.55802654E-02</totfact>
</mgrwt>
</event>
<event>
 6    1  0.5040916E-004  0.9637560E+03  0.7818608E-02  0.9349215E-01
         -2   -1    0    0    0  501 -0.00000000000E+00  0.00000000000E+00  0.23073488821E+03  0.23073488821E+03  0.00000000000E+00 0. -1.
          2   -1    0    0  501    0  0.00000000000E+00 -0.00000000000E+00 -0.10063774932E+04  0.10063774932E+04  0.00000000000E+00 0.  1.
         23    2    1    2    0    0  0.29927292742E+03 -0.32304089054E+03 -0.15383303023E+03  0.47516300690E+03  0.90529442129E+02 0.  0.
         11    1    3    3    0    0  0.13018005101E+03 -0.19808662598E+03 -0.57588930335E+02  0.24392958404E+03  0.00000000000E+00 0. -1.
        -11    1    3    3    0    0  0.16909287642E+03 -0.12495426456E+03 -0.96244099890E+02  0.23123342287E+03  0.00000000000E+00 0.  1.
         22    1    1    2    0    0 -0.29927292742E+03  0.32304089054E+03 -0.62180957476E+03  0.76194937451E+03  0.00000000000E+00 0.  1.
<mgrwt>
<rscale>  0 0.96375598E+03</rscale>
<asrwt>0</asrwt>
<pdfrwt beam="1">  1        2 0.15482731E+00 0.96375598E+03</pdfrwt>
<pdfrwt beam="2">  1       -2 0.35497675E-01 0.96375598E+03</pdfrwt>
<totfact> 0.18583699E+02</totfact>
</mgrwt>
</event>
<event>
 6    1  0.5040916E-004  0.2773741E+04  0.7818608E-02  0.8311467E-01
         -2   -1    0    0    0  501 -0.00000000000E+00  0.00000000000E+00  0.12958538072E+04  0.12958538072E+04  0.00000000000E+00 0. -1.
          2   -1    0    0  501    0  0.00000000000E+00 -0.00000000000E+00 -0.14842804371E+04  0.14842804371E+04  0.00000000000E+00 0.  1.
         23    2    1    2    0    0 -0.36328043831E+03  0.12098348064E+04 -0.66398999196E+03  0.14303811383E+04  0.97131640483E+02 0.  0.
         11    1    3    3    0    0 -0.56055654893E+02  0.32113477695E+03 -0.15133814956E+03  0.35940647869E+03  0.00000000000E+00 0. -1.
        -11    1    3    3    0    0 -0.30722478341E+03  0.88870002950E+03 -0.51265184240E+03  0.10709746596E+04  0.00000000000E+00 0.  1.
         22    1    1    2    0    0  0.36328043831E+03 -0.12098348064E+04  0.47556336213E+03  0.13497531060E+04  0.00000000000E+00 0. -1.
<mgrwt>
<rscale>  0 0.27737415E+04</rscale>
<asrwt>0</asrwt>
<pdfrwt beam="1">  1        2 0.22835084E+00 0.27737415E+04</pdfrwt>
<pdfrwt beam="2">  1       -2 0.19936213E+00 0.27737415E+04</pdfrwt>
<totfact> 0.15174275E+00</totfact>
</mgrwt>
</event>
<event>
 6    1  0.5040916E-004  0.3458060E+04  0.7818608E-02  0.8123802E-01
         -2   -1    0    0    0  501 -0.00000000000E+00  0.00000000000E+00  0.12662304433E+04  0.12662304433E+04  0.00000000000E+00 0. -1.
          2   -1    0    0  501    0  0.00000000000E+00 -0.00000000000E+00 -0.23609796984E+04  0.23609796984E+04  0.00000000000E+00 0.  1.
         23    2    1    2    0    0 -0.47838110596E+03  0.15048479168E+04  0.18783808638E+03  0.15928930514E+04  0.92786806534E+02 0.  0.
         11    1    3    3    0    0 -0.37932346961E+03  0.12078189093E+04  0.11337602369E+03  0.12710495408E+04  0.00000000000E+00 0. -1.
        -11    1    3    3    0    0 -0.99057636352E+02  0.29702900743E+03  0.74462062684E+02  0.32184351066E+03  0.00000000000E+00 0.  1.
         22    1    1    2    0    0  0.47838110596E+03 -0.15048479168E+04 -0.12825873414E+04  0.20343170902E+04  0.00000000000E+00 0.  1.
<mgrwt>
<rscale>  0 0.34580598E+04</rscale>
<asrwt>0</asrwt>
<pdfrwt beam="1">  1        2 0.36322764E+00 0.34580598E+04</pdfrwt>
<pdfrwt beam="2">  1       -2 0.19480468E+00 0.34580598E+04</pdfrwt>
<totfact> 0.49672539E-01</totfact>
</mgrwt>
</event>
<event>
 6    1  0.5040916E-004  0.2776858E+04  0.7818608E-02  0.8310489E-01
         -2   -1    0    0    0  501 -0.00000000000E+00  0.00000000000E+00  0.54714982626E+03  0.54714982626E+03  0.00000000000E+00 0. -1.
          2   -1    0    0  501    0  0.00000000000E+00 -0.00000000000E+00 -0.35232310406E+04  0.35232310406E+04  0.00000000000E+00 0.  1.
         23    2    1    2    0    0 -0.11831436848E+04 -0.66942494518E+03 -0.18927189629E+04  0.23320965104E+04  0.91270613902E+02 0.  0.
         11    1    3    3    0    0 -0.21525425587E+03 -0.96688508838E+02 -0.37577107724E+03  0.44371946644E+03  0.00000000000E+00 0.  1.
        -11    1    3    3    0    0 -0.96788942896E+03 -0.57273643634E+03 -0.15169478857E+04  0.18883770439E+04  0.00000000000E+00 0. -1.
         22    1    1    2    0    0  0.11831436848E+04  0.66942494518E+03 -0.10833622514E+04  0.17382843565E+04  0.00000000000E+00 0. -1.
<mgrwt>
<rscale>  0 0.27768581E+04</rscale>
<asrwt>0</asrwt>
<pdfrwt beam="1">  1        2 0.54203555E+00 0.27768581E+04</pdfrwt>
<pdfrwt beam="2">  1       -2 0.84176896E-01 0.27768581E+04</pdfrwt>
<totfact> 0.84086516E-01</totfact>
</mgrwt>
</event>
<event>
 6    1  0.5040916E-004  0.1489463E+04  0.7818608E-02  0.8891490E-01
          2   -1    0    0  501    0  0.00000000000E+00  0.00000000000E+00  0.28544414576E+04  0.28544414576E+04  0.00000000000E+00 0.  1.
         -2   -1    0    0    0  501 -0.00000000000E+00 -0.00000000000E+00 -0.19430242644E+03  0.19430242644E+03  0.00000000000E+00 0. -1.
         23    2    1    2    0    0  0.48979583120E+03  0.24706895375E+03  0.31291572920E+03  0.63826670028E+03  0.92331483973E+02 0.  0.
         13    1    3    3    0    0  0.23519749549E+03  0.11933217611E+03  0.20352906907E+03  0.33313977862E+03  0.00000000000E+00 0. -1.
        -13    1    3    3    0    0  0.25459833570E+03  0.12773677764E+03  0.10938666014E+03  0.30512692166E+03  0.00000000000E+00 0.  1.
         22    1    1    2    0    0 -0.48979583120E+03 -0.24706895375E+03  0.23472233020E+04  0.24104771838E+04  0.00000000000E+00 0.  1.
<mgrwt>
<rscale>  0 0.14894629E+04</rscale>
<asrwt>0</asrwt>
<pdfrwt beam="1">  1        2 0.43914481E+00 0.14894629E+04</pdfrwt>
<pdfrwt beam="2">  1       -2 0.29892683E-01 0.14894629E+04</pdfrwt>
<totfact> 0.21515482E+01</totfact>
</mgrwt>
</event>
<event>
 6    1  0.5040916E-004  0.3958217E+04  0.7818608E-02  0.8013029E-01
          1   -1    0    0  501    0  0.00000000000E+00  0.00000000000E+00  0.32943296548E+04  0.32943296548E+04  0.00000000000E+00 0.  1.
         -1   -1    0    0    0  501 -0.00000000000E+00 -0.00000000000E+00 -0.11889736701E+04  0.11889736701E+04  0.00000000000E+00 0. -1.
         23    2    1    2    0    0 -0.92823135878E+03  0.23439873646E+03 -0.90734666494E+03  0.13221431774E+04  0.90710462689E+02 0.  0.
         11    1    3    3    0    0 -0.73536175777E+03  0.15552615294E+03 -0.67752881485E+03  0.10119242037E+04  0.00000000000E+00 0.  1.
        -11    1    3    3    0    0 -0.19286960102E+03  0.78872583525E+02 -0.22981785010E+03  0.31021897371E+03  0.00000000000E+00 0. -1.
         22    1    1    2    0    0  0.92823135878E+03 -0.23439873646E+03  0.30127026497E+04  0.31611601475E+04  0.00000000000E+00 0.  1.
<mgrwt>
<rscale>  0 0.39582174E+04</rscale>
<asrwt>0</asrwt>
<pdfrwt beam="1">  1        1 0.50681994E+00 0.39582174E+04</pdfrwt>
<pdfrwt beam="2">  1       -1 0.18291903E+00 0.39582174E+04</pdfrwt>
<totfact> 0.56116658E-02</totfact>
</mgrwt>
</event>
<event>
 6    1  0.5040916E-004  0.1152452E+04  0.7818608E-02  0.9155525E-01
          2   -1    0    0  501    0  0.00000000000E+00  0.00000000000E+00  0.17535410518E+04  0.17535410518E+04  0.00000000000E+00 0.  1.
         -2   -1    0    0    0  501 -0.00000000000E+00 -0.00000000000E+00 -0.18935190005E+03  0.18935190005E+03  0.00000000000E+00 0. -1.
         23    2    1    2    0    0  0.11952873336E+03  0.37484750239E+03  0.85383357488E+02  0.41264318619E+03  0.90478247238E+02 0.  0.
         13    1    3    3    0    0  0.42895828065E+02  0.70116388232E+02 -0.13356724796E+02  0.83275218771E+02  0.00000000000E+00 0.  1.
        -13    1    3    3    0    0  0.76632905300E+02  0.30473111416E+03  0.98740082284E+02  0.32936796742E+03  0.00000000000E+00 0. -1.
         22    1    1    2    0    0 -0.11952873336E+03 -0.37484750239E+03  0.14788057943E+04  0.15302497657E+04  0.00000000000E+00 0.  1.
<mgrwt>
<rscale>  0 0.11524519E+04</rscale>
<asrwt>0</asrwt>
<pdfrwt beam="1">  1        2 0.26977554E+00 0.11524519E+04</pdfrwt>
<pdfrwt beam="2">  1       -2 0.29131063E-01 0.11524519E+04</pdfrwt>
<totfact> 0.98180473E+01</totfact>
</mgrwt>
</event>
<event>
 6    1  0.5040916E-004  0.2328266E+04  0.7818608E-02  0.8466859E-01
         -2   -1    0    0    0  501 -0.00000000000E+00  0.00000000000E+00  0.43530763361E+03  0.43530763361E+03  0.00000000000E+00 0. -1.
          2   -1    0    0  501    0  0.00000000000E+00 -0.00000000000E+00 -0.31132135564E+04  0.31132135564E+04  0.00000000000E+00 0.  1.
         23    2    1    2    0    0 -0.17939961332E+03  0.30473626772E+03 -0.30285731308E+04  0.30505092374E+04  0.91120716566E+02 0.  0.
         13    1    3    3    0    0 -0.65717061840E+02  0.11991233301E+03 -0.82232623007E+03  0.83361749531E+03  0.00000000000E+00 0. -1.
        -13    1    3    3    0    0 -0.11368255148E+03  0.18482393472E+03 -0.22062469007E+04  0.22168917421E+04  0.00000000000E+00 0.  1.
         22    1    1    2    0    0  0.17939961332E+03 -0.30473626772E+03  0.35066720801E+03  0.49801195256E+03  0.00000000000E+00 0. -1.
<mgrwt>
<rscale>  0 0.23282660E+04</rscale>
<asrwt>0</asrwt>
<pdfrwt beam="1">  1        2 0.47895592E+00 0.23282660E+04</pdfrwt>
<pdfrwt beam="2">  1       -2 0.66970407E-01 0.23282660E+04</pdfrwt>
<totfact> 0.27350683E+00</totfact>
</mgrwt>
</event>
<event>
 6    1  0.5040916E-004  0.7215784E+04  0.7818608E-02  0.7555582E-01
         -2   -1    0    0    0  501 -0.00000000000E+00  0.00000000000E+00  0.40042898503E+04  0.40042898503E+04  0.00000000000E+00 0. -1.
          2   -1    0    0  501    0  0.00000000000E+00 -0.00000000000E+00 -0.32507346177E+04  0.32507346177E+04  0.00000000000E+00 0.  1.
         23    2    1    2    0    0 -0.20656671683E+04  0.16582327963E+03  0.33455522691E+04  0.39364514542E+04  0.91933975251E+02 0.  0.
         13    1    3    3    0    0 -0.15222815614E+04  0.88057681654E+02  0.24176808970E+04  0.28583695051E+04  0.00000000000E+00 0. -1.
        -13    1    3    3    0    0 -0.54338560683E+03  0.77765597973E+02  0.92787137208E+03  0.10780819491E+04  0.00000000000E+00 0.  1.
         22    1    1    2    0    0  0.20656671683E+04 -0.16582327963E+03 -0.25919970366E+04  0.33185730138E+04  0.00000000000E+00 0.  1.
<mgrwt>
<rscale>  0 0.72157837E+04</rscale>
<asrwt>0</asrwt>
<pdfrwt beam="1">  1        2 0.50011302E+00 0.72157837E+04</pdfrwt>
<pdfrwt beam="2">  1       -2 0.61604459E+00 0.72157837E+04</pdfrwt>
<totfact> 0.33516852E-04</totfact>
</mgrwt>
</event>
<event>
 6    1  0.5040916E-004  0.4780759E+04  0.7818608E-02  0.7863247E-01
         -2   -1    0    0    0  501 -0.00000000000E+00  0.00000000000E+00  0.14807319382E+04  0.14807319382E+04  0.00000000000E+00 0. -1.
          2   -1    0    0  501    0  0.00000000000E+00 -0.00000000000E+00 -0.38588447780E+04  0.38588447780E+04  0.00000000000E+00 0.  1.
         23    2    1    2    0    0 -0.12583552496E+04 -0.54132324117E+03  0.99718513661E+03  0.16968956686E+04  0.92671073317E+02 0.  0.
         13    1    3    3    0    0 -0.65725902017E+03 -0.33183151716E+03  0.52231209123E+03  0.90272448511E+03  0.00000000000E+00 0.  1.
        -13    1    3    3    0    0 -0.60109622944E+03 -0.20949172402E+03  0.47487304538E+03  0.79417118350E+03  0.00000000000E+00 0. -1.
         22    1    1    2    0    0  0.12583552496E+04  0.54132324117E+03 -0.33752979764E+04  0.36426810476E+04  0.00000000000E+00 0.  1.
<mgrwt>
<rscale>  0 0.47807592E+04</rscale>
<asrwt>0</asrwt>
<pdfrwt beam="1">  1        2 0.59366843E+00 0.47807592E+04</pdfrwt>
<pdfrwt beam="2">  1       -2 0.22780491E+00 0.47807592E+04</pdfrwt>
<totfact> 0.28830060E-02</totfact>
</mgrwt>
</event>
<event>
 6    1  0.5040916E-004  0.4558039E+04  0.7818608E-02  0.7900554E-01
         -2   -1    0    0    0  501 -0.00000000000E+00  0.00000000000E+00  0.17079088576E+04  0.17079088576E+04  0.00000000000E+00 0. -1.
          2   -1    0    0  501    0  0.00000000000E+00 -0.00000000000E+00 -0.30411042725E+04  0.30411042725E+04  0.00000000000E+00 0.  1.
         23    2    1    2    0    0 -0.10244324970E+04 -0.90649536459E+03 -0.25648873003E+04  0.29082902592E+04  0.91156906115E+02 0.  0.
         11    1    3    3    0    0 -0.26028973651E+03 -0.28475480573E+03 -0.71306967636E+03  0.81074312187E+03  0.00000000000E+00 0.  1.
        -11    1    3    3    0    0 -0.76414276047E+03 -0.62174055886E+03 -0.18518176239E+04  0.20975471373E+04  0.00000000000E+00 0. -1.
         22    1    1    2    0    0  0.10244324970E+04  0.90649536459E+03  0.12316918854E+04  0.18407228709E+04  0.00000000000E+00 0. -1.
<mgrwt>
<rscale>  0 0.45580386E+04</rscale>
<asrwt>0</asrwt>
<pdfrwt beam="1">  1        2 0.46786219E+00 0.45580386E+04</pdfrwt>
<pdfrwt beam="2">  1       -2 0.26275521E+00 0.45580386E+04</pdfrwt>
<totfact> 0.66355317E-02</totfact>
</mgrwt>
</event>
<event>
 6    1  0.5040916E-004  0.2084036E+04  0.7818608E-02  0.8568309E-01
          2   -1    0    0  501    0  0.00000000000E+00  0.00000000000E+00  0.33789503980E+04  0.33789503980E+04  0.00000000000E+00 0.  1.
         -2   -1    0    0    0  501 -0.00000000000E+00 -0.00000000000E+00 -0.32134271823E+03  0.32134271823E+03  0.00000000000E+00 0. -1.
         23    2    1    2    0    0 -0.58634687623E+03  0.73784036064E+03  0.23127061882E+04  0.24990066020E+04  0.90625752418E+02 0.  0.
         11    1    3    3    0    0 -0.20233151532E+03  0.20606861782E+03  0.63284384759E+03  0.69562464934E+03  0.00000000000E+00 0. -1.
        -11    1    3    3    0    0 -0.38401536090E+03  0.53177174282E+03  0.16798623406E+04  0.18033819527E+04  0.00000000000E+00 0.  1.
         22    1    1    2    0    0  0.58634687623E+03 -0.73784036064E+03  0.74490149156E+03  0.12012865142E+04  0.00000000000E+00 0. -1.
<mgrwt>
<rscale>  0 0.20840356E+04</rscale>
<asrwt>0</asrwt>
<pdfrwt beam="1">  1        2 0.51983850E+00 0.20840356E+04</pdfrwt>
<pdfrwt beam="2">  1       -2 0.49437344E-01 0.20840356E+04</pdfrwt>
<totfact> 0.35351954E+00</totfact>
</mgrwt>
</event>
<event>
 6    1  0.5040916E-004  0.3686432E+04  0.7818608E-02  0.8070975E-01
          2   -1    0    0  501    0  0.00000000000E+00  0.00000000000E+00  0.10175094671E+04  0.10175094671E+04  0.00000000000E+00 0.  1.
         -2   -1    0    0    0  501 -0.00000000000E+00 -0.00000000000E+00 -0.33389821620E+04  0.33389821620E+04  0.00000000000E+00 0. -1.
         23    2    1    2    0    0  0.14546950486E+04  0.35164226424E+03  0.10776388811E+03  0.15032513057E+04  0.91441052564E+02 0.  0.
         11    1    3    3    0    0  0.65101795232E+03  0.13405090912E+03  0.83792692403E+01  0.66472869099E+03  0.00000000000E+00 0. -1.
        -11    1    3    3    0    0  0.80367709631E+03  0.21759135512E+03  0.99384618872E+02  0.83852261474E+03  0.00000000000E+00 0.  1.
         22    1    1    2    0    0 -0.14546950486E+04 -0.35164226424E+03 -0.24292365830E+04  0.28532403233E+04  0.00000000000E+00 0. -1.
<mgrwt>
<rscale>  0 0.36864324E+04</rscale>
<asrwt>0</asrwt>
<pdfrwt beam="1">  1        2 0.15653992E+00 0.36864324E+04</pdfrwt>
<pdfrwt beam="2">  1       -2 0.51368957E+00 0.36864324E+04</pdfrwt>
<totfact> 0.27026203E-02</totfact>
</mgrwt>
</event>
<event>
 6    1  0.5040916E-004  0.4912561E+04  0.7818608E-02  0.7842139E-01
          1   -1    0    0  501    0  0.00000000000E+00  0.00000000000E+00  0.22083953247E+04  0.22083953247E+04  0.00000000000E+00 0.  1.
         -1   -1    0    0    0  501 -0.00000000000E+00 -0.00000000000E+00 -0.27319899287E+04  0.27319899287E+04  0.00000000000E+00 0. -1.
         23    2    1    2    0    0 -0.17716944516E+04 -0.96160756634E+03 -0.16718219271E+04  0.26204679430E+04  0.90957918615E+02 0.  0.
         13    1    3    3    0    0 -0.35279010569E+03 -0.19550556092E+03 -0.38257210128E+03  0.55591788575E+03  0.00000000000E+00 0.  1.
        -13    1    3    3    0    0 -0.14189043460E+04 -0.76610200543E+03 -0.12892498258E+04  0.20645500573E+04  0.00000000000E+00 0. -1.
         22    1    1    2    0    0  0.17716944516E+04  0.96160756634E+03  0.11482273230E+04  0.23199173104E+04  0.00000000000E+00 0.  1.
<mgrwt>
<rscale>  0 0.49125610E+04</rscale>
<asrwt>0</asrwt>
<pdfrwt beam="1">  1        1 0.33975313E+00 0.49125610E+04</pdfrwt>
<pdfrwt beam="2">  1       -1 0.42030614E+00 0.49125610E+04</pdfrwt>
<totfact> 0.81159007E-03</totfact>
</mgrwt>
</event>
<event>
 6    1  0.5040916E-004  0.3760031E+04  0.7818608E-02  0.8054787E-01
         -2   -1    0    0    0  501 -0.00000000000E+00  0.00000000000E+00  0.11726499782E+04  0.11726499782E+04  0.00000000000E+00 0. -1.
          2   -1    0    0  501    0  0.00000000000E+00 -0.00000000000E+00 -0.30140773170E+04  0.30140773170E+04  0.00000000000E+00 0.  1.
         23    2    1    2    0    0 -0.14190744922E+04  0.11902433578E+04 -0.12726884972E+04  0.22492248990E+04  0.93941311455E+02 0.  0.
         11    1    3    3    0    0 -0.10714218389E+04  0.84488441352E+03 -0.94145569975E+03  0.16577434252E+04  0.00000000000E+00 0. -1.
        -11    1    3    3    0    0 -0.34765265332E+03  0.34535894426E+03 -0.33123279750E+03  0.59148147383E+03  0.00000000000E+00 0.  1.
         22    1    1    2    0    0  0.14190744922E+04 -0.11902433578E+04 -0.56873884153E+03  0.19375023962E+04  0.00000000000E+00 0.  1.
<mgrwt>
<rscale>  0 0.37600307E+04</rscale>
<asrwt>0</asrwt>
<pdfrwt beam="1">  1        2 0.46370420E+00 0.37600307E+04</pdfrwt>
<pdfrwt beam="2">  1       -2 0.18040769E+00 0.37600307E+04</pdfrwt>
<totfact> 0.24708028E-01</totfact>
</mgrwt>
</event>
<event>
 6    1  0.5040916E-004  0.4487369E+04  0.7818608E-02  0.7912852E-01
          2   -1    0    0  501    0  0.00000000000E+00  0.00000000000E+00  0.26760012170E+04  0.26760012170E+04  0.00000000000E+00 0.  1.
         -2   -1    0    0    0  501 -0.00000000000E+00 -0.00000000000E+00 -0.18812097228E+04  0.18812097228E+04  0.00000000000E+00 0. -1.
         23    2    1    2    0    0  0.14266231405E+04 -0.45768981908E+03  0.20924484972E+04  0.25751293944E+04  0.90648381954E+02 0.  0.
         13    1    3    3    0    0  0.29815617196E+03 -0.13259995830E+03  0.43361553343E+03  0.54268064518E+03  0.00000000000E+00 0. -1.
        -13    1    3    3    0    0  0.11284669685E+04 -0.32508986078E+03  0.16588329637E+04  0.20324487492E+04  0.00000000000E+00 0.  1.
         22    1    1    2    0    0 -0.14266231405E+04  0.45768981908E+03 -0.12976570029E+04  0.19820815454E+04  0.00000000000E+00 0. -1.
<mgrwt>
<rscale>  0 0.44873687E+04</rscale>
<asrwt>0</asrwt>
<pdfrwt beam="1">  1        2 0.41169249E+00 0.44873687E+04</pdfrwt>
<pdfrwt beam="2">  1       -2 0.28941688E+00 0.44873687E+04</pdfrwt>
<totfact> 0.76781676E-02</totfact>
</mgrwt>
</event>
<event>
 6    1  0.5040916E-004  0.2618587E+04  0.7818608E-02  0.8361915E-01
          2   -1    0    0  501    0  0.00000000000E+00  0.00000000000E+00  0.15770185524E+04  0.15770185524E+04  0.00000000000E+00 0.  1.
         -2   -1    0    0    0  501 -0.00000000000E+00 -0.00000000000E+00 -0.10870189609E+04  0.10870189609E+04  0.00000000000E+00 0. -1.
         23    2    1    2    0    0  0.38110473876E+03  0.12041541990E+04 -0.99452320432E+02  0.12702363390E+04  0.91550182886E+02 0.  0.
         13    1    3    3    0    0  0.24334995813E+03  0.89923654272E+03 -0.82173097798E+02  0.93519943322E+03  0.00000000000E+00 0.  1.
        -13    1    3    3    0    0  0.13775478064E+03  0.30491765626E+03 -0.17279222635E+02  0.33503690576E+03  0.00000000000E+00 0. -1.
         22    1    1    2    0    0 -0.38110473876E+03 -0.12041541990E+04  0.58945191192E+03  0.13938011742E+04  0.00000000000E+00 0. -1.
<mgrwt>
<rscale>  0 0.26185867E+04</rscale>
<asrwt>0</asrwt>
<pdfrwt beam="1">  1        2 0.24261824E+00 0.26185867E+04</pdfrwt>
<pdfrwt beam="2">  1       -2 0.16723369E+00 0.26185867E+04</pdfrwt>
<totfact> 0.22636612E+00</totfact>
</mgrwt>
</event>
<event>
 6    1  0.5040916E-004  0.1482327E+04  0.7818608E-02  0.8896291E-01
         -1   -1    0    0    0  501 -0.00000000000E+00  0.00000000000E+00  0.93840600877E+03  0.93840600877E+03  0.00000000000E+00 0. -1.
          1   -1    0    0  501    0  0.00000000000E+00 -0.00000000000E+00 -0.58537882104E+03  0.58537882104E+03  0.00000000000E+00 0.  1.
         23    2    1    2    0    0  0.65677163291E+02  0.56138243600E+03 -0.30872194734E+03  0.65351151241E+03  0.11092487033E+03 0.  0.
         13    1    3    3    0    0 -0.98852766623E+01  0.34559128735E+03 -0.20964654503E+03  0.40432997716E+03  0.00000000000E+00 0.  1.
        -13    1    3    3    0    0  0.75562439954E+02  0.21579114865E+03 -0.99075402315E+02  0.24918153525E+03  0.00000000000E+00 0. -1.
         22    1    1    2    0    0 -0.65677163291E+02 -0.56138243600E+03  0.66174913507E+03  0.87027331741E+03  0.00000000000E+00 0.  1.
<mgrwt>
<rscale>  0 0.14823266E+04</rscale>
<asrwt>0</asrwt>
<pdfrwt beam="1">  1        1 0.90058280E-01 0.14823266E+04</pdfrwt>
<pdfrwt beam="2">  1       -1 0.14437016E+00 0.14823266E+04</pdfrwt>
<totfact> 0.13290484E+01</totfact>
</mgrwt>
</event>
<event>
 6    1  0.5040916E-004  0.4541196E+04  0.7818608E-02  0.7903464E-01
         -2   -1    0    0    0  501 -0.00000000000E+00  0.00000000000E+00  0.19654212128E+04  0.19654212128E+04  0.00000000000E+00 0. -1.
          2   -1    0    0  501    0  0.00000000000E+00 -0.00000000000E+00 -0.26231605645E+04  0.26231605645E+04  0.00000000000E+00 0.  1.
         23    2    1    2    0    0  0.98597594152E+03  0.98087441312E+03 -0.21413665316E+04  0.25550103426E+04  0.91455215586E+02 0.  0.
         13    1    3    3    0    0  0.83658144715E+03  0.87089182887E+03 -0.18821875279E+04  0.22362806143E+04  0.00000000000E+00 0. -1.
        -13    1    3    3    0    0  0.14939449437E+03  0.10998258425E+03 -0.25917900364E+03  0.31872972831E+03  0.00000000000E+00 0.  1.
         22    1    1    2    0    0 -0.98597594152E+03 -0.98087441312E+03  0.14836271798E+04  0.20335714347E+04  0.00000000000E+00 0. -1.
<mgrwt>
<rscale>  0 0.45411961E+04</rscale>
<asrwt>0</asrwt>
<pdfrwt beam="1">  1        2 0.40356316E+00 0.45411961E+04</pdfrwt>
<pdfrwt beam="2">  1       -2 0.30237249E+00 0.45411961E+04</pdfrwt>
<totfact> 0.68455737E-02</totfact>
</mgrwt>
</event>
<event>
 6    1  0.5040916E-004  0.2896958E+04  0.7818608E-02  0.8273783E-01
         -2   -1    0    0    0  501 -0.00000000000E+00  0.00000000000E+00  0.83296362015E+03  0.83296362015E+03  0.00000000000E+00 0. -1.
          2   -1    0    0  501    0  0.00000000000E+00 -0.00000000000E+00 -0.25188275322E+04  0.25188275322E+04  0.00000000000E+00 0.  1.
         23    2    1    2    0    0 -0.71043705278E+03 -0.46407936176E+03  0.51252906479E+03  0.99530602815E+03  0.88643033847E+02 0.  0.
         13    1    3    3    0    0 -0.15570615612E+03 -0.65717435416E+02  0.80681971560E+02  0.18727725144E+03  0.00000000000E+00 0. -1.
        -13    1    3    3    0    0 -0.55473089666E+03 -0.39836192634E+03  0.43184709323E+03  0.80802877671E+03  0.00000000000E+00 0.  1.
         22    1    1    2    0    0  0.71043705278E+03  0.46407936176E+03 -0.21983929768E+04  0.23564851242E+04  0.00000000000E+00 0.  1.
<mgrwt>
<rscale>  0 0.28969582E+04</rscale>
<asrwt>0</asrwt>
<pdfrwt beam="1">  1        2 0.38751192E+00 0.28969582E+04</pdfrwt>
<pdfrwt beam="2">  1       -2 0.12814825E+00 0.28969582E+04</pdfrwt>
<totfact> 0.13194394E+00</totfact>
</mgrwt>
</event>
<event>
 6    1  0.5040916E-004  0.3321625E+04  0.7818608E-02  0.8157415E-01
          2   -1    0    0  501    0  0.00000000000E+00  0.00000000000E+00  0.10373835985E+04  0.10373835985E+04  0.00000000000E+00 0.  1.
         -2   -1    0    0    0  501 -0.00000000000E+00 -0.00000000000E+00 -0.26588981627E+04  0.26588981627E+04  0.00000000000E+00 0. -1.
         23    2    1    2    0    0 -0.65547170290E+03 -0.98079402410E+03  0.48758231897E+03  0.12796953809E+04  0.91014719167E+02 0.  0.
         13    1    3    3    0    0 -0.53240491476E+03 -0.83154343863E+03  0.37722798094E+03  0.10569864868E+04  0.00000000000E+00 0. -1.
        -13    1    3    3    0    0 -0.12306678813E+03 -0.14925058547E+03  0.11035433803E+03  0.22270889414E+03  0.00000000000E+00 0.  1.
         22    1    1    2    0    0  0.65547170290E+03  0.98079402410E+03 -0.21090968832E+04  0.24165863803E+04  0.00000000000E+00 0. -1.
<mgrwt>
<rscale>  0 0.33216245E+04</rscale>
<asrwt>0</asrwt>
<pdfrwt beam="1">  1        2 0.15959748E+00 0.33216245E+04</pdfrwt>
<pdfrwt beam="2">  1       -2 0.40906125E+00 0.33216245E+04</pdfrwt>
<totfact> 0.12854436E-01</totfact>
</mgrwt>
</event>
<event>
 6    1  0.5040916E-004  0.1905507E+04  0.7818608E-02  0.8652120E-01
         -4   -1    0    0    0  501 -0.00000000000E+00  0.00000000000E+00  0.94656481215E+03  0.94656481215E+03  0.00000000000E+00 0. -1.
          4   -1    0    0  501    0  0.00000000000E+00 -0.00000000000E+00 -0.95898224259E+03  0.95898224259E+03  0.00000000000E+00 0.  1.
         23    2    1    2    0    0 -0.28971028259E+03  0.42077701643E+03  0.79539328000E+03  0.94975236482E+03  0.91617352164E+02 0.  0.
         13    1    3    3    0    0 -0.21735102910E+03  0.37359438438E+03  0.67662389477E+03  0.80289110648E+03  0.00000000000E+00 0.  1.
        -13    1    3    3    0    0 -0.72359253496E+02  0.47182632050E+02  0.11876938522E+03  0.14686125834E+03  0.00000000000E+00 0. -1.
         22    1    1    2    0    0  0.28971028259E+03 -0.42077701643E+03 -0.80781071043E+03  0.95579468992E+03  0.00000000000E+00 0.  1.
<mgrwt>
<rscale>  0 0.19055066E+04</rscale>
<asrwt>0</asrwt>
<pdfrwt beam="1">  1        4 0.14753573E+00 0.19055066E+04</pdfrwt>
<pdfrwt beam="2">  1       -4 0.14562536E+00 0.19055066E+04</pdfrwt>
<totfact> 0.18788774E-01</totfact>
</mgrwt>
</event>
<event>
 6    1  0.5040916E-004  0.2519830E+04  0.7818608E-02  0.8395955E-01
          2   -1    0    0  501    0  0.00000000000E+00  0.00000000000E+00  0.33933181768E+04  0.33933181768E+04  0.00000000000E+00 0. -1.
         -2   -1    0    0    0  501 -0.00000000000E+00 -0.00000000000E+00 -0.46779760911E+03  0.46779760911E+03  0.00000000000E+00 0.  1.
         23    2    1    2    0    0  0.57179506881E+03 -0.41175981443E+03  0.30617704483E+04  0.31434391349E+04  0.10136849183E+03 0.  0.
         13    1    3    3    0    0  0.38980841984E+03 -0.27794633964E+03  0.22781170033E+04  0.23278792607E+04  0.00000000000E+00 0. -1.
        -13    1    3    3    0    0  0.18198664896E+03 -0.13381347479E+03  0.78365344502E+03  0.81555987415E+03  0.00000000000E+00 0.  1.
         22    1    1    2    0    0 -0.57179506881E+03  0.41175981443E+03 -0.13624988059E+03  0.71767665104E+03  0.00000000000E+00 0.  1.
<mgrwt>
<rscale>  0 0.25198303E+04</rscale>
<asrwt>0</asrwt>
<pdfrwt beam="1">  1        2 0.52204893E+00 0.25198303E+04</pdfrwt>
<pdfrwt beam="2">  1       -2 0.71968865E-01 0.25198303E+04</pdfrwt>
<totfact> 0.15019622E+00</totfact>
</mgrwt>
</event>
<event>
 6    1  0.5040916E-004  0.2007979E+04  0.7818608E-02  0.8602899E-01
         -2   -1    0    0    0  501 -0.00000000000E+00  0.00000000000E+00  0.21271236432E+04  0.21271236432E+04  0.00000000000E+00 0. -1.
          2   -1    0    0  501    0  0.00000000000E+00 -0.00000000000E+00 -0.47387686727E+03  0.47387686727E+03  0.00000000000E+00 0.  1.
         23    2    1    2    0    0 -0.75832068004E+03 -0.50511098189E+03  0.29032386233E+03  0.96156578282E+03  0.10066504775E+03 0.  0.
         13    1    3    3    0    0 -0.14783403186E+03 -0.13681267089E+03  0.92513694138E+02  0.22165602066E+03  0.00000000000E+00 0.  1.
        -13    1    3    3    0    0 -0.61048664818E+03 -0.36829831100E+03  0.19781016820E+03  0.73990976215E+03  0.00000000000E+00 0. -1.
         22    1    1    2    0    0  0.75832068004E+03  0.50511098189E+03  0.13629229136E+04  0.16394347276E+04  0.00000000000E+00 0.  1.
<mgrwt>
<rscale>  0 0.20079788E+04</rscale>
<asrwt>0</asrwt>
<pdfrwt beam="1">  1        2 0.72904135E-01 0.20079788E+04</pdfrwt>
<pdfrwt beam="2">  1       -2 0.32724979E+00 0.20079788E+04</pdfrwt>
<totfact> 0.13160902E+00</totfact>
</mgrwt>
</event>
<event>
 6    1  0.5040916E-004  0.4262236E+04  0.7818608E-02  0.7953638E-01
         -2   -1    0    0    0  501 -0.00000000000E+00  0.00000000000E+00  0.24880596668E+04  0.24880596668E+04  0.00000000000E+00 0. -1.
          2   -1    0    0  501    0  0.00000000000E+00 -0.00000000000E+00 -0.18253838907E+04  0.18253838907E+04  0.00000000000E+00 0.  1.
         23    2    1    2    0    0  0.13370696539E+04  0.14975721086E+04 -0.38941868931E+03  0.20468645839E+04  0.86776893021E+02 0.  0.
         11    1    3    3    0    0  0.38198292478E+03  0.48702299546E+03 -0.11269985471E+03  0.62912924760E+03  0.00000000000E+00 0. -1.
        -11    1    3    3    0    0  0.95508672916E+03  0.10105491131E+04 -0.27671883460E+03  0.14177353363E+04  0.00000000000E+00 0.  1.
         22    1    1    2    0    0 -0.13370696539E+04 -0.14975721086E+04  0.10520944654E+04  0.22665789737E+04  0.00000000000E+00 0. -1.
<mgrwt>
<rscale>  0 0.42622360E+04</rscale>
<asrwt>0</asrwt>
<pdfrwt beam="1">  1        2 0.28082829E+00 0.42622360E+04</pdfrwt>
<pdfrwt beam="2">  1       -2 0.38277841E+00 0.42622360E+04</pdfrwt>
<totfact> 0.61969190E-02</totfact>
</mgrwt>
</event>
<event>
 6    1  0.5040916E-004  0.2771967E+04  0.7818608E-02  0.8312025E-01
          2   -1    0    0  501    0  0.00000000000E+00  0.00000000000E+00  0.10829901071E+04  0.10829901071E+04  0.00000000000E+00 0.  1.
         -2   -1    0    0    0  501 -0.00000000000E+00 -0.00000000000E+00 -0.17737462132E+04  0.17737462132E+04  0.00000000000E+00 0. -1.
         23    2    1    2    0    0 -0.19902614711E+03 -0.10874951162E+04  0.51332311819E+03  0.12220914619E+04  0.88033418116E+02 0.  0.
         13    1    3    3    0    0 -0.46281589795E+02 -0.41101459472E+03  0.15709527089E+03  0.44244085115E+03  0.00000000000E+00 0.  1.
        -13    1    3    3    0    0 -0.15274455731E+03 -0.67648052145E+03  0.35622784729E+03  0.77965061077E+03  0.00000000000E+00 0. -1.
         22    1    1    2    0    0  0.19902614711E+03  0.10874951162E+04 -0.12040792242E+04  0.16346448584E+04  0.00000000000E+00 0. -1.
<mgrwt>
<rscale>  0 0.27719665E+04</rscale>
<asrwt>0</asrwt>
<pdfrwt beam="1">  1        2 0.16661387E+00 0.27719665E+04</pdfrwt>
<pdfrwt beam="2">  1       -2 0.27288403E+00 0.27719665E+04</pdfrwt>
<totfact> 0.90601963E-01</totfact>
</mgrwt>
</event>
<event>
 6    1  0.5040916E-004  0.2672880E+04  0.7818608E-02  0.8343859E-01
          2   -1    0    0  501    0  0.00000000000E+00  0.00000000000E+00  0.16950283830E+04  0.16950283830E+04  0.00000000000E+00 0.  1.
         -2   -1    0    0    0  501 -0.00000000000E+00 -0.00000000000E+00 -0.10537117669E+04  0.10537117669E+04  0.00000000000E+00 0. -1.
         23    2    1    2    0    0 -0.85353398875E+03 -0.69055676327E+03  0.11019047911E+04  0.15581393015E+04  0.90636642960E+02 0.  0.
         11    1    3    3    0    0 -0.44719144177E+03 -0.31130729209E+03  0.51346217032E+03  0.74868939892E+03  0.00000000000E+00 0. -1.
        -11    1    3    3    0    0 -0.40634254698E+03 -0.37924947118E+03  0.58844262080E+03  0.80944990262E+03  0.00000000000E+00 0.  1.
         22    1    1    2    0    0  0.85353398875E+03  0.69055676327E+03 -0.46058817496E+03  0.11906008484E+04  0.00000000000E+00 0. -1.
<mgrwt>
<rscale>  0 0.26728796E+04</rscale>
<asrwt>0</asrwt>
<pdfrwt beam="1">  1        2 0.26077360E+00 0.26728796E+04</pdfrwt>
<pdfrwt beam="2">  1       -2 0.16210950E+00 0.26728796E+04</pdfrwt>
<totfact> 0.21093900E+00</totfact>
</mgrwt>
</event>
<event>
 6    1  0.5040916E-004  0.2086346E+04  0.7818608E-02  0.8567282E-01
          1   -1    0    0  501    0  0.00000000000E+00  0.00000000000E+00  0.27318699565E+04  0.27318699565E+04  0.00000000000E+00 0.  1.
         -1   -1    0    0    0  501 -0.00000000000E+00 -0.00000000000E+00 -0.39833901186E+03  0.39833901186E+03  0.00000000000E+00 0. -1.
         23    2    1    2    0    0  0.18436789873E+03  0.47619402036E+03  0.25303216481E+04  0.25829623621E+04  0.91731423016E+02 0.  0.
         11    1    3    3    0    0  0.12100768469E+03  0.39074838574E+03  0.18788828664E+04  0.19228957294E+04  0.00000000000E+00 0. -1.
        -11    1    3    3    0    0  0.63360214041E+02  0.85445634618E+02  0.65143878170E+03  0.66006663263E+03  0.00000000000E+00 0.  1.
         22    1    1    2    0    0 -0.18436789873E+03 -0.47619402036E+03 -0.19679070346E+03  0.54724660627E+03  0.00000000000E+00 0. -1.
<mgrwt>
<rscale>  0 0.20863465E+04</rscale>
<asrwt>0</asrwt>
<pdfrwt beam="1">  1        1 0.42028767E+00 0.20863465E+04</pdfrwt>
<pdfrwt beam="2">  1       -1 0.61282927E-01 0.20863465E+04</pdfrwt>
<totfact> 0.23184756E+00</totfact>
</mgrwt>
</event>
<event>
 6    1  0.5040916E-004  0.1943138E+04  0.7818608E-02  0.8633677E-01
          1   -1    0    0  501    0  0.00000000000E+00  0.00000000000E+00  0.10776479885E+04  0.10776479885E+04  0.00000000000E+00 0.  1.
         -1   -1    0    0    0  501 -0.00000000000E+00 -0.00000000000E+00 -0.87593205223E+03  0.87593205223E+03  0.00000000000E+00 0. -1.
         23    2    1    2    0    0 -0.33764571041E+03 -0.64474852862E+03  0.74480042514E+03  0.10454797969E+04  0.92709446746E+02 0.  0.
         11    1    3    3    0    0 -0.27299993262E+03 -0.57844056292E+03  0.67144487664E+03  0.92734064421E+03  0.00000000000E+00 0. -1.
        -11    1    3    3    0    0 -0.64645777790E+02 -0.66307965695E+02  0.73355548499E+02  0.11813915268E+03  0.00000000000E+00 0.  1.
         22    1    1    2    0    0  0.33764571041E+03  0.64474852862E+03 -0.54308448883E+03  0.90810024387E+03  0.00000000000E+00 0. -1.
<mgrwt>
<rscale>  0 0.19431381E+04</rscale>
<asrwt>0</asrwt>
<pdfrwt beam="1">  1        1 0.16579200E+00 0.19431381E+04</pdfrwt>
<pdfrwt beam="2">  1       -1 0.13475878E+00 0.19431381E+04</pdfrwt>
<totfact> 0.56872524E+00</totfact>
</mgrwt>
</event>
<event>
 6    1  0.5040916E-004  0.2887554E+03  0.7818608E-02  0.1091001E+00
         -2   -1    0    0    0  501 -0.00000000000E+00  0.00000000000E+00  0.24309921390E+02  0.24309921390E+02  0.00000000000E+00 0. -1.
          2   -1    0    0  501    0  0.00000000000E+00 -0.00000000000E+00 -0.85746583123E+03  0.85746583123E+03  0.00000000000E+00 0.  1.
         23    2    1    2    0    0  0.55760416729E+02  0.11734094357E+03 -0.44778082989E+03  0.47509150980E+03  0.91247739452E+02 0.  0.
         13    1    3    3    0    0  0.48192277967E+02  0.31680405898E+02 -0.88283028921E+02  0.10545158590E+03  0.00000000000E+00 0.  1.
        -13    1    3    3    0    0  0.75681387620E+01  0.85660537671E+02 -0.35949780097E+03  0.36963992390E+03  0.00000000000E+00 0. -1.
         22    1    1    2    0    0 -0.55760416729E+02 -0.11734094357E+03 -0.38537507995E+03  0.40668424282E+03  0.00000000000E+00 0.  1.
<mgrwt>
<rscale>  0 0.28875545E+03</rscale>
<asrwt>0</asrwt>
<pdfrwt beam="1">  1        2 0.13191783E+00 0.28875545E+03</pdfrwt>
<pdfrwt beam="2">  1       -2 0.37399877E-02 0.28875545E+03</pdfrwt>
<totfact> 0.98494692E+03</totfact>
</mgrwt>
</event>
<event>
 6    1  0.5040916E-004  0.1394628E+04  0.7818608E-02  0.8957716E-01
          2   -1    0    0  501    0  0.00000000000E+00  0.00000000000E+00  0.16552626280E+04  0.16552626280E+04  0.00000000000E+00 0.  1.
         -2   -1    0    0    0  501 -0.00000000000E+00 -0.00000000000E+00 -0.29375811549E+03  0.29375811549E+03  0.00000000000E+00 0. -1.
         23    2    1    2    0    0  0.62785310723E+03  0.25517680524E+03  0.89407557940E+03  0.11257318916E+04  0.92662958245E+02 0.  0.
         13    1    3    3    0    0  0.35706794300E+03  0.19245765642E+03  0.51043624114E+03  0.65198360540E+03  0.00000000000E+00 0.  1.
        -13    1    3    3    0    0  0.27078516423E+03  0.62719148820E+02  0.38363933826E+03  0.47374828618E+03  0.00000000000E+00 0. -1.
         22    1    1    2    0    0 -0.62785310723E+03 -0.25517680524E+03  0.46742893314E+03  0.82328885195E+03  0.00000000000E+00 0. -1.
<mgrwt>
<rscale>  0 0.13946280E+04</rscale>
<asrwt>0</asrwt>
<pdfrwt beam="1">  1        2 0.25465578E+00 0.13946280E+04</pdfrwt>
<pdfrwt beam="2">  1       -2 0.45193557E-01 0.13946280E+04</pdfrwt>
<totfact> 0.46947358E+01</totfact>
</mgrwt>
</event>
<event>
 6    1  0.5040916E-004  0.2838159E+04  0.7818608E-02  0.8291519E-01
          2   -1    0    0  501    0  0.00000000000E+00  0.00000000000E+00  0.23346998938E+04  0.23346998938E+04  0.00000000000E+00 0.  1.
         -2   -1    0    0    0  501 -0.00000000000E+00 -0.00000000000E+00 -0.86254615439E+03  0.86254615439E+03  0.00000000000E+00 0. -1.
         23    2    1    2    0    0 -0.94060557123E+03 -0.42753079354E+03 -0.35674820088E+03  0.10966738101E+04  0.88897395688E+02 0.  0.
         11    1    3    3    0    0 -0.42558966802E+03 -0.16528112568E+03 -0.11954476203E+03  0.47194847829E+03  0.00000000000E+00 0. -1.
        -11    1    3    3    0    0 -0.51501590321E+03 -0.26224966786E+03 -0.23720343885E+03  0.62472533185E+03  0.00000000000E+00 0.  1.
         22    1    1    2    0    0  0.94060557123E+03  0.42753079354E+03  0.18289019403E+04  0.21005722380E+04  0.00000000000E+00 0.  1.
<mgrwt>
<rscale>  0 0.28381589E+04</rscale>
<asrwt>0</asrwt>
<pdfrwt beam="1">  1        2 0.35918460E+00 0.28381589E+04</pdfrwt>
<pdfrwt beam="2">  1       -2 0.13269941E+00 0.28381589E+04</pdfrwt>
<totfact> 0.15488587E+00</totfact>
</mgrwt>
</event>
<event>
 6    1  0.5040916E-004  0.8708087E+03  0.7818608E-02  0.9462826E-01
         -2   -1    0    0    0  501 -0.00000000000E+00  0.00000000000E+00  0.58347143572E+03  0.58347143572E+03  0.00000000000E+00 0. -1.
          2   -1    0    0  501    0  0.00000000000E+00 -0.00000000000E+00 -0.32491215225E+03  0.32491215225E+03  0.00000000000E+00 0.  1.
         23    2    1    2    0    0 -0.22000384326E+03 -0.31749121047E+03 -0.67205155277E+02  0.40308681445E+03  0.93595338084E+02 0.  0.
         13    1    3    3    0    0 -0.83224144820E+02 -0.15659308548E+03  0.11524156344E+02  0.17770891616E+03  0.00000000000E+00 0. -1.
        -13    1    3    3    0    0 -0.13677969844E+03 -0.16089812498E+03 -0.78729311621E+02  0.22537789829E+03  0.00000000000E+00 0.  1.
         22    1    1    2    0    0  0.22000384326E+03  0.31749121047E+03  0.32576443875E+03  0.50529677352E+03  0.00000000000E+00 0. -1.
<mgrwt>
<rscale>  0 0.87080873E+03</rscale>
<asrwt>0</asrwt>
<pdfrwt beam="1">  1        2 0.49986485E-01 0.87080873E+03</pdfrwt>
<pdfrwt beam="2">  1       -2 0.89764836E-01 0.87080873E+03</pdfrwt>
<totfact> 0.10730506E+02</totfact>
</mgrwt>
</event>
<event>
 6    1  0.5040916E-004  0.3537090E+04  0.7818608E-02  0.8105056E-01
         -2   -1    0    0    0  501 -0.00000000000E+00  0.00000000000E+00  0.15638014082E+04  0.15638014082E+04  0.00000000000E+00 0. -1.
          2   -1    0    0  501    0  0.00000000000E+00 -0.00000000000E+00 -0.20000951762E+04  0.20000951762E+04  0.00000000000E+00 0.  1.
         23    2    1    2    0    0 -0.47446156079E+03  0.74772259483E+03 -0.17593489829E+04  0.19718293895E+04  0.92733199561E+02 0.  0.
         11    1    3    3    0    0 -0.27530187081E+03  0.37089559559E+03 -0.98516143454E+03  0.10880706388E+04  0.00000000000E+00 0. -1.
        -11    1    3    3    0    0 -0.19915968998E+03  0.37682699924E+03 -0.77418754833E+03  0.88375875071E+03  0.00000000000E+00 0.  1.
         22    1    1    2    0    0  0.47446156079E+03 -0.74772259483E+03  0.13230552149E+04  0.15920671949E+04  0.00000000000E+00 0. -1.
<mgrwt>
<rscale>  0 0.35370901E+04</rscale>
<asrwt>0</asrwt>
<pdfrwt beam="1">  1        2 0.30770695E+00 0.35370901E+04</pdfrwt>
<pdfrwt beam="2">  1       -2 0.24058483E+00 0.35370901E+04</pdfrwt>
<totfact> 0.40205804E-01</totfact>
</mgrwt>
</event>
<event>
 6    1  0.5040916E-004  0.4837790E+04  0.7818608E-02  0.7854029E-01
         -2   -1    0    0    0  501 -0.00000000000E+00  0.00000000000E+00  0.18670671693E+04  0.18670671693E+04  0.00000000000E+00 0. -1.
          2   -1    0    0  501    0  0.00000000000E+00 -0.00000000000E+00 -0.31338202670E+04  0.31338202670E+04  0.00000000000E+00 0.  1.
         23    2    1    2    0    0  0.86492296713E+03 -0.16086873097E+04 -0.22716578867E+04  0.29162291346E+04  0.89421540363E+02 0.  0.
         11    1    3    3    0    0  0.29479024877E+03 -0.58884411866E+03 -0.75819220178E+03  0.10042380702E+04  0.00000000000E+00 0. -1.
        -11    1    3    3    0    0  0.57013271836E+03 -0.10198431911E+04 -0.15134656849E+04  0.19119910644E+04  0.00000000000E+00 0.  1.
         22    1    1    2    0    0 -0.86492296713E+03  0.16086873097E+04  0.10049047891E+04  0.20846583017E+04  0.00000000000E+00 0. -1.
<mgrwt>
<rscale>  0 0.48377900E+04</rscale>
<asrwt>0</asrwt>
<pdfrwt beam="1">  1        2 0.48212619E+00 0.48377900E+04</pdfrwt>
<pdfrwt beam="2">  1       -2 0.28724110E+00 0.48377900E+04</pdfrwt>
<totfact> 0.40122220E-02</totfact>
</mgrwt>
</event>
<event>
 6    1  0.5040916E-004  0.4373193E+04  0.7818608E-02  0.7933221E-01
         -1   -1    0    0    0  501 -0.00000000000E+00  0.00000000000E+00  0.15415001293E+04  0.15415001293E+04  0.00000000000E+00 0. -1.
          1   -1    0    0  501    0  0.00000000000E+00 -0.00000000000E+00 -0.31016572359E+04  0.31016572359E+04  0.00000000000E+00 0.  1.
         23    2    1    2    0    0 -0.10368379204E+04  0.53575627881E+03  0.11816386787E+04  0.16633063971E+04  0.90832483528E+02 0.  0.
         13    1    3    3    0    0 -0.27121640396E+03  0.10355222516E+03  0.26269874314E+03  0.39152526197E+03  0.00000000000E+00 0.  1.
        -13    1    3    3    0    0 -0.76562151644E+03  0.43220405365E+03  0.91893993556E+03  0.12717811351E+04  0.00000000000E+00 0. -1.
         22    1    1    2    0    0  0.10368379204E+04 -0.53575627881E+03 -0.27417957853E+04  0.29798509681E+04  0.00000000000E+00 0.  1.
<mgrwt>
<rscale>  0 0.43731934E+04</rscale>
<asrwt>0</asrwt>
<pdfrwt beam="1">  1        1 0.47717803E+00 0.43731934E+04</pdfrwt>
<pdfrwt beam="2">  1       -1 0.23715387E+00 0.43731934E+04</pdfrwt>
<totfact> 0.32325457E-02</totfact>
</mgrwt>
</event>
<event>
 6    1  0.5040916E-004  0.2444193E+04  0.7818608E-02  0.8423141E-01
         -2   -1    0    0    0  501 -0.00000000000E+00  0.00000000000E+00  0.10634510292E+04  0.10634510292E+04  0.00000000000E+00 0.  1.
          2   -1    0    0  501    0  0.00000000000E+00 -0.00000000000E+00 -0.14044082310E+04  0.14044082310E+04  0.00000000000E+00 0. -1.
         23    2    1    2    0    0 -0.95342531369E+03  0.19767278253E+03 -0.91332904555E+03  0.13383886386E+04  0.94972863003E+02 0.  0.
         11    1    3    3    0    0 -0.67616957821E+03  0.15932407446E+03 -0.70248789666E+03  0.98796695499E+03  0.00000000000E+00 0.  1.
        -11    1    3    3    0    0 -0.27725573548E+03  0.38348708071E+02 -0.21084114889E+03  0.35042168359E+03  0.00000000000E+00 0. -1.
         22    1    1    2    0    0  0.95342531369E+03 -0.19767278253E+03  0.57237184371E+03  0.11294706217E+04  0.00000000000E+00 0.  1.
<mgrwt>
<rscale>  0 0.24441926E+04</rscale>
<asrwt>0</asrwt>
<pdfrwt beam="1">  1        2 0.21606280E+00 0.24441926E+04</pdfrwt>
<pdfrwt beam="2">  1       -2 0.16360785E+00 0.24441926E+04</pdfrwt>
<totfact> 0.30551381E+00</totfact>
</mgrwt>
</event>
<event>
 6    1  0.5040916E-004  0.8351701E+03  0.7818608E-02  0.9510460E-01
          2   -1    0    0  501    0  0.00000000000E+00  0.00000000000E+00  0.50390117315E+03  0.50390117315E+03  0.00000000000E+00 0.  1.
         -2   -1    0    0    0  501 -0.00000000000E+00 -0.00000000000E+00 -0.34605454822E+03  0.34605454822E+03  0.00000000000E+00 0. -1.
         23    2    1    2    0    0 -0.25958131953E+03 -0.22288426596E+03 -0.15763360023E+03  0.38456596006E+03  0.77348356482E+02 0.  0.
         13    1    3    3    0    0 -0.20362441946E+03 -0.18581724510E+03 -0.91797810469E+02  0.29054739851E+03  0.00000000000E+00 0. -1.
        -13    1    3    3    0    0 -0.55956900076E+02 -0.37067020862E+02 -0.65835789761E+02  0.94018561546E+02  0.00000000000E+00 0.  1.
         22    1    1    2    0    0  0.25958131953E+03  0.22288426596E+03  0.31548022516E+03  0.46538976131E+03  0.00000000000E+00 0.  1.
<mgrwt>
<rscale>  0 0.83517015E+03</rscale>
<asrwt>0</asrwt>
<pdfrwt beam="1">  1        2 0.77523257E-01 0.83517015E+03</pdfrwt>
<pdfrwt beam="2">  1       -2 0.53239161E-01 0.83517015E+03</pdfrwt>
<totfact> 0.20422396E+02</totfact>
</mgrwt>
</event>
<event>
 6    1  0.5040916E-004  0.1423373E+04  0.7818608E-02  0.8937072E-01
         -2   -1    0    0    0  501 -0.00000000000E+00  0.00000000000E+00  0.12800194386E+04  0.12800194386E+04  0.00000000000E+00 0. -1.
          2   -1    0    0  501    0  0.00000000000E+00 -0.00000000000E+00 -0.39569521150E+03  0.39569521150E+03  0.00000000000E+00 0.  1.
         23    2    1    2    0    0  0.27882198697E+03 -0.43241614371E+03  0.10179146068E+04  0.11441398094E+04  0.90445203448E+02 0.  0.
         11    1    3    3    0    0  0.25274167738E+03 -0.32423285706E+03  0.79708240503E+03  0.89685319952E+03  0.00000000000E+00 0. -1.
        -11    1    3    3    0    0  0.26080309591E+02 -0.10818328665E+03  0.22083220179E+03  0.24728660984E+03  0.00000000000E+00 0.  1.
         22    1    1    2    0    0 -0.27882198697E+03  0.43241614371E+03 -0.13359037971E+03  0.53157484074E+03  0.00000000000E+00 0.  1.
<mgrwt>
<rscale>  0 0.14233728E+04</rscale>
<asrwt>0</asrwt>
<pdfrwt beam="1">  1        2 0.60876187E-01 0.14233728E+04</pdfrwt>
<pdfrwt beam="2">  1       -2 0.19692607E+00 0.14233728E+04</pdfrwt>
<totfact> 0.10888666E+01</totfact>
</mgrwt>
</event>
<event>
 6    1  0.5040916E-004  0.1667765E+04  0.7818608E-02  0.8779966E-01
          2   -1    0    0  501    0  0.00000000000E+00  0.00000000000E+00  0.16217689420E+04  0.16217689420E+04  0.00000000000E+00 0.  1.
         -2   -1    0    0    0  501 -0.00000000000E+00 -0.00000000000E+00 -0.42876636531E+03  0.42876636531E+03  0.00000000000E+00 0. -1.
         23    2    1    2    0    0 -0.10771341788E+03  0.81600924566E+03  0.74118650819E+03  0.11115938666E+04  0.93862744903E+02 0.  0.
         11    1    3    3    0    0 -0.21539743276E+02  0.84347604526E+02  0.11808217379E+03  0.14670336976E+03  0.00000000000E+00 0. -1.
        -11    1    3    3    0    0 -0.86173674600E+02  0.73166164113E+03  0.62310433440E+03  0.96489049681E+03  0.00000000000E+00 0.  1.
         22    1    1    2    0    0  0.10771341788E+03 -0.81600924566E+03  0.45181606850E+03  0.93894144074E+03  0.00000000000E+00 0.  1.
<mgrwt>
<rscale>  0 0.16677649E+04</rscale>
<asrwt>0</asrwt>
<pdfrwt beam="1">  1        2 0.24950291E+00 0.16677649E+04</pdfrwt>
<pdfrwt beam="2">  1       -2 0.65964057E-01 0.16677649E+04</pdfrwt>
<totfact> 0.21874762E+01</totfact>
</mgrwt>
</event>
<event>
 6    1  0.5040916E-004  0.1679029E+04  0.7818608E-02  0.8773416E-01
         -4   -1    0    0    0  501 -0.00000000000E+00  0.00000000000E+00  0.17805292134E+04  0.17805292134E+04  0.00000000000E+00 0. -1.
          4   -1    0    0  501    0  0.00000000000E+00 -0.00000000000E+00 -0.39582858998E+03  0.39582858998E+03  0.00000000000E+00 0.  1.
         23    2    1    2    0    0  0.22301881122E+03 -0.68786152443E+02  0.17363968411E+04  0.17542687672E+04  0.88971864456E+02 0.  0.
         11    1    3    3    0    0  0.27853653146E+02  0.16999900103E+02  0.35789240817E+03  0.35937695867E+03  0.00000000000E+00 0. -1.
        -11    1    3    3    0    0  0.19516515807E+03 -0.85786052546E+02  0.13785044330E+04  0.13948918085E+04  0.00000000000E+00 0.  1.
         22    1    1    2    0    0 -0.22301881122E+03  0.68786152443E+02 -0.35169621771E+03  0.42208903620E+03  0.00000000000E+00 0.  1.
<mgrwt>
<rscale>  0 0.16790287E+04</rscale>
<asrwt>0</asrwt>
<pdfrwt beam="1">  1        4 0.60896707E-01 0.16790287E+04</pdfrwt>
<pdfrwt beam="2">  1       -4 0.27392757E+00 0.16790287E+04</pdfrwt>
<totfact> 0.21779793E-01</totfact>
</mgrwt>
</event>
<event>
 6    1  0.5040916E-004  0.1814152E+04  0.7818608E-02  0.8698809E-01
          2   -1    0    0  501    0  0.00000000000E+00  0.00000000000E+00  0.18013002294E+04  0.18013002294E+04  0.00000000000E+00 0.  1.
         -2   -1    0    0    0  501 -0.00000000000E+00 -0.00000000000E+00 -0.45677404743E+03  0.45677404743E+03  0.00000000000E+00 0. -1.
         23    2    1    2    0    0 -0.53272537633E+03  0.72877382896E+03  0.74868206275E+03  0.11764376304E+04  0.92590749533E+02 0.  0.
         13    1    3    3    0    0 -0.46808960773E+03  0.61061363183E+03  0.67148074962E+03  0.10211969866E+04  0.00000000000E+00 0. -1.
        -13    1    3    3    0    0 -0.64635768594E+02  0.11816019713E+03  0.77201313126E+02  0.15524064389E+03  0.00000000000E+00 0.  1.
         22    1    1    2    0    0  0.53272537633E+03 -0.72877382896E+03  0.59584411919E+03  0.10816366464E+04  0.00000000000E+00 0.  1.
<mgrwt>
<rscale>  0 0.18141524E+04</rscale>
<asrwt>0</asrwt>
<pdfrwt beam="1">  1        2 0.27712311E+00 0.18141524E+04</pdfrwt>
<pdfrwt beam="2">  1       -2 0.70272932E-01 0.18141524E+04</pdfrwt>
<totfact> 0.14971280E+01</totfact>
</mgrwt>
</event>
<event>
 6    1  0.5040916E-004  0.1545952E+04  0.7818608E-02  0.8854457E-01
         -2   -1    0    0    0  501 -0.00000000000E+00  0.00000000000E+00  0.23230372110E+03  0.23230372110E+03  0.00000000000E+00 0. -1.
          2   -1    0    0  501    0  0.00000000000E+00 -0.00000000000E+00 -0.25720304738E+04  0.25720304738E+04  0.00000000000E+00 0.  1.
         23    2    1    2    0    0 -0.66062879027E+03 -0.37024196555E+03 -0.14308618193E+04  0.16213105355E+04  0.88163455483E+02 0.  0.
         11    1    3    3    0    0 -0.34230736519E+03 -0.21522482415E+03 -0.67949838076E+03  0.79070481638E+03  0.00000000000E+00 0. -1.
        -11    1    3    3    0    0 -0.31832142508E+03 -0.15501714140E+03 -0.75136343858E+03  0.83060571911E+03  0.00000000000E+00 0.  1.
         22    1    1    2    0    0  0.66062879027E+03  0.37024196555E+03 -0.90886493335E+03  0.11830236594E+04  0.00000000000E+00 0. -1.
<mgrwt>
<rscale>  0 0.15459525E+04</rscale>
<asrwt>0</asrwt>
<pdfrwt beam="1">  1        2 0.39569701E+00 0.15459525E+04</pdfrwt>
<pdfrwt beam="2">  1       -2 0.35739033E-01 0.15459525E+04</pdfrwt>
<totfact> 0.22461908E+01</totfact>
</mgrwt>
</event>
<event>
 6    1  0.5040916E-004  0.3478594E+04  0.7818608E-02  0.8118882E-01
         -2   -1    0    0    0  501 -0.00000000000E+00  0.00000000000E+00  0.80761213811E+03  0.80761213811E+03  0.00000000000E+00 0. -1.
          2   -1    0    0  501    0  0.00000000000E+00 -0.00000000000E+00 -0.37458014906E+04  0.37458014906E+04  0.00000000000E+00 0.  1.
         23    2    1    2    0    0 -0.17374385440E+04  0.47880085085E+02 -0.14685616088E+04  0.22772785489E+04  0.91319185124E+02 0.  0.
         11    1    3    3    0    0 -0.13089498627E+04  0.60914171169E+02 -0.11458917559E+04  0.17407263414E+04  0.00000000000E+00 0. -1.
        -11    1    3    3    0    0 -0.42848868126E+03 -0.13034086084E+02 -0.32266985295E+03  0.53655220750E+03  0.00000000000E+00 0.  1.
         22    1    1    2    0    0  0.17374385440E+04 -0.47880085085E+02 -0.14696277437E+04  0.22761350799E+04  0.00000000000E+00 0.  1.
<mgrwt>
<rscale>  0 0.34785944E+04</rscale>
<asrwt>0</asrwt>
<pdfrwt beam="1">  1        2 0.57627716E+00 0.34785944E+04</pdfrwt>
<pdfrwt beam="2">  1       -2 0.12424802E+00 0.34785944E+04</pdfrwt>
<totfact> 0.21579216E-01</totfact>
</mgrwt>
</event>
<event>
 6    1  0.5040916E-004  0.4700710E+03  0.7818608E-02  0.1021900E+00
         -2   -1    0    0    0  501 -0.00000000000E+00  0.00000000000E+00  0.71260133417E+02  0.71260133417E+02  0.00000000000E+00 0. -1.
          2   -1    0    0  501    0  0.00000000000E+00 -0.00000000000E+00 -0.77521166850E+03  0.77521166850E+03  0.00000000000E+00 0.  1.
         23    2    1    2    0    0 -0.93346502329E+02 -0.35712023481E+02 -0.72878465336E+03  0.74348829896E+03  0.10797620853E+03 0.  0.
         11    1    3    3    0    0 -0.39738460607E+01 -0.54680468480E+02 -0.31520020591E+03  0.31993267244E+03  0.00000000000E+00 0. -1.
        -11    1    3    3    0    0 -0.89372656268E+02  0.18968444999E+02 -0.41358444745E+03  0.42355562653E+03  0.00000000000E+00 0.  1.
         22    1    1    2    0    0  0.93346502329E+02  0.35712023481E+02  0.24833118271E+02  0.10298350296E+03  0.00000000000E+00 0. -1.
<mgrwt>
<rscale>  0 0.47007100E+03</rscale>
<asrwt>0</asrwt>
<pdfrwt beam="1">  1        2 0.11926334E+00 0.47007100E+03</pdfrwt>
<pdfrwt beam="2">  1       -2 0.10963097E-01 0.47007100E+03</pdfrwt>
<totfact> 0.21214248E+03</totfact>
</mgrwt>
</event>
<event>
 6    1  0.5040916E-004  0.9993354E+03  0.7818608E-02  0.9309274E-01
         -2   -1    0    0    0  501 -0.00000000000E+00  0.00000000000E+00  0.20168357663E+03  0.20168357663E+03  0.00000000000E+00 0. -1.
          2   -1    0    0  501    0  0.00000000000E+00 -0.00000000000E+00 -0.12379184216E+04  0.12379184216E+04  0.00000000000E+00 0.  1.
         23    2    1    2    0    0  0.51973956463E+02 -0.22734192595E+03  0.10716706382E+03  0.27266002518E+03  0.92049260283E+02 0.  0.
         11    1    3    3    0    0  0.43522337439E+02 -0.21778475403E+03  0.12175850687E+03  0.25327756896E+03  0.00000000000E+00 0.  1.
        -11    1    3    3    0    0  0.84516190237E+01 -0.95571719234E+01 -0.14591443041E+02  0.19382456225E+02  0.00000000000E+00 0. -1.
         22    1    1    2    0    0 -0.51973956463E+02  0.22734192595E+03 -0.11434019088E+04  0.11669419731E+04  0.00000000000E+00 0.  1.
<mgrwt>
<rscale>  0 0.99933541E+03</rscale>
<asrwt>0</asrwt>
<pdfrwt beam="1">  1        2 0.19044898E+00 0.99933541E+03</pdfrwt>
<pdfrwt beam="2">  1       -2 0.31028243E-01 0.99933541E+03</pdfrwt>
<totfact> 0.17258696E+02</totfact>
</mgrwt>
</event>
<event>
 6    1  0.5040916E-004  0.2243018E+04  0.7818608E-02  0.8500734E-01
          2   -1    0    0  501    0  0.00000000000E+00  0.00000000000E+00  0.81619535773E+03  0.81619535773E+03  0.00000000000E+00 0.  1.
         -2   -1    0    0    0  501 -0.00000000000E+00 -0.00000000000E+00 -0.15410306628E+04  0.15410306628E+04  0.00000000000E+00 0. -1.
         23    2    1    2    0    0 -0.66666398041E+03  0.19448553032E+03 -0.12855489569E+04  0.14646649394E+04  0.10169454191E+03 0.  0.
         13    1    3    3    0    0 -0.51522944528E+03  0.17037259095E+03 -0.91784509207E+03  0.10662681717E+04  0.00000000000E+00 0. -1.
        -13    1    3    3    0    0 -0.15143453513E+03  0.24112939370E+02 -0.36770386480E+03  0.39839676763E+03  0.00000000000E+00 0.  1.
         22    1    1    2    0    0  0.66666398041E+03 -0.19448553032E+03  0.56071365179E+03  0.89256108115E+03  0.00000000000E+00 0.  1.
<mgrwt>
<rscale>  0 0.22430177E+04</rscale>
<asrwt>0</asrwt>
<pdfrwt beam="1">  1        2 0.12556852E+00 0.22430177E+04</pdfrwt>
<pdfrwt beam="2">  1       -2 0.23708164E+00 0.22430177E+04</pdfrwt>
<totfact> 0.23582361E+00</totfact>
</mgrwt>
</event>
<event>
 6    1  0.5040916E-004  0.2449626E+04  0.7818608E-02  0.8421154E-01
          2   -1    0    0  501    0  0.00000000000E+00  0.00000000000E+00  0.26291283804E+04  0.26291283804E+04  0.00000000000E+00 0.  1.
         -2   -1    0    0    0  501 -0.00000000000E+00 -0.00000000000E+00 -0.57059488238E+03  0.57059488238E+03  0.00000000000E+00 0. -1.
         23    2    1    2    0    0  0.14178898487E+03 -0.57336053691E+03  0.24295457558E+04  0.25022302399E+04  0.98067182761E+02 0.  0.
         13    1    3    3    0    0  0.49601920412E+02 -0.85539819921E+02  0.31337339216E+03  0.32860355174E+03  0.00000000000E+00 0. -1.
        -13    1    3    3    0    0  0.92187064456E+02 -0.48782071699E+03  0.21161723637E+04  0.21736266882E+04  0.00000000000E+00 0.  1.
         22    1    1    2    0    0 -0.14178898487E+03  0.57336053691E+03 -0.37101225781E+03  0.69749302288E+03  0.00000000000E+00 0. -1.
<mgrwt>
<rscale>  0 0.24496263E+04</rscale>
<asrwt>0</asrwt>
<pdfrwt beam="1">  1        2 0.40448128E+00 0.24496263E+04</pdfrwt>
<pdfrwt beam="2">  1       -2 0.87783829E-01 0.24496263E+04</pdfrwt>
<totfact> 0.29320980E+00</totfact>
</mgrwt>
</event>
<event>
 6    1  0.5040916E-004  0.3728497E+04  0.7818608E-02  0.8061676E-01
         -2   -1    0    0    0  501 -0.00000000000E+00  0.00000000000E+00  0.13933049669E+04  0.13933049669E+04  0.00000000000E+00 0. -1.
          2   -1    0    0  501    0  0.00000000000E+00 -0.00000000000E+00 -0.24943726918E+04  0.24943726918E+04  0.00000000000E+00 0.  1.
         23    2    1    2    0    0 -0.46058252398E+03 -0.13886307006E+04  0.65198304311E+03  0.16043427119E+04  0.91663322978E+02 0.  0.
         13    1    3    3    0    0 -0.11411194902E+03 -0.42859147860E+03  0.16206660404E+03  0.47220522719E+03  0.00000000000E+00 0. -1.
        -13    1    3    3    0    0 -0.34647057496E+03 -0.96003922199E+03  0.48991643907E+03  0.11321374847E+04  0.00000000000E+00 0.  1.
         22    1    1    2    0    0  0.46058252398E+03  0.13886307006E+04 -0.17530507680E+04  0.22833349467E+04  0.00000000000E+00 0.  1.
<mgrwt>
<rscale>  0 0.37284967E+04</rscale>
<asrwt>0</asrwt>
<pdfrwt beam="1">  1        2 0.38374965E+00 0.37284967E+04</pdfrwt>
<pdfrwt beam="2">  1       -2 0.21435461E+00 0.37284967E+04</pdfrwt>
<totfact> 0.30369895E-01</totfact>
</mgrwt>
</event>
<event>
 6    1  0.5040916E-004  0.4187721E+04  0.7818608E-02  0.7967712E-01
          2   -1    0    0  501    0  0.00000000000E+00  0.00000000000E+00  0.15728050654E+04  0.15728050654E+04  0.00000000000E+00 0.  1.
         -2   -1    0    0    0  501 -0.00000000000E+00 -0.00000000000E+00 -0.27875366884E+04  0.27875366884E+04  0.00000000000E+00 0. -1.
         23    2    1    2    0    0  0.14328330661E+04 -0.46866330493E+03  0.90387100452E+03  0.17601238818E+04  0.91637315856E+02 0.  0.
         11    1    3    3    0    0  0.98632055912E+03 -0.35770067705E+03  0.65818893609E+03  0.12385437801E+04  0.00000000000E+00 0. -1.
        -11    1    3    3    0    0  0.44651250700E+03 -0.11096262788E+03  0.24568206843E+03  0.52158010165E+03  0.00000000000E+00 0.  1.
         22    1    1    2    0    0 -0.14328330661E+04  0.46866330493E+03 -0.21186026275E+04  0.26002178720E+04  0.00000000000E+00 0. -1.
<mgrwt>
<rscale>  0 0.41877210E+04</rscale>
<asrwt>0</asrwt>
<pdfrwt beam="1">  1        2 0.24197001E+00 0.41877210E+04</pdfrwt>
<pdfrwt beam="2">  1       -2 0.42885179E+00 0.41877210E+04</pdfrwt>
<totfact> 0.43005288E-02</totfact>
</mgrwt>
</event>
<event>
 6    1  0.5040916E-004  0.2499112E+04  0.7818608E-02  0.8403302E-01
         -2   -1    0    0    0  501 -0.00000000000E+00  0.00000000000E+00  0.12202474294E+04  0.12202474294E+04  0.00000000000E+00 0. -1.
          2   -1    0    0  501    0  0.00000000000E+00 -0.00000000000E+00 -0.12795680775E+04  0.12795680775E+04  0.00000000000E+00 0.  1.
         23    2    1    2    0    0  0.84140357748E+03 -0.82230144054E+03  0.38717641129E+03  0.12414438354E+04  0.84484221992E+02 0.  0.
         11    1    3    3    0    0  0.30033157422E+03 -0.23837411275E+03  0.12916541953E+03  0.40460471785E+03  0.00000000000E+00 0. -1.
        -11    1    3    3    0    0  0.54107200326E+03 -0.58392732779E+03  0.25801099176E+03  0.83683911758E+03  0.00000000000E+00 0.  1.
         22    1    1    2    0    0 -0.84140357748E+03  0.82230144054E+03 -0.44649705942E+03  0.12583716714E+04  0.00000000000E+00 0.  1.
<mgrwt>
<rscale>  0 0.24991116E+04</rscale>
<asrwt>0</asrwt>
<pdfrwt beam="1">  1        2 0.19685663E+00 0.24991116E+04</pdfrwt>
<pdfrwt beam="2">  1       -2 0.18773037E+00 0.24991116E+04</pdfrwt>
<totfact> 0.24335928E+00</totfact>
</mgrwt>
</event>
<event>
 6    1  0.5040916E-004  0.3439546E+04  0.7818608E-02  0.8128268E-01
         -1   -1    0    0    0  501 -0.00000000000E+00  0.00000000000E+00  0.11933636040E+04  0.11933636040E+04  0.00000000000E+00 0. -1.
          1   -1    0    0  501    0  0.00000000000E+00 -0.00000000000E+00 -0.24783883704E+04  0.24783883704E+04  0.00000000000E+00 0.  1.
         23    2    1    2    0    0  0.20710794397E+03  0.16598699383E+04 -0.22226494307E+03  0.16899547207E+04  0.92105051328E+02 0.  0.
         11    1    3    3    0    0  0.24759317186E+01  0.29746537688E+03 -0.31999003155E+02  0.29919177275E+03  0.00000000000E+00 0. -1.
        -11    1    3    3    0    0  0.20463201225E+03  0.13624045614E+04 -0.19026593992E+03  0.13907629479E+04  0.00000000000E+00 0.  1.
         22    1    1    2    0    0 -0.20710794397E+03 -0.16598699383E+04 -0.10627598234E+04  0.19817972537E+04  0.00000000000E+00 0. -1.
<mgrwt>
<rscale>  0 0.34395456E+04</rscale>
<asrwt>0</asrwt>
<pdfrwt beam="1">  1        1 0.38129052E+00 0.34395456E+04</pdfrwt>
<pdfrwt beam="2">  1       -1 0.18359440E+00 0.34395456E+04</pdfrwt>
<totfact> 0.22549472E-01</totfact>
</mgrwt>
</event>
<event>
 6    1  0.5040916E-004  0.9615422E+03  0.7818608E-02  0.9351760E-01
          4   -1    0    0  501    0  0.00000000000E+00  0.00000000000E+00  0.49389984840E+03  0.49389984840E+03  0.00000000000E+00 0.  1.
         -4   -1    0    0    0  501 -0.00000000000E+00 -0.00000000000E+00 -0.46799131376E+03  0.46799131376E+03  0.00000000000E+00 0. -1.
         23    2    1    2    0    0 -0.83672651025E+02 -0.78719092228E+02  0.47522027662E+03  0.49812521958E+03  0.95376176560E+02 0.  0.
         13    1    3    3    0    0 -0.89660524266E+02 -0.48447734628E+02  0.23793855410E+03  0.25884541358E+03  0.00000000000E+00 0. -1.
        -13    1    3    3    0    0  0.59878732413E+01 -0.30271357599E+02  0.23728172252E+03  0.23927980600E+03  0.00000000000E+00 0.  1.
         22    1    1    2    0    0  0.83672651025E+02  0.78719092228E+02 -0.44931174199E+03  0.46376594258E+03  0.00000000000E+00 0. -1.
<mgrwt>
<rscale>  0 0.96154218E+03</rscale>
<asrwt>0</asrwt>
<pdfrwt beam="1">  1        4 0.75984592E-01 0.96154218E+03</pdfrwt>
<pdfrwt beam="2">  1       -4 0.71998663E-01 0.96154218E+03</pdfrwt>
<totfact> 0.54454217E+00</totfact>
</mgrwt>
</event>
<event>
 6    1  0.5040916E-004  0.2428019E+04  0.7818608E-02  0.8429088E-01
         -2   -1    0    0    0  501 -0.00000000000E+00  0.00000000000E+00  0.18017900317E+04  0.18017900317E+04  0.00000000000E+00 0. -1.
          2   -1    0    0  501    0  0.00000000000E+00 -0.00000000000E+00 -0.81797493622E+03  0.81797493622E+03  0.00000000000E+00 0.  1.
         23    2    1    2    0    0  0.10278229278E+04  0.31708358561E+03  0.10957904936E+04  0.15383305219E+04  0.93498755650E+02 0.  0.
         13    1    3    3    0    0  0.31506682140E+03  0.10954803321E+03  0.40048199758E+03  0.52120409046E+03  0.00000000000E+00 0. -1.
        -13    1    3    3    0    0  0.71275610644E+03  0.20753555240E+03  0.69530849606E+03  0.10171264314E+04  0.00000000000E+00 0.  1.
         22    1    1    2    0    0 -0.10278229278E+04 -0.31708358561E+03 -0.11197539818E+03  0.10814344460E+04  0.00000000000E+00 0.  1.
<mgrwt>
<rscale>  0 0.24280190E+04</rscale>
<asrwt>0</asrwt>
<pdfrwt beam="1">  1        2 0.12584230E+00 0.24280190E+04</pdfrwt>
<pdfrwt beam="2">  1       -2 0.27719847E+00 0.24280190E+04</pdfrwt>
<totfact> 0.13140309E+00</totfact>
</mgrwt>
</event>
<event>
 6    1  0.5040916E-004  0.3189168E+04  0.7818608E-02  0.8191684E-01
          2   -1    0    0  501    0  0.00000000000E+00  0.00000000000E+00  0.19514505919E+04  0.19514505919E+04  0.00000000000E+00 0. -1.
         -2   -1    0    0    0  501 -0.00000000000E+00 -0.00000000000E+00 -0.13029787502E+04  0.13029787502E+04  0.00000000000E+00 0.  1.
         23    2    1    2    0    0 -0.51839565089E+03 -0.23884062190E+03  0.18424935346E+04  0.19309994435E+04  0.90540224097E+02 0.  0.
         11    1    3    3    0    0 -0.16365020627E+03 -0.85087703940E+02  0.46414197405E+03  0.49944877560E+03  0.00000000000E+00 0.  1.
        -11    1    3    3    0    0 -0.35474544462E+03 -0.15375291796E+03  0.13783515606E+04  0.14315506679E+04  0.00000000000E+00 0. -1.
         22    1    1    2    0    0  0.51839565089E+03  0.23884062190E+03 -0.11940216929E+04  0.13234298987E+04  0.00000000000E+00 0.  1.
<mgrwt>
<rscale>  0 0.31891683E+04</rscale>
<asrwt>0</asrwt>
<pdfrwt beam="1">  1        2 0.30022317E+00 0.31891683E+04</pdfrwt>
<pdfrwt beam="2">  1       -2 0.20045827E+00 0.31891683E+04</pdfrwt>
<totfact> 0.79152989E-01</totfact>
</mgrwt>
</event>
<event>
 6    1  0.5040916E-004  0.1332943E+04  0.7818608E-02  0.9003842E-01
         -2   -1    0    0    0  501 -0.00000000000E+00  0.00000000000E+00  0.36755659156E+03  0.36755659156E+03  0.00000000000E+00 0. -1.
          2   -1    0    0  501    0  0.00000000000E+00 -0.00000000000E+00 -0.12084780584E+04  0.12084780584E+04  0.00000000000E+00 0.  1.
         23    2    1    2    0    0  0.20669075168E+03 -0.10383374443E+03  0.31284878443E+03  0.39930685390E+03  0.89828104410E+02 0.  0.
         13    1    3    3    0    0  0.44816484873E+02 -0.25972924047E+02  0.14300616415E+03  0.15209823498E+03  0.00000000000E+00 0. -1.
        -13    1    3    3    0    0  0.16187426680E+03 -0.77860820384E+02  0.16984262028E+03  0.24720861892E+03  0.00000000000E+00 0.  1.
         22    1    1    2    0    0 -0.20669075168E+03  0.10383374443E+03 -0.11537702513E+04  0.11767277961E+04  0.00000000000E+00 0.  1.
<mgrwt>
<rscale>  0 0.13329427E+04</rscale>
<asrwt>0</asrwt>
<pdfrwt beam="1">  1        2 0.18591970E+00 0.13329427E+04</pdfrwt>
<pdfrwt beam="2">  1       -2 0.56547168E-01 0.13329427E+04</pdfrwt>
<totfact> 0.53712715E+01</totfact>
</mgrwt>
</event>
<event>
 6    1  0.5040916E-004  0.1921056E+04  0.7818608E-02  0.8644446E-01
          2   -1    0    0  501    0  0.00000000000E+00  0.00000000000E+00  0.29031609870E+04  0.29031609870E+04  0.00000000000E+00 0.  1.
         -2   -1    0    0    0  501 -0.00000000000E+00 -0.00000000000E+00 -0.31779650653E+03  0.31779650653E+03  0.00000000000E+00 0. -1.
         23    2    1    2    0    0 -0.20065879444E+03  0.80721259036E+03  0.20936464104E+04  0.22547055708E+04  0.92118407924E+02 0.  0.
         13    1    3    3    0    0 -0.14946357012E+03  0.71616209769E+03  0.18634804972E+04  0.20019458215E+04  0.00000000000E+00 0. -1.
        -13    1    3    3    0    0 -0.51195224321E+02  0.91050492667E+02  0.23016591323E+03  0.25275974921E+03  0.00000000000E+00 0.  1.
         22    1    1    2    0    0  0.20065879444E+03 -0.80721259036E+03  0.49171807000E+03  0.96625192273E+03  0.00000000000E+00 0. -1.
<mgrwt>
<rscale>  0 0.19210564E+04</rscale>
<asrwt>0</asrwt>
<pdfrwt beam="1">  1        2 0.44664013E+00 0.19210564E+04</pdfrwt>
<pdfrwt beam="2">  1       -2 0.48891772E-01 0.19210564E+04</pdfrwt>
<totfact> 0.74253397E+00</totfact>
</mgrwt>
</event>
<event>
 6    1  0.5689032E-004  0.2330765E+04  0.7818608E-02  0.8465889E-01
         -2   -1    0    0    0  501 -0.00000000000E+00  0.00000000000E+00  0.72608773790E+03  0.72608773790E+03  0.00000000000E+00 0. -1.
          2   -1    0    0  501    0  0.00000000000E+00 -0.00000000000E+00 -0.18704577336E+04  0.18704577336E+04  0.00000000000E+00 0.  1.
         23    2    1    2    0    0 -0.21833873229E+03 -0.43572387635E+03 -0.17501449298E+04  0.18190556843E+04  0.91810723567E+02 0.  0.
         13    1    3    3    0    0 -0.26076294818E+02 -0.14464754175E+03 -0.53719828640E+03  0.55694244173E+03  0.00000000000E+00 0. -1.
        -13    1    3    3    0    0 -0.19226243748E+03 -0.29107633460E+03 -0.12129466434E+04  0.12621132426E+04  0.00000000000E+00 0.  1.
         22    1    1    2    0    0  0.21833873229E+03  0.43572387635E+03  0.60577493407E+03  0.77748978720E+03  0.00000000000E+00 0. -1.
<mgrwt>
<rscale>  0 0.23307650E+04</rscale>
<asrwt>0</asrwt>
<pdfrwt beam="1">  1        2 0.28776272E+00 0.23307650E+04</pdfrwt>
<pdfrwt beam="2">  1       -2 0.11170581E+00 0.23307650E+04</pdfrwt>
<totfact> 0.45137419E+00</totfact>
</mgrwt>
</event>
<event>
 6    1  0.5040916E-004  0.4353305E+04  0.7818608E-02  0.7936834E-01
         -2   -1    0    0    0  501 -0.00000000000E+00  0.00000000000E+00  0.20384033306E+04  0.20384033306E+04  0.00000000000E+00 0. -1.
          2   -1    0    0  501    0  0.00000000000E+00 -0.00000000000E+00 -0.23242778197E+04  0.23242778197E+04  0.00000000000E+00 0.  1.
         23    2    1    2    0    0 -0.17497196476E+04  0.96593336251E+03 -0.10046968712E+04  0.22387104060E+04  0.88670022317E+02 0.  0.
         11    1    3    3    0    0 -0.81195884791E+03  0.41402710538E+03 -0.49431756346E+03  0.10368439942E+04  0.00000000000E+00 0. -1.
        -11    1    3    3    0    0 -0.93776079968E+03  0.55190625714E+03 -0.51037930776E+03  0.12018664118E+04  0.00000000000E+00 0.  1.
         22    1    1    2    0    0  0.17497196476E+04 -0.96593336251E+03  0.71882238214E+03  0.21239707444E+04  0.00000000000E+00 0. -1.
<mgrwt>
<rscale>  0 0.43533048E+04</rscale>
<asrwt>0</asrwt>
<pdfrwt beam="1">  1        2 0.35758120E+00 0.43533048E+04</pdfrwt>
<pdfrwt beam="2">  1       -2 0.31360051E+00 0.43533048E+04</pdfrwt>
<totfact> 0.88301504E-02</totfact>
</mgrwt>
</event>
<event>
 6    1  0.5040916E-004  0.4023227E+04  0.7818608E-02  0.7999877E-01
          2   -1    0    0  501    0  0.00000000000E+00  0.00000000000E+00  0.14855755250E+04  0.14855755250E+04  0.00000000000E+00 0.  1.
         -2   -1    0    0    0  501 -0.00000000000E+00 -0.00000000000E+00 -0.27239203030E+04  0.27239203030E+04  0.00000000000E+00 0. -1.
         23    2    1    2    0    0 -0.50353474797E+03 -0.16814019209E+04 -0.16455188289E+04  0.24077049495E+04  0.93012070992E+02 0.  0.
         13    1    3    3    0    0 -0.40077315702E+03 -0.13366068639E+04 -0.13583252230E+04  0.19473531893E+04  0.00000000000E+00 0.  1.
        -13    1    3    3    0    0 -0.10276159095E+03 -0.34479505699E+03 -0.28719360583E+03  0.46035176022E+03  0.00000000000E+00 0. -1.
         22    1    1    2    0    0  0.50353474797E+03  0.16814019209E+04  0.40717405082E+03  0.18017908785E+04  0.00000000000E+00 0.  1.
<mgrwt>
<rscale>  0 0.40232272E+04</rscale>
<asrwt>0</asrwt>
<pdfrwt beam="1">  1        2 0.22855008E+00 0.40232272E+04</pdfrwt>
<pdfrwt beam="2">  1       -2 0.41906466E+00 0.40232272E+04</pdfrwt>
<totfact> 0.56621322E-02</totfact>
</mgrwt>
</event>
<event>
 6    1  0.5040916E-004  0.5111658E+04  0.7818608E-02  0.7811510E-01
          2   -1    0    0  501    0  0.00000000000E+00  0.00000000000E+00  0.23763428377E+04  0.23763428377E+04  0.00000000000E+00 0.  1.
         -2   -1    0    0    0  501 -0.00000000000E+00 -0.00000000000E+00 -0.27488717874E+04  0.27488717874E+04  0.00000000000E+00 0. -1.
         23    2    1    2    0    0 -0.19256417974E+04 -0.30612083704E+03  0.14691138284E+04  0.24431530261E+04  0.94313146683E+02 0.  0.
         11    1    3    3    0    0 -0.21852550544E+03 -0.10428112651E+02  0.14320790024E+03  0.26147780929E+03  0.00000000000E+00 0.  1.
        -11    1    3    3    0    0 -0.17071162920E+04 -0.29569272439E+03  0.13259059281E+04  0.21816752169E+04  0.00000000000E+00 0. -1.
         22    1    1    2    0    0  0.19256417974E+04  0.30612083704E+03 -0.18416427780E+04  0.26820615990E+04  0.00000000000E+00 0. -1.
<mgrwt>
<rscale>  0 0.51116580E+04</rscale>
<asrwt>0</asrwt>
<pdfrwt beam="1">  1        2 0.36559120E+00 0.51116580E+04</pdfrwt>
<pdfrwt beam="2">  1       -2 0.42290335E+00 0.51116580E+04</pdfrwt>
<totfact> 0.15551171E-02</totfact>
</mgrwt>
</event>
<event>
 6    1  0.5040916E-004  0.2357729E+04  0.7818608E-02  0.8455501E-01
         -2   -1    0    0    0  501 -0.00000000000E+00  0.00000000000E+00  0.82752175069E+03  0.82752175069E+03  0.00000000000E+00 0. -1.
          2   -1    0    0  501    0  0.00000000000E+00 -0.00000000000E+00 -0.16793777788E+04  0.16793777788E+04  0.00000000000E+00 0.  1.
         23    2    1    2    0    0  0.64788059510E+03  0.23683071271E+03 -0.14407292020E+04  0.15999212128E+04  0.90604645975E+02 0.  0.
         11    1    3    3    0    0  0.12142133184E+03  0.55109707769E+02 -0.20591350146E+03  0.24531732470E+03  0.00000000000E+00 0. -1.
        -11    1    3    3    0    0  0.52645926326E+03  0.18172100495E+03 -0.12348157005E+04  0.13546038881E+04  0.00000000000E+00 0.  1.
         22    1    1    2    0    0 -0.64788059510E+03 -0.23683071271E+03  0.58887317387E+03  0.90697831666E+03  0.00000000000E+00 0. -1.
<mgrwt>
<rscale>  0 0.23577291E+04</rscale>
<asrwt>0</asrwt>
<pdfrwt beam="1">  1        2 0.25836581E+00 0.23577291E+04</pdfrwt>
<pdfrwt beam="2">  1       -2 0.12731104E+00 0.23577291E+04</pdfrwt>
<totfact> 0.41609745E+00</totfact>
</mgrwt>
</event>
<event>
 6    1  0.5040916E-004  0.7043325E+03  0.7818608E-02  0.9709852E-01
         -2   -1    0    0    0  501 -0.00000000000E+00  0.00000000000E+00  0.51813111437E+02  0.51813111437E+02  0.00000000000E+00 0.  1.
          2   -1    0    0  501    0  0.00000000000E+00 -0.00000000000E+00 -0.23936229478E+04  0.23936229478E+04  0.00000000000E+00 0. -1.
         23    2    1    2    0    0 -0.20613303817E+03  0.18806480636E+03 -0.19017217642E+04  0.19243442132E+04  0.93251173622E+02 0.  0.
         11    1    3    3    0    0 -0.15065405877E+03  0.76297886137E+02 -0.11512823108E+04  0.11636017239E+04  0.00000000000E+00 0.  1.
        -11    1    3    3    0    0 -0.55478979399E+02  0.11176692022E+03 -0.75043945347E+03  0.76074248924E+03  0.00000000000E+00 0. -1.
         22    1    1    2    0    0  0.20613303817E+03 -0.18806480636E+03 -0.44008807218E+03  0.52109184612E+03  0.00000000000E+00 0.  1.
<mgrwt>
<rscale>  0 0.70433246E+03</rscale>
<asrwt>0</asrwt>
<pdfrwt beam="1">  1        2 0.36824959E+00 0.70433246E+03</pdfrwt>
<pdfrwt beam="2">  1       -2 0.79712500E-02 0.70433246E+03</pdfrwt>
<totfact> 0.41210213E+02</totfact>
</mgrwt>
</event>
<event>
 6    1  0.5040916E-004  0.5517245E+04  0.7818608E-02  0.7753321E-01
         -2   -1    0    0    0  501 -0.00000000000E+00  0.00000000000E+00  0.17481390702E+04  0.17481390702E+04  0.00000000000E+00 0. -1.
          2   -1    0    0  501    0  0.00000000000E+00 -0.00000000000E+00 -0.43531995536E+04  0.43531995536E+04  0.00000000000E+00 0.  1.
         23    2    1    2    0    0 -0.26572418402E+04 -0.67016069424E+03 -0.16452238096E+04  0.31976623343E+04  0.90738453112E+02 0.  0.
         11    1    3    3    0    0 -0.18075784181E+04 -0.42184270180E+03 -0.11449424104E+04  0.21808677461E+04  0.00000000000E+00 0.  1.
        -11    1    3    3    0    0 -0.84966342215E+03 -0.24831799244E+03 -0.50028139918E+03  0.10167945882E+04  0.00000000000E+00 0. -1.
         22    1    1    2    0    0  0.26572418402E+04  0.67016069424E+03 -0.95983667383E+03  0.29036762895E+04  0.00000000000E+00 0.  1.
<mgrwt>
<rscale>  0 0.55172450E+04</rscale>
<asrwt>0</asrwt>
<pdfrwt beam="1">  1        2 0.66972300E+00 0.55172450E+04</pdfrwt>
<pdfrwt beam="2">  1       -2 0.26894447E+00 0.55172450E+04</pdfrwt>
<totfact> 0.57808928E-03</totfact>
</mgrwt>
</event>
<event>
 6    1  0.5040916E-004  0.2429742E+04  0.7818608E-02  0.8428452E-01
          2   -1    0    0  501    0  0.00000000000E+00  0.00000000000E+00  0.10875385592E+04  0.10875385592E+04  0.00000000000E+00 0.  1.
         -2   -1    0    0    0  501 -0.00000000000E+00 -0.00000000000E+00 -0.13571120250E+04  0.13571120250E+04  0.00000000000E+00 0. -1.
         23    2    1    2    0    0 -0.48349581250E+03  0.80593217401E+03  0.63675562662E+03  0.11389985273E+04  0.92547541478E+02 0.  0.
         13    1    3    3    0    0 -0.32613801007E+03  0.59796063607E+03  0.49657234934E+03  0.84291578585E+03  0.00000000000E+00 0. -1.
        -13    1    3    3    0    0 -0.15735780243E+03  0.20797153794E+03  0.14018327728E+03  0.29608274149E+03  0.00000000000E+00 0.  1.
         22    1    1    2    0    0  0.48349581250E+03 -0.80593217401E+03 -0.90632909241E+03  0.13056520569E+04  0.00000000000E+00 0. -1.
<mgrwt>
<rscale>  0 0.24297421E+04</rscale>
<asrwt>0</asrwt>
<pdfrwt beam="1">  1        2 0.16731362E+00 0.24297421E+04</pdfrwt>
<pdfrwt beam="2">  1       -2 0.20878647E+00 0.24297421E+04</pdfrwt>
<totfact> 0.23190714E+00</totfact>
</mgrwt>
</event>
<event>
 6    1  0.5040916E-004  0.2396269E+04  0.7818608E-02  0.8440902E-01
          1   -1    0    0  501    0  0.00000000000E+00  0.00000000000E+00  0.12315458559E+04  0.12315458559E+04  0.00000000000E+00 0.  1.
         -1   -1    0    0    0  501 -0.00000000000E+00 -0.00000000000E+00 -0.11656292759E+04  0.11656292759E+04  0.00000000000E+00 0. -1.
         23    2    1    2    0    0  0.86000647103E+03  0.32896180496E+03  0.79723251251E+03  0.12213137486E+04  0.90557132359E+02 0.  0.
         11    1    3    3    0    0  0.30890040478E+03  0.14606410922E+03  0.34233997621E+03  0.48368465284E+03  0.00000000000E+00 0. -1.
        -11    1    3    3    0    0  0.55110606625E+03  0.18289769574E+03  0.45489253630E+03  0.73762909578E+03  0.00000000000E+00 0.  1.
         22    1    1    2    0    0 -0.86000647103E+03 -0.32896180496E+03 -0.73131593256E+03  0.11758613832E+04  0.00000000000E+00 0. -1.
<mgrwt>
<rscale>  0 0.23962687E+04</rscale>
<asrwt>0</asrwt>
<pdfrwt beam="1">  1        1 0.18946859E+00 0.23962687E+04</pdfrwt>
<pdfrwt beam="2">  1       -1 0.17932758E+00 0.23962687E+04</pdfrwt>
<totfact> 0.19118551E+00</totfact>
</mgrwt>
</event>
<event>
 6    1  0.5040916E-004  0.2593760E+04  0.7818608E-02  0.8370324E-01
          2   -1    0    0  501    0  0.00000000000E+00  0.00000000000E+00  0.24271501900E+04  0.24271501900E+04  0.00000000000E+00 0.  1.
         -2   -1    0    0    0  501 -0.00000000000E+00 -0.00000000000E+00 -0.69295188023E+03  0.69295188023E+03  0.00000000000E+00 0. -1.
         23    2    1    2    0    0 -0.14083997367E+03 -0.12491719352E+04  0.49272372420E+03  0.13533181082E+04  0.91797666553E+02 0.  0.
         13    1    3    3    0    0 -0.52197960034E+02 -0.20024805770E+03  0.62944139852E+02  0.21630043085E+03  0.00000000000E+00 0. -1.
        -13    1    3    3    0    0 -0.88642013633E+02 -0.10489238775E+04  0.42977958435E+03  0.11370176773E+04  0.00000000000E+00 0.  1.
         22    1    1    2    0    0  0.14083997367E+03  0.12491719352E+04  0.12414745856E+04  0.17667839621E+04  0.00000000000E+00 0.  1.
<mgrwt>
<rscale>  0 0.25937604E+04</rscale>
<asrwt>0</asrwt>
<pdfrwt beam="1">  1        2 0.37340772E+00 0.25937604E+04</pdfrwt>
<pdfrwt beam="2">  1       -2 0.10660798E+00 0.25937604E+04</pdfrwt>
<totfact> 0.24050056E+00</totfact>
</mgrwt>
</event>
<event>
 6    1  0.5040916E-004  0.1410834E+04  0.7818608E-02  0.8946013E-01
          2   -1    0    0  501    0  0.00000000000E+00  0.00000000000E+00  0.38302850321E+04  0.38302850321E+04  0.00000000000E+00 0. -1.
         -2   -1    0    0    0  501 -0.00000000000E+00 -0.00000000000E+00 -0.12991549244E+03  0.12991549244E+03  0.00000000000E+00 0.  1.
         23    2    1    2    0    0  0.59411534239E+03 -0.37462570197E+03  0.18715790924E+04  0.20011722050E+04  0.92544251174E+02 0.  0.
         11    1    3    3    0    0  0.28353689630E+03 -0.22578460545E+03  0.89277437499E+03  0.96354446927E+03  0.00000000000E+00 0.  1.
        -11    1    3    3    0    0  0.31057844610E+03 -0.14884109652E+03  0.97880471740E+03  0.10376277357E+04  0.00000000000E+00 0. -1.
         22    1    1    2    0    0 -0.59411534239E+03  0.37462570197E+03  0.18287904473E+04  0.19590283195E+04  0.00000000000E+00 0.  1.
<mgrwt>
<rscale>  0 0.14108343E+04</rscale>
<asrwt>0</asrwt>
<pdfrwt beam="1">  1        2 0.58927454E+00 0.14108343E+04</pdfrwt>
<pdfrwt beam="2">  1       -2 0.19987002E-01 0.14108343E+04</pdfrwt>
<totfact> 0.99228483E+00</totfact>
</mgrwt>
</event>
<event>
 6    1  0.5040916E-004  0.2636422E+04  0.7818608E-02  0.8355934E-01
         -2   -1    0    0    0  501 -0.00000000000E+00  0.00000000000E+00  0.83706165254E+03  0.83706165254E+03  0.00000000000E+00 0. -1.
          2   -1    0    0  501    0  0.00000000000E+00 -0.00000000000E+00 -0.20759282899E+04  0.20759282899E+04  0.00000000000E+00 0.  1.
         23    2    1    2    0    0  0.12665254561E+04 -0.22100017712E+03 -0.30755489729E+03  0.13254543156E+04  0.96495174605E+02 0.  0.
         13    1    3    3    0    0  0.18527609827E+03 -0.30715975319E+02 -0.80631235670E+02  0.20438223967E+03  0.00000000000E+00 0. -1.
        -13    1    3    3    0    0  0.10812493578E+04 -0.19028420180E+03 -0.22692366162E+03  0.11210720759E+04  0.00000000000E+00 0.  1.
         22    1    1    2    0    0 -0.12665254561E+04  0.22100017712E+03 -0.93131174005E+03  0.15875356268E+04  0.00000000000E+00 0.  1.
<mgrwt>
<rscale>  0 0.26364218E+04</rscale>
<asrwt>0</asrwt>
<pdfrwt beam="1">  1        2 0.31937358E+00 0.26364218E+04</pdfrwt>
<pdfrwt beam="2">  1       -2 0.12877872E+00 0.26364218E+04</pdfrwt>
<totfact> 0.23774537E+00</totfact>
</mgrwt>
</event>
<event>
 6    1  0.5040916E-004  0.1784371E+04  0.7818608E-02  0.8714655E-01
         -2   -1    0    0    0  501 -0.00000000000E+00  0.00000000000E+00  0.34719489832E+03  0.34719489832E+03  0.00000000000E+00 0. -1.
          2   -1    0    0  501    0  0.00000000000E+00 -0.00000000000E+00 -0.22926452130E+04  0.22926452130E+04  0.00000000000E+00 0.  1.
         23    2    1    2    0    0  0.25984906730E+03  0.81411695574E+03 -0.13427546416E+04  0.15941106866E+04  0.88830727278E+02 0.  0.
         11    1    3    3    0    0  0.10735633104E+03  0.31767979400E+03 -0.44855152599E+03  0.56003955646E+03  0.00000000000E+00 0.  1.
        -11    1    3    3    0    0  0.15249273626E+03  0.49643716174E+03 -0.89420311564E+03  0.10340711301E+04  0.00000000000E+00 0. -1.
         22    1    1    2    0    0 -0.25984906730E+03 -0.81411695574E+03 -0.60269567302E+03  0.10457294247E+04  0.00000000000E+00 0. -1.
<mgrwt>
<rscale>  0 0.17843707E+04</rscale>
<asrwt>0</asrwt>
<pdfrwt beam="1">  1        2 0.35271464E+00 0.17843707E+04</pdfrwt>
<pdfrwt beam="2">  1       -2 0.53414602E-01 0.17843707E+04</pdfrwt>
<totfact> 0.14301617E+01</totfact>
</mgrwt>
</event>
<event>
 6    1  0.5040916E-004  0.1302439E+04  0.7818608E-02  0.9027633E-01
         -2   -1    0    0    0  501 -0.00000000000E+00  0.00000000000E+00  0.43583970293E+03  0.43583970293E+03  0.00000000000E+00 0. -1.
          2   -1    0    0  501    0  0.00000000000E+00 -0.00000000000E+00 -0.97303371858E+03  0.97303371858E+03  0.00000000000E+00 0.  1.
         23    2    1    2    0    0  0.56525702664E+03  0.75833292721E+02  0.63000046311E+02  0.58092468731E+03  0.90765037561E+02 0.  0.
         13    1    3    3    0    0  0.38718520700E+03  0.24639616104E+02  0.75393498403E+02  0.39522610593E+03  0.00000000000E+00 0. -1.
        -13    1    3    3    0    0  0.17807181963E+03  0.51193676617E+02 -0.12393452093E+02  0.18569858138E+03  0.00000000000E+00 0.  1.
         22    1    1    2    0    0 -0.56525702664E+03 -0.75833292721E+02 -0.60019406196E+03  0.82794873420E+03  0.00000000000E+00 0.  1.
<mgrwt>
<rscale>  0 0.13024388E+04</rscale>
<asrwt>0</asrwt>
<pdfrwt beam="1">  1        2 0.14969750E+00 0.13024388E+04</pdfrwt>
<pdfrwt beam="2">  1       -2 0.67052262E-01 0.13024388E+04</pdfrwt>
<totfact> 0.52472626E+01</totfact>
</mgrwt>
</event>
<event>
 6    1  0.5040916E-004  0.3882900E+04  0.7818608E-02  0.8028595E-01
          2   -1    0    0  501    0  0.00000000000E+00  0.00000000000E+00  0.26750450166E+04  0.26750450166E+04  0.00000000000E+00 0.  1.
         -2   -1    0    0    0  501 -0.00000000000E+00 -0.00000000000E+00 -0.14090333725E+04  0.14090333725E+04  0.00000000000E+00 0. -1.
         23    2    1    2    0    0  0.18565132782E+04  0.26857413839E+03  0.11552472699E+04  0.22049715890E+04  0.92357098339E+02 0.  0.
         11    1    3    3    0    0  0.15436173528E+04  0.25352719746E+03  0.98227091658E+03  0.18471293201E+04  0.00000000000E+00 0. -1.
        -11    1    3    3    0    0  0.31289592542E+03  0.15046940940E+02  0.17297635333E+03  0.35784226887E+03  0.00000000000E+00 0.  1.
         22    1    1    2    0    0 -0.18565132782E+04 -0.26857413839E+03  0.11076437414E+03  0.18791068002E+04  0.00000000000E+00 0. -1.
<mgrwt>
<rscale>  0 0.38828998E+04</rscale>
<asrwt>0</asrwt>
<pdfrwt beam="1">  1        2 0.41154539E+00 0.38828998E+04</pdfrwt>
<pdfrwt beam="2">  1       -2 0.21677437E+00 0.38828998E+04</pdfrwt>
<totfact> 0.22670908E-01</totfact>
</mgrwt>
</event>
<event>
 6    1  0.5040916E-004  0.1202869E+04  0.7818608E-02  0.9110349E-01
         -2   -1    0    0    0  501 -0.00000000000E+00  0.00000000000E+00  0.44713947268E+03  0.44713947268E+03  0.00000000000E+00 0. -1.
          2   -1    0    0  501    0  0.00000000000E+00 -0.00000000000E+00 -0.80897197518E+03  0.80897197518E+03  0.00000000000E+00 0.  1.
         23    2    1    2    0    0 -0.17061960864E+03 -0.40650833647E+03  0.23995629207E+03  0.51011558210E+03  0.90987947178E+02 0.  0.
         11    1    3    3    0    0 -0.59638863237E+02 -0.21266357784E+03  0.78092259056E+02  0.23426692526E+03  0.00000000000E+00 0. -1.
        -11    1    3    3    0    0 -0.11098074540E+03 -0.19384475863E+03  0.16186403301E+03  0.27584865684E+03  0.00000000000E+00 0.  1.
         22    1    1    2    0    0  0.17061960864E+03  0.40650833647E+03 -0.60178879456E+03  0.74599586576E+03  0.00000000000E+00 0.  1.
<mgrwt>
<rscale>  0 0.12028687E+04</rscale>
<asrwt>0</asrwt>
<pdfrwt beam="1">  1        2 0.12445722E+00 0.12028687E+04</pdfrwt>
<pdfrwt beam="2">  1       -2 0.68790690E-01 0.12028687E+04</pdfrwt>
<totfact> 0.64677893E+01</totfact>
</mgrwt>
</event>
<event>
 6    1  0.5040916E-004  0.4764657E+04  0.7818608E-02  0.7865873E-01
          2   -1    0    0  501    0  0.00000000000E+00  0.00000000000E+00  0.20813803391E+04  0.20813803391E+04  0.00000000000E+00 0.  1.
         -2   -1    0    0    0  501 -0.00000000000E+00 -0.00000000000E+00 -0.27267908737E+04  0.27267908737E+04  0.00000000000E+00 0. -1.
         23    2    1    2    0    0  0.17832108390E+04  0.31262793609E+03 -0.18841078575E+04  0.26145558908E+04  0.91994373265E+02 0.  0.
         11    1    3    3    0    0  0.51275206333E+03  0.12915426177E+03 -0.57275899888E+03  0.77951803865E+03  0.00000000000E+00 0. -1.
        -11    1    3    3    0    0  0.12704587757E+04  0.18347367431E+03 -0.13113488586E+04  0.18350378522E+04  0.00000000000E+00 0.  1.
         22    1    1    2    0    0 -0.17832108390E+04 -0.31262793609E+03  0.12386973229E+04  0.21936153219E+04  0.00000000000E+00 0.  1.
<mgrwt>
<rscale>  0 0.47646569E+04</rscale>
<asrwt>0</asrwt>
<pdfrwt beam="1">  1        2 0.32021236E+00 0.47646569E+04</pdfrwt>
<pdfrwt beam="2">  1       -2 0.41950628E+00 0.47646569E+04</pdfrwt>
<totfact> 0.24682808E-02</totfact>
</mgrwt>
</event>
<event>
 6    1  0.5040916E-004  0.7770115E+03  0.7818608E-02  0.9593901E-01
         -1   -1    0    0    0  501 -0.00000000000E+00  0.00000000000E+00  0.13554632019E+03  0.13554632019E+03  0.00000000000E+00 0. -1.
          1   -1    0    0  501    0  0.00000000000E+00 -0.00000000000E+00 -0.11135433917E+04  0.11135433917E+04  0.00000000000E+00 0.  1.
         23    2    1    2    0    0  0.27466213477E+03 -0.25547006908E+03 -0.61835077987E+03  0.72942664837E+03  0.94875201802E+02 0.  0.
         11    1    3    3    0    0  0.50936922533E+02 -0.10226672625E+03 -0.21375732234E+03  0.24237418639E+03  0.00000000000E+00 0.  1.
        -11    1    3    3    0    0  0.22372521224E+03 -0.15320334283E+03 -0.40459345753E+03  0.48705246198E+03  0.00000000000E+00 0. -1.
         22    1    1    2    0    0 -0.27466213477E+03  0.25547006908E+03 -0.35964629160E+03  0.51966306347E+03  0.00000000000E+00 0.  1.
<mgrwt>
<rscale>  0 0.77701148E+03</rscale>
<asrwt>0</asrwt>
<pdfrwt beam="1">  1        1 0.17131437E+00 0.77701148E+03</pdfrwt>
<pdfrwt beam="2">  1       -1 0.20853280E-01 0.77701148E+03</pdfrwt>
<totfact> 0.23880111E+02</totfact>
</mgrwt>
</event>
<event>
 6    1  0.5040916E-004  0.2971728E+04  0.7818608E-02  0.8251851E-01
          2   -1    0    0  501    0  0.00000000000E+00  0.00000000000E+00  0.15523072886E+04  0.15523072886E+04  0.00000000000E+00 0.  1.
         -2   -1    0    0    0  501 -0.00000000000E+00 -0.00000000000E+00 -0.14222642492E+04  0.14222642492E+04  0.00000000000E+00 0. -1.
         23    2    1    2    0    0  0.64194463397E+03  0.10918893574E+03  0.14004652314E+04  0.15469904779E+04  0.88665310960E+02 0.  0.
         11    1    3    3    0    0  0.17328174554E+03  0.69849262633E+02  0.39129776837E+03  0.43361206897E+03  0.00000000000E+00 0. -1.
        -11    1    3    3    0    0  0.46866288844E+03  0.39339673108E+02  0.10091674631E+04  0.11133784089E+04  0.00000000000E+00 0.  1.
         22    1    1    2    0    0 -0.64194463397E+03 -0.10918893574E+03 -0.12704221920E+04  0.14275810599E+04  0.00000000000E+00 0. -1.
<mgrwt>
<rscale>  0 0.29717276E+04</rscale>
<asrwt>0</asrwt>
<pdfrwt beam="1">  1        2 0.23881651E+00 0.29717276E+04</pdfrwt>
<pdfrwt beam="2">  1       -2 0.21880988E+00 0.29717276E+04</pdfrwt>
<totfact> 0.10235179E+00</totfact>
</mgrwt>
</event>
<event>
 6    1  0.5040916E-004  0.2458187E+04  0.7818608E-02  0.8418035E-01
         -1   -1    0    0    0  501 -0.00000000000E+00  0.00000000000E+00  0.44433266224E+03  0.44433266224E+03  0.00000000000E+00 0. -1.
          1   -1    0    0  501    0  0.00000000000E+00 -0.00000000000E+00 -0.33998648065E+04  0.33998648065E+04  0.00000000000E+00 0.  1.
         23    2    1    2    0    0 -0.83973069058E+03  0.61472417722E+03 -0.24976491200E+04  0.27072320732E+04  0.88435992808E+02 0.  0.
         13    1    3    3    0    0 -0.68269598744E+01  0.19441420813E+02 -0.53859255377E+02  0.57666243281E+02  0.00000000000E+00 0. -1.
        -13    1    3    3    0    0 -0.83290373070E+03  0.59528275640E+03 -0.24437898646E+04  0.26495658299E+04  0.00000000000E+00 0.  1.
         22    1    1    2    0    0  0.83973069058E+03 -0.61472417722E+03 -0.45788302428E+03  0.11369653956E+04  0.00000000000E+00 0. -1.
<mgrwt>
<rscale>  0 0.24581871E+04</rscale>
<asrwt>0</asrwt>
<pdfrwt beam="1">  1        1 0.52305614E+00 0.24581871E+04</pdfrwt>
<pdfrwt beam="2">  1       -1 0.68358869E-01 0.24581871E+04</pdfrwt>
<totfact> 0.57850219E-01</totfact>
</mgrwt>
</event>
<event>
 6    1  0.5040916E-004  0.2577288E+04  0.7818608E-02  0.8375957E-01
         -2   -1    0    0    0  501 -0.00000000000E+00  0.00000000000E+00  0.11900843638E+04  0.11900843638E+04  0.00000000000E+00 0. -1.
          2   -1    0    0  501    0  0.00000000000E+00 -0.00000000000E+00 -0.13953655932E+04  0.13953655932E+04  0.00000000000E+00 0.  1.
         23    2    1    2    0    0  0.22045505318E+03  0.82598852800E+02 -0.13719354448E+04  0.13952797762E+04  0.95790335669E+02 0.  0.
         13    1    3    3    0    0  0.68743133465E+02  0.46988264174E+02 -0.72844685099E+03  0.73319051418E+03  0.00000000000E+00 0. -1.
        -13    1    3    3    0    0  0.15171191972E+03  0.35610588626E+02 -0.64348859377E+03  0.66208926204E+03  0.00000000000E+00 0.  1.
         22    1    1    2    0    0 -0.22045505318E+03 -0.82598852800E+02  0.11666542154E+04  0.11901701808E+04  0.00000000000E+00 0. -1.
<mgrwt>
<rscale>  0 0.25772875E+04</rscale>
<asrwt>0</asrwt>
<pdfrwt beam="1">  1        2 0.21467163E+00 0.25772875E+04</pdfrwt>
<pdfrwt beam="2">  1       -2 0.18308990E+00 0.25772875E+04</pdfrwt>
<totfact> 0.22280716E+00</totfact>
</mgrwt>
</event>
<event>
 6    1  0.5040916E-004  0.4270471E+03  0.7818608E-02  0.1034797E+00
         -2   -1    0    0    0  501 -0.00000000000E+00  0.00000000000E+00  0.17027823019E+03  0.17027823019E+03  0.00000000000E+00 0. -1.
          2   -1    0    0  501    0  0.00000000000E+00 -0.00000000000E+00 -0.26775181656E+03  0.26775181656E+03  0.00000000000E+00 0.  1.
         23    2    1    2    0    0 -0.61772255756E+02 -0.16560388472E+03  0.52341245949E+02  0.20632993411E+03  0.92692920272E+02 0.  0.
         13    1    3    3    0    0 -0.60297528077E+02 -0.17419905450E+03  0.36021292333E+02  0.18782607908E+03  0.00000000000E+00 0.  1.
        -13    1    3    3    0    0 -0.14747276791E+01  0.85951697774E+01  0.16319953616E+02  0.18503855038E+02  0.00000000000E+00 0. -1.
         22    1    1    2    0    0  0.61772255756E+02  0.16560388472E+03 -0.14981483232E+03  0.23170011264E+03  0.00000000000E+00 0.  1.
<mgrwt>
<rscale>  0 0.42704710E+03</rscale>
<asrwt>0</asrwt>
<pdfrwt beam="1">  1        2 0.41192587E-01 0.42704710E+03</pdfrwt>
<pdfrwt beam="2">  1       -2 0.26196651E-01 0.42704710E+03</pdfrwt>
<totfact> 0.16296912E+03</totfact>
</mgrwt>
</event>
<event>
 6    1  0.5040916E-004  0.2187143E+04  0.7818608E-02  0.8523798E-01
         -2   -1    0    0    0  501 -0.00000000000E+00  0.00000000000E+00  0.71801754476E+03  0.71801754476E+03  0.00000000000E+00 0. -1.
          2   -1    0    0  501    0  0.00000000000E+00 -0.00000000000E+00 -0.16655568079E+04  0.16655568079E+04  0.00000000000E+00 0.  1.
         23    2    1    2    0    0  0.96056136538E+02  0.88774185232E+02 -0.16556939437E+04  0.16634419419E+04  0.92784813316E+02 0.  0.
         11    1    3    3    0    0 -0.77319940855E+01  0.46766972826E+02 -0.41191529133E+03  0.41463374285E+03  0.00000000000E+00 0. -1.
        -11    1    3    3    0    0  0.10378813062E+03  0.42007212406E+02 -0.12437786524E+04  0.12488081991E+04  0.00000000000E+00 0.  1.
         22    1    1    2    0    0 -0.96056136538E+02 -0.88774185232E+02  0.70815468059E+03  0.72013241072E+03  0.00000000000E+00 0. -1.
<mgrwt>
<rscale>  0 0.21871434E+04</rscale>
<asrwt>0</asrwt>
<pdfrwt beam="1">  1        2 0.25623951E+00 0.21871434E+04</pdfrwt>
<pdfrwt beam="2">  1       -2 0.11046424E+00 0.21871434E+04</pdfrwt>
<totfact> 0.60999944E+00</totfact>
</mgrwt>
</event>
<event>
 6    1  0.5040916E-004  0.1675850E+04  0.7818608E-02  0.8775259E-01
         -2   -1    0    0    0  501 -0.00000000000E+00  0.00000000000E+00  0.53869618156E+03  0.53869618156E+03  0.00000000000E+00 0. -1.
          2   -1    0    0  501    0  0.00000000000E+00 -0.00000000000E+00 -0.13033663476E+04  0.13033663476E+04  0.00000000000E+00 0.  1.
         23    2    1    2    0    0  0.80902395874E+03 -0.17563215206E+03 -0.50657725591E+03  0.97489566576E+03  0.91840210538E+02 0.  0.
         13    1    3    3    0    0  0.65828463141E+03 -0.10923053910E+03 -0.38742665137E+03  0.77160182530E+03  0.00000000000E+00 0.  1.
        -13    1    3    3    0    0  0.15073932733E+03 -0.66401612957E+02 -0.11915060453E+03  0.20329384046E+03  0.00000000000E+00 0. -1.
         22    1    1    2    0    0 -0.80902395874E+03  0.17563215206E+03 -0.25809291009E+03  0.86716686335E+03  0.00000000000E+00 0. -1.
<mgrwt>
<rscale>  0 0.16758502E+04</rscale>
<asrwt>0</asrwt>
<pdfrwt beam="1">  1        2 0.20051790E+00 0.16758502E+04</pdfrwt>
<pdfrwt beam="2">  1       -2 0.82876337E-01 0.16758502E+04</pdfrwt>
<totfact> 0.20024723E+01</totfact>
</mgrwt>
</event>
<event>
 6    1  0.5040916E-004  0.4383498E+04  0.7818608E-02  0.7931356E-01
         -2   -1    0    0    0  501 -0.00000000000E+00  0.00000000000E+00  0.34150033399E+04  0.34150033399E+04  0.00000000000E+00 0. -1.
          2   -1    0    0  501    0  0.00000000000E+00 -0.00000000000E+00 -0.14066644008E+04  0.14066644008E+04  0.00000000000E+00 0.  1.
         23    2    1    2    0    0  0.73184541972E+03 -0.11754918246E+04 -0.86272166244E+03  0.16341345683E+04  0.93425758543E+02 0.  0.
         11    1    3    3    0    0  0.70311481052E+03 -0.10854615795E+04 -0.80045608092E+03  0.15209625948E+04  0.00000000000E+00 0.  1.
        -11    1    3    3    0    0  0.28730609202E+02 -0.90030245089E+02 -0.62265581522E+02  0.11317197347E+03  0.00000000000E+00 0. -1.
         22    1    1    2    0    0 -0.73184541972E+03  0.11754918246E+04  0.28710606015E+04  0.31875331724E+04  0.00000000000E+00 0. -1.
<mgrwt>
<rscale>  0 0.43834980E+04</rscale>
<asrwt>0</asrwt>
<pdfrwt beam="1">  1        2 0.21640991E+00 0.43834980E+04</pdfrwt>
<pdfrwt beam="2">  1       -2 0.52538513E+00 0.43834980E+04</pdfrwt>
<totfact> 0.12809833E-02</totfact>
</mgrwt>
</event>
<event>
 6    1  0.5040916E-004  0.2665991E+04  0.7818608E-02  0.8346125E-01
         -2   -1    0    0    0  501 -0.00000000000E+00  0.00000000000E+00  0.61151399987E+03  0.61151399987E+03  0.00000000000E+00 0. -1.
          2   -1    0    0  501    0  0.00000000000E+00 -0.00000000000E+00 -0.29057013374E+04  0.29057013374E+04  0.00000000000E+00 0.  1.
         23    2    1    2    0    0 -0.11147776584E+04  0.46522165304E+03 -0.40967404902E+03  0.12787893839E+04  0.91153978616E+02 0.  0.
         11    1    3    3    0    0 -0.90007594874E+03  0.39651857474E+03 -0.36427336266E+03  0.10488368683E+04  0.00000000000E+00 0. -1.
        -11    1    3    3    0    0 -0.21470170966E+03  0.68703078300E+02 -0.45400686364E+02  0.22995251558E+03  0.00000000000E+00 0.  1.
         22    1    1    2    0    0  0.11147776584E+04 -0.46522165304E+03 -0.18845132885E+04  0.22384259534E+04  0.00000000000E+00 0.  1.
<mgrwt>
<rscale>  0 0.26659910E+04</rscale>
<asrwt>0</asrwt>
<pdfrwt beam="1">  1        2 0.44703097E+00 0.26659910E+04</pdfrwt>
<pdfrwt beam="2">  1       -2 0.94079078E-01 0.26659910E+04</pdfrwt>
<totfact> 0.16712055E+00</totfact>
</mgrwt>
</event>
<event>
 6    1  0.7622461E-004  0.4470944E+04  0.7818608E-02  0.7915743E-01
         -2   -1    0    0    0  501 -0.00000000000E+00  0.00000000000E+00  0.18155338220E+04  0.18155338220E+04  0.00000000000E+00 0. -1.
          2   -1    0    0  501    0  0.00000000000E+00 -0.00000000000E+00 -0.27525433607E+04  0.27525433607E+04  0.00000000000E+00 0.  1.
         23    2    1    2    0    0 -0.63893712010E+03  0.12478953359E+04 -0.22465301212E+04  0.26496591968E+04  0.91174891306E+02 0.  0.
         11    1    3    3    0    0 -0.38776201066E+03  0.67224439655E+03 -0.11972409858E+04  0.14267648312E+04  0.00000000000E+00 0. -1.
        -11    1    3    3    0    0 -0.25117510945E+03  0.57565093936E+03 -0.10492891354E+04  0.12228943655E+04  0.00000000000E+00 0.  1.
         22    1    1    2    0    0  0.63893712010E+03 -0.12478953359E+04  0.13095205824E+04  0.19184179859E+04  0.00000000000E+00 0. -1.
<mgrwt>
<rscale>  0 0.44709442E+04</rscale>
<asrwt>0</asrwt>
<pdfrwt beam="1">  1        2 0.42346821E+00 0.44709442E+04</pdfrwt>
<pdfrwt beam="2">  1       -2 0.27931289E+00 0.44709442E+04</pdfrwt>
<totfact> 0.79752903E-02</totfact>
</mgrwt>
</event>
<event>
 6    1  0.5040916E-004  0.2721245E+04  0.7818608E-02  0.8328144E-01
         -2   -1    0    0    0  501 -0.00000000000E+00  0.00000000000E+00  0.73288146822E+03  0.73288146822E+03  0.00000000000E+00 0. -1.
          2   -1    0    0  501    0  0.00000000000E+00 -0.00000000000E+00 -0.25260486549E+04  0.25260486549E+04  0.00000000000E+00 0.  1.
         23    2    1    2    0    0  0.21545590439E+03  0.10389970334E+04  0.11938347589E+03  0.10717433183E+04  0.91898007627E+02 0.  0.
         11    1    3    3    0    0  0.19899393366E+03  0.91049162461E+03  0.75832658211E+02  0.93506372840E+03  0.00000000000E+00 0. -1.
        -11    1    3    3    0    0  0.16461970726E+02  0.12850540883E+03  0.43550817681E+02  0.13667958992E+03  0.00000000000E+00 0.  1.
         22    1    1    2    0    0 -0.21545590439E+03 -0.10389970334E+04 -0.19125506626E+04  0.21871868048E+04  0.00000000000E+00 0.  1.
<mgrwt>
<rscale>  0 0.27212455E+04</rscale>
<asrwt>0</asrwt>
<pdfrwt beam="1">  1        2 0.38862287E+00 0.27212455E+04</pdfrwt>
<pdfrwt beam="2">  1       -2 0.11275099E+00 0.27212455E+04</pdfrwt>
<totfact> 0.18213074E+00</totfact>
</mgrwt>
</event>
<event>
 6    1  0.5040916E-004  0.1735740E+04  0.7818608E-02  0.8741239E-01
          2   -1    0    0  501    0  0.00000000000E+00  0.00000000000E+00  0.11111028222E+04  0.11111028222E+04  0.00000000000E+00 0.  1.
         -2   -1    0    0    0  501 -0.00000000000E+00 -0.00000000000E+00 -0.67788356058E+03  0.67788356058E+03  0.00000000000E+00 0. -1.
         23    2    1    2    0    0  0.61759249431E+03  0.60469169176E+03  0.19117181510E+03  0.89140101217E+03  0.10476912952E+03 0.  0.
         13    1    3    3    0    0  0.27913135795E+03  0.22629271075E+03  0.39245016355E+02  0.36147320405E+03  0.00000000000E+00 0.  1.
        -13    1    3    3    0    0  0.33846113635E+03  0.37839898101E+03  0.15192679874E+03  0.52992780813E+03  0.00000000000E+00 0. -1.
         22    1    1    2    0    0 -0.61759249431E+03 -0.60469169176E+03  0.24204744648E+03  0.89758537057E+03  0.00000000000E+00 0.  1.
<mgrwt>
<rscale>  0 0.17357400E+04</rscale>
<asrwt>0</asrwt>
<pdfrwt beam="1">  1        2 0.17093890E+00 0.17357400E+04</pdfrwt>
<pdfrwt beam="2">  1       -2 0.10428978E+00 0.17357400E+04</pdfrwt>
<totfact> 0.15206761E+01</totfact>
</mgrwt>
</event>
<event>
 6    1  0.5040916E-004  0.1975059E+04  0.7818608E-02  0.8618371E-01
         -2   -1    0    0    0  501 -0.00000000000E+00  0.00000000000E+00  0.54816256884E+03  0.54816256884E+03  0.00000000000E+00 0. -1.
          2   -1    0    0  501    0  0.00000000000E+00 -0.00000000000E+00 -0.17790600411E+04  0.17790600411E+04  0.00000000000E+00 0.  1.
         23    2    1    2    0    0  0.16718227006E+03 -0.80791578275E+03  0.18071337782E+02  0.83035891813E+03  0.92149531891E+02 0.  0.
         11    1    3    3    0    0  0.21443163064E+02 -0.30401236808E+03 -0.11349707913E+02  0.30497892560E+03  0.00000000000E+00 0.  1.
        -11    1    3    3    0    0  0.14573910700E+03 -0.50390341466E+03  0.29421045695E+02  0.52537999253E+03  0.00000000000E+00 0. -1.
         22    1    1    2    0    0 -0.16718227006E+03  0.80791578275E+03 -0.12489688100E+04  0.14968636918E+04  0.00000000000E+00 0. -1.
<mgrwt>
<rscale>  0 0.19750586E+04</rscale>
<asrwt>0</asrwt>
<pdfrwt beam="1">  1        2 0.27370154E+00 0.19750586E+04</pdfrwt>
<pdfrwt beam="2">  1       -2 0.84332703E-01 0.19750586E+04</pdfrwt>
<totfact> 0.10120979E+01</totfact>
</mgrwt>
</event>
<event>
 6    1  0.5040916E-004  0.2434274E+04  0.7818608E-02  0.8426782E-01
          2   -1    0    0  501    0  0.00000000000E+00  0.00000000000E+00  0.97620577445E+03  0.97620577445E+03  0.00000000000E+00 0.  1.
         -2   -1    0    0    0  501 -0.00000000000E+00 -0.00000000000E+00 -0.15175312574E+04  0.15175312574E+04  0.00000000000E+00 0. -1.
         23    2    1    2    0    0  0.10463071980E+04 -0.25140119778E+03 -0.84897290200E+03  0.13745372064E+04  0.10313209277E+03 0.  0.
         11    1    3    3    0    0  0.70837111047E+03 -0.13965566816E+03 -0.61658929325E+03  0.94946073766E+03  0.00000000000E+00 0. -1.
        -11    1    3    3    0    0  0.33793608758E+03 -0.11174552963E+03 -0.23238360874E+03  0.42507646876E+03  0.00000000000E+00 0.  1.
         22    1    1    2    0    0 -0.10463071980E+04  0.25140119778E+03  0.30764741901E+03  0.11191998255E+04  0.00000000000E+00 0. -1.
<mgrwt>
<rscale>  0 0.24342742E+04</rscale>
<asrwt>0</asrwt>
<pdfrwt beam="1">  1        2 0.15018550E+00 0.24342742E+04</pdfrwt>
<pdfrwt beam="2">  1       -2 0.23346635E+00 0.24342742E+04</pdfrwt>
<totfact> 0.19031178E+00</totfact>
</mgrwt>
</event>
<event>
 6    1  0.5040916E-004  0.5543009E+03  0.7818608E-02  0.1000503E+00
         -2   -1    0    0    0  501 -0.00000000000E+00  0.00000000000E+00  0.62243168091E+02  0.62243168091E+02  0.00000000000E+00 0. -1.
          2   -1    0    0  501    0  0.00000000000E+00 -0.00000000000E+00 -0.12340692874E+04  0.12340692874E+04  0.00000000000E+00 0.  1.
         23    2    1    2    0    0  0.20716319529E+02 -0.24978137057E+03 -0.83470387098E+03  0.87622757205E+03  0.90687963998E+02 0.  0.
         11    1    3    3    0    0  0.50003802335E+02 -0.12768853857E+03 -0.36104537147E+03  0.38621043926E+03  0.00000000000E+00 0. -1.
        -11    1    3    3    0    0 -0.29287482806E+02 -0.12209283200E+03 -0.47365849950E+03  0.49001713279E+03  0.00000000000E+00 0.  1.
         22    1    1    2    0    0 -0.20716319529E+02  0.24978137057E+03 -0.33712224833E+03  0.42008488345E+03  0.00000000000E+00 0.  1.
<mgrwt>
<rscale>  0 0.55430094E+03</rscale>
<asrwt>0</asrwt>
<pdfrwt beam="1">  1        2 0.18985680E+00 0.55430094E+03</pdfrwt>
<pdfrwt beam="2">  1       -2 0.95758729E-02 0.55430094E+03</pdfrwt>
<totfact> 0.13481947E+03</totfact>
</mgrwt>
</event>
<event>
 6    1  0.5040916E-004  0.1202846E+04  0.7818608E-02  0.9110369E-01
          2   -1    0    0  501    0  0.00000000000E+00  0.00000000000E+00  0.73405321877E+03  0.73405321877E+03  0.00000000000E+00 0. -1.
         -2   -1    0    0    0  501 -0.00000000000E+00 -0.00000000000E+00 -0.49275651379E+03  0.49275651379E+03  0.00000000000E+00 0.  1.
         23    2    1    2    0    0  0.67959036738E+02 -0.54327044598E+03  0.36688526715E+03  0.66508587237E+03  0.89292834115E+02 0.  0.
         13    1    3    3    0    0  0.39176000087E-01 -0.34123511870E+03  0.21417183852E+03  0.40287837394E+03  0.00000000000E+00 0.  1.
        -13    1    3    3    0    0  0.67919860738E+02 -0.20203532728E+03  0.15271342863E+03  0.26220749843E+03  0.00000000000E+00 0. -1.
         22    1    1    2    0    0 -0.67959036738E+02  0.54327044598E+03 -0.12558856217E+03  0.56172386018E+03  0.00000000000E+00 0.  1.
<mgrwt>
<rscale>  0 0.12028458E+04</rscale>
<asrwt>0</asrwt>
<pdfrwt beam="1">  1        2 0.11293126E+00 0.12028458E+04</pdfrwt>
<pdfrwt beam="2">  1       -2 0.75808695E-01 0.12028458E+04</pdfrwt>
<totfact> 0.59341832E+01</totfact>
</mgrwt>
</event>
<event>
 6    1  0.5040916E-004  0.1317405E+04  0.7818608E-02  0.9015876E-01
          2   -1    0    0  501    0  0.00000000000E+00  0.00000000000E+00  0.25925246070E+04  0.25925246070E+04  0.00000000000E+00 0.  1.
         -2   -1    0    0    0  501 -0.00000000000E+00 -0.00000000000E+00 -0.16736148946E+03  0.16736148946E+03  0.00000000000E+00 0. -1.
         23    2    1    2    0    0  0.42989400016E+03  0.33701196563E+03  0.45892551893E+03  0.71918126465E+03  0.90681548016E+02 0.  0.
         13    1    3    3    0    0  0.42497854517E+02  0.74336378428E+02  0.74213323671E+02  0.11331188025E+03  0.00000000000E+00 0.  1.
        -13    1    3    3    0    0  0.38739614564E+03  0.26267558720E+03  0.38471219525E+03  0.60586938440E+03  0.00000000000E+00 0. -1.
         22    1    1    2    0    0 -0.42989400016E+03 -0.33701196563E+03  0.19662375986E+04  0.20407048318E+04  0.00000000000E+00 0.  1.
<mgrwt>
<rscale>  0 0.13174047E+04</rscale>
<asrwt>0</asrwt>
<pdfrwt beam="1">  1        2 0.39884991E+00 0.13174047E+04</pdfrwt>
<pdfrwt beam="2">  1       -2 0.25747923E-01 0.13174047E+04</pdfrwt>
<totfact> 0.41148873E+01</totfact>
</mgrwt>
</event>
<event>
 6    1  0.5040916E-004  0.2803322E+04  0.7818608E-02  0.8302238E-01
          2   -1    0    0  501    0  0.00000000000E+00  0.00000000000E+00  0.24200676459E+04  0.24200676459E+04  0.00000000000E+00 0.  1.
         -2   -1    0    0    0  501 -0.00000000000E+00 -0.00000000000E+00 -0.81181757939E+03  0.81181757939E+03  0.00000000000E+00 0. -1.
         23    2    1    2    0    0 -0.13934387992E+04  0.11621547733E+03  0.88861265327E+03  0.16592900038E+04  0.91832156007E+02 0.  0.
         11    1    3    3    0    0 -0.50643277936E+03  0.65528142925E+01  0.29067485455E+03  0.58395973359E+03  0.00000000000E+00 0.  1.
        -11    1    3    3    0    0 -0.88700601981E+03  0.10966266304E+03  0.59793779871E+03  0.10753302702E+04  0.00000000000E+00 0. -1.
         22    1    1    2    0    0  0.13934387992E+04 -0.11621547733E+03  0.71963741325E+03  0.15725952215E+04  0.00000000000E+00 0. -1.
<mgrwt>
<rscale>  0 0.28033219E+04</rscale>
<asrwt>0</asrwt>
<pdfrwt beam="1">  1        2 0.37231810E+00 0.28033219E+04</pdfrwt>
<pdfrwt beam="2">  1       -2 0.12489501E+00 0.28033219E+04</pdfrwt>
<totfact> 0.16179223E+00</totfact>
</mgrwt>
</event>
<event>
 6    1  0.5040916E-004  0.4471337E+04  0.7818608E-02  0.7915674E-01
          2   -1    0    0  501    0  0.00000000000E+00  0.00000000000E+00  0.34165538971E+04  0.34165538971E+04  0.00000000000E+00 0. -1.
         -2   -1    0    0    0  501 -0.00000000000E+00 -0.00000000000E+00 -0.14629397695E+04  0.14629397695E+04  0.00000000000E+00 0.  1.
         23    2    1    2    0    0 -0.13848115864E+04 -0.17441972417E+04  0.77540158368E+03  0.23599476864E+04  0.90434059158E+02 0.  0.
         11    1    3    3    0    0 -0.53396248242E+03 -0.60338395113E+03  0.28687460160E+03  0.85526905834E+03  0.00000000000E+00 0. -1.
        -11    1    3    3    0    0 -0.85084910394E+03 -0.11408132905E+04  0.48852698208E+03  0.15046786281E+04  0.00000000000E+00 0.  1.
         22    1    1    2    0    0  0.13848115864E+04  0.17441972417E+04  0.11782125440E+04  0.25195459802E+04  0.00000000000E+00 0. -1.
<mgrwt>
<rscale>  0 0.44713365E+04</rscale>
<asrwt>0</asrwt>
<pdfrwt beam="1">  1        2 0.52562367E+00 0.44713365E+04</pdfrwt>
<pdfrwt beam="2">  1       -2 0.22506766E+00 0.44713365E+04</pdfrwt>
<totfact> 0.64662395E-02</totfact>
</mgrwt>
</event>
<event>
 6    1  0.5040916E-004  0.2514756E+04  0.7818608E-02  0.8397747E-01
         -1   -1    0    0    0  501 -0.00000000000E+00  0.00000000000E+00  0.77079687803E+03  0.77079687803E+03  0.00000000000E+00 0. -1.
          1   -1    0    0  501    0  0.00000000000E+00 -0.00000000000E+00 -0.20511232775E+04  0.20511232775E+04  0.00000000000E+00 0.  1.
         23    2    1    2    0    0  0.51367383861E+03  0.30335729812E+03 -0.18807214206E+04  0.19755392459E+04  0.98771390451E+02 0.  0.
         11    1    3    3    0    0  0.23776782778E+03  0.87508871691E+02 -0.73332780109E+03  0.77586146083E+03  0.00000000000E+00 0. -1.
        -11    1    3    3    0    0  0.27590601084E+03  0.21584842643E+03 -0.11473936195E+04  0.11996777851E+04  0.00000000000E+00 0.  1.
         22    1    1    2    0    0 -0.51367383861E+03 -0.30335729812E+03  0.60039502110E+03  0.84638090962E+03  0.00000000000E+00 0. -1.
<mgrwt>
<rscale>  0 0.25147560E+04</rscale>
<asrwt>0</asrwt>
<pdfrwt beam="1">  1        1 0.31555742E+00 0.25147560E+04</pdfrwt>
<pdfrwt beam="2">  1       -1 0.11858414E+00 0.25147560E+04</pdfrwt>
<totfact> 0.15553928E+00</totfact>
</mgrwt>
</event>
<event>
 6    1  0.5040916E-004  0.3711455E+04  0.7818608E-02  0.8065428E-01
          2   -1    0    0  501    0  0.00000000000E+00  0.00000000000E+00  0.26098763403E+04  0.26098763403E+04  0.00000000000E+00 0.  1.
         -2   -1    0    0    0  501 -0.00000000000E+00 -0.00000000000E+00 -0.13194974616E+04  0.13194974616E+04  0.00000000000E+00 0. -1.
         23    2    1    2    0    0  0.72681493109E+03 -0.25257838128E+02  0.24517861902E+04  0.25590582012E+04  0.92873313955E+02 0.  0.
         11    1    3    3    0    0  0.65966855630E+03 -0.23532215784E+02  0.21139991533E+04  0.22146577138E+04  0.00000000000E+00 0. -1.
        -11    1    3    3    0    0  0.67146374794E+02 -0.17256223448E+01  0.33778703690E+03  0.34440048740E+03  0.00000000000E+00 0.  1.
         22    1    1    2    0    0 -0.72681493109E+03  0.25257838128E+02 -0.11614073115E+04  0.13703156007E+04  0.00000000000E+00 0. -1.
<mgrwt>
<rscale>  0 0.37114554E+04</rscale>
<asrwt>0</asrwt>
<pdfrwt beam="1">  1        2 0.40151944E+00 0.37114554E+04</pdfrwt>
<pdfrwt beam="2">  1       -2 0.20299961E+00 0.37114554E+04</pdfrwt>
<totfact> 0.30823806E-01</totfact>
</mgrwt>
</event>
<event>
 6    1  0.5040916E-004  0.1201654E+04  0.7818608E-02  0.9111410E-01
          2   -1    0    0  501    0  0.00000000000E+00  0.00000000000E+00  0.30687345998E+04  0.30687345998E+04  0.00000000000E+00 0.  1.
         -2   -1    0    0    0  501 -0.00000000000E+00 -0.00000000000E+00 -0.11763587029E+03  0.11763587029E+03  0.00000000000E+00 0. -1.
         23    2    1    2    0    0  0.20554651291E+03  0.55863785382E+03  0.13495205969E+04  0.14777516901E+04  0.90656468477E+02 0.  0.
         13    1    3    3    0    0  0.19238158951E+03  0.41550733121E+03  0.10008726206E+04  0.11006375520E+04  0.00000000000E+00 0. -1.
        -13    1    3    3    0    0  0.13164923404E+02  0.14313052262E+03  0.34864797637E+03  0.37711413808E+03  0.00000000000E+00 0.  1.
         22    1    1    2    0    0 -0.20554651291E+03 -0.55863785382E+03  0.16015781325E+04  0.17086187800E+04  0.00000000000E+00 0.  1.
<mgrwt>
<rscale>  0 0.12016543E+04</rscale>
<asrwt>0</asrwt>
<pdfrwt beam="1">  1        2 0.47211295E+00 0.12016543E+04</pdfrwt>
<pdfrwt beam="2">  1       -2 0.18097829E-01 0.12016543E+04</pdfrwt>
<totfact> 0.40197265E+01</totfact>
</mgrwt>
</event>
<event>
 6    1  0.5040916E-004  0.1392372E+04  0.7818608E-02  0.8959359E-01
          1   -1    0    0  501    0  0.00000000000E+00  0.00000000000E+00  0.19621087364E+04  0.19621087364E+04  0.00000000000E+00 0.  1.
         -1   -1    0    0    0  501 -0.00000000000E+00 -0.00000000000E+00 -0.24701740219E+03  0.24701740219E+03  0.00000000000E+00 0. -1.
         23    2    1    2    0    0 -0.13093177345E+03 -0.42919449850E+03  0.21461251622E+02  0.45706052808E+03  0.84218134446E+02 0.  0.
         11    1    3    3    0    0 -0.42755573629E+02 -0.26564848533E+03  0.31980619212E+02  0.27096109839E+03  0.00000000000E+00 0. -1.
        -11    1    3    3    0    0 -0.88176199820E+02 -0.16354601317E+03 -0.10519367590E+02  0.18609942970E+03  0.00000000000E+00 0.  1.
         22    1    1    2    0    0  0.13093177345E+03  0.42919449850E+03  0.16936300825E+04  0.17520656105E+04  0.00000000000E+00 0.  1.
<mgrwt>
<rscale>  0 0.13923721E+04</rscale>
<asrwt>0</asrwt>
<pdfrwt beam="1">  1        1 0.30186287E+00 0.13923721E+04</pdfrwt>
<pdfrwt beam="2">  1       -1 0.38002678E-01 0.13923721E+04</pdfrwt>
<totfact> 0.20647233E+01</totfact>
</mgrwt>
</event>
<event>
 6    1  0.5040916E-004  0.3163500E+04  0.7818608E-02  0.8198524E-01
          2   -1    0    0  501    0  0.00000000000E+00  0.00000000000E+00  0.19347688777E+04  0.19347688777E+04  0.00000000000E+00 0.  1.
         -2   -1    0    0    0  501 -0.00000000000E+00 -0.00000000000E+00 -0.12931432955E+04  0.12931432955E+04  0.00000000000E+00 0. -1.
         23    2    1    2    0    0 -0.13497382868E+04 -0.71203617259E+03 -0.98204600033E+02  0.15319942352E+04  0.92591787503E+02 0.  0.
         11    1    3    3    0    0 -0.46207931182E+03 -0.28824020053E+03 -0.55508238928E+02  0.54743115384E+03  0.00000000000E+00 0.  1.
        -11    1    3    3    0    0 -0.88765897503E+03 -0.42379597206E+03 -0.42696361105E+02  0.98456308134E+03  0.00000000000E+00 0. -1.
         22    1    1    2    0    0  0.13497382868E+04  0.71203617259E+03  0.73983018221E+03  0.16959179380E+04  0.00000000000E+00 0.  1.
<mgrwt>
<rscale>  0 0.31635002E+04</rscale>
<asrwt>0</asrwt>
<pdfrwt beam="1">  1        2 0.29765675E+00 0.31635002E+04</pdfrwt>
<pdfrwt beam="2">  1       -2 0.19894512E+00 0.31635002E+04</pdfrwt>
<totfact> 0.82910311E-01</totfact>
</mgrwt>
</event>
<event>
 6    1  0.5040916E-004  0.3799791E+04  0.7818608E-02  0.8046200E-01
          2   -1    0    0  501    0  0.00000000000E+00  0.00000000000E+00  0.43270900436E+04  0.43270900436E+04  0.00000000000E+00 0.  1.
         -2   -1    0    0    0  501 -0.00000000000E+00 -0.00000000000E+00 -0.83418698120E+03  0.83418698120E+03  0.00000000000E+00 0. -1.
         23    2    1    2    0    0  0.21846739631E+03  0.79124953005E+03 -0.57851282049E+03  0.10079372706E+04  0.86351815527E+02 0.  0.
         13    1    3    3    0    0  0.67029602268E+02  0.34491580947E+03 -0.20712027003E+03  0.40787092254E+03  0.00000000000E+00 0. -1.
        -13    1    3    3    0    0  0.15143779404E+03  0.44633372058E+03 -0.37139255046E+03  0.60006634811E+03  0.00000000000E+00 0.  1.
         22    1    1    2    0    0 -0.21846739631E+03 -0.79124953005E+03  0.40714158828E+04  0.41533397541E+04  0.00000000000E+00 0.  1.
<mgrwt>
<rscale>  0 0.37997906E+04</rscale>
<asrwt>0</asrwt>
<pdfrwt beam="1">  1        2 0.66570615E+00 0.37997906E+04</pdfrwt>
<pdfrwt beam="2">  1       -2 0.12833646E+00 0.37997906E+04</pdfrwt>
<totfact> 0.64159412E-02</totfact>
</mgrwt>
</event>
<event>
 6    1  0.5040916E-004  0.7919202E+03  0.7818608E-02  0.9571786E-01
          2   -1    0    0  501    0  0.00000000000E+00  0.00000000000E+00  0.16430010475E+04  0.16430010475E+04  0.00000000000E+00 0.  1.
         -2   -1    0    0    0  501 -0.00000000000E+00 -0.00000000000E+00 -0.95425624817E+02  0.95425624817E+02  0.00000000000E+00 0. -1.
         23    2    1    2    0    0  0.39000658358E+03 -0.22262078910E+02  0.80539903606E+03  0.89972140571E+03  0.90720809071E+02 0.  0.
         11    1    3    3    0    0  0.32591470925E+02  0.13955624847E+02  0.12970832728E+03  0.13446640326E+03  0.00000000000E+00 0.  1.
        -11    1    3    3    0    0  0.35741511266E+03 -0.36217703757E+02  0.67569070879E+03  0.76525500244E+03  0.00000000000E+00 0. -1.
         22    1    1    2    0    0 -0.39000658358E+03  0.22262078910E+02  0.74217638666E+03  0.83870526665E+03  0.00000000000E+00 0.  1.
<mgrwt>
<rscale>  0 0.79192020E+03</rscale>
<asrwt>0</asrwt>
<pdfrwt beam="1">  1        2 0.25276937E+00 0.79192020E+03</pdfrwt>
<pdfrwt beam="2">  1       -2 0.14680867E-01 0.79192020E+03</pdfrwt>
<totfact> 0.38823099E+02</totfact>
</mgrwt>
</event>
<event>
 6    1  0.5040916E-004  0.2052148E+04  0.7818608E-02  0.8582620E-01
         -2   -1    0    0    0  501 -0.00000000000E+00  0.00000000000E+00  0.10601112086E+04  0.10601112086E+04  0.00000000000E+00 0. -1.
          2   -1    0    0  501    0  0.00000000000E+00 -0.00000000000E+00 -0.99312996001E+03  0.99312996001E+03  0.00000000000E+00 0.  1.
         23    2    1    2    0    0  0.63553337734E+03 -0.81528587842E+02  0.83273806419E+03  0.10547758037E+04  0.92464739796E+02 0.  0.
         13    1    3    3    0    0  0.29258336036E+03  0.97695339483E-01  0.42183871326E+03  0.51337406665E+03  0.00000000000E+00 0. -1.
        -13    1    3    3    0    0  0.34295001698E+03 -0.81626283182E+02  0.41089935093E+03  0.54140173702E+03  0.00000000000E+00 0.  1.
         22    1    1    2    0    0 -0.63553337734E+03  0.81528587842E+02 -0.76575681560E+03  0.99846536494E+03  0.00000000000E+00 0.  1.
<mgrwt>
<rscale>  0 0.20521483E+04</rscale>
<asrwt>0</asrwt>
<pdfrwt beam="1">  1        2 0.15278923E+00 0.20521483E+04</pdfrwt>
<pdfrwt beam="2">  1       -2 0.16309403E+00 0.20521483E+04</pdfrwt>
<totfact> 0.56263624E+00</totfact>
</mgrwt>
</event>
<event>
 6    1  0.5040916E-004  0.4007214E+04  0.7818608E-02  0.8003093E-01
         -2   -1    0    0    0  501 -0.00000000000E+00  0.00000000000E+00  0.15575511385E+04  0.15575511385E+04  0.00000000000E+00 0. -1.
          2   -1    0    0  501    0  0.00000000000E+00 -0.00000000000E+00 -0.25774061674E+04  0.25774061674E+04  0.00000000000E+00 0.  1.
         23    2    1    2    0    0  0.15670838885E+04 -0.10803125199E+04  0.13189904169E+03  0.19102405837E+04  0.93779935223E+02 0.  0.
         11    1    3    3    0    0  0.68717759368E+03 -0.42747754638E+03  0.29539219425E+02  0.80982878647E+03  0.00000000000E+00 0. -1.
        -11    1    3    3    0    0  0.87990629486E+03 -0.65283497350E+03  0.10235982226E+03  0.11004117973E+04  0.00000000000E+00 0.  1.
         22    1    1    2    0    0 -0.15670838885E+04  0.10803125199E+04 -0.11517540706E+04  0.22247167221E+04  0.00000000000E+00 0.  1.
<mgrwt>
<rscale>  0 0.40072144E+04</rscale>
<asrwt>0</asrwt>
<pdfrwt beam="1">  1        2 0.39652402E+00 0.40072144E+04</pdfrwt>
<pdfrwt beam="2">  1       -2 0.23962325E+00 0.40072144E+04</pdfrwt>
<totfact> 0.18422150E-01</totfact>
</mgrwt>
</event>
<event>
 6    1  0.5040916E-004  0.8753889E+03  0.7818608E-02  0.9456880E-01
          2   -1    0    0  501    0  0.00000000000E+00  0.00000000000E+00  0.15467915249E+04  0.15467915249E+04  0.00000000000E+00 0.  1.
         -2   -1    0    0    0  501 -0.00000000000E+00 -0.00000000000E+00 -0.12385408446E+03  0.12385408446E+03  0.00000000000E+00 0. -1.
         23    2    1    2    0    0 -0.21922830471E+03  0.30345204285E+03  0.11341655724E+04  0.11978524372E+04  0.91513516960E+02 0.  0.
         11    1    3    3    0    0 -0.50850235887E+02  0.73680222246E+02  0.41029637956E+03  0.41994956926E+03  0.00000000000E+00 0. -1.
        -11    1    3    3    0    0 -0.16837806883E+03  0.22977182060E+03  0.72386919281E+03  0.77790286791E+03  0.00000000000E+00 0.  1.
         22    1    1    2    0    0  0.21922830471E+03 -0.30345204285E+03  0.28877186809E+03  0.47279317222E+03  0.00000000000E+00 0. -1.
<mgrwt>
<rscale>  0 0.87538894E+03</rscale>
<asrwt>0</asrwt>
<pdfrwt beam="1">  1        2 0.23796791E+00 0.87538894E+03</pdfrwt>
<pdfrwt beam="2">  1       -2 0.19054476E-01 0.87538894E+03</pdfrwt>
<totfact> 0.27916624E+02</totfact>
</mgrwt>
</event>
<event>
 6    1  0.5040916E-004  0.2206041E+04  0.7818608E-02  0.8515918E-01
         -2   -1    0    0    0  501 -0.00000000000E+00  0.00000000000E+00  0.36795626663E+03  0.36795626663E+03  0.00000000000E+00 0. -1.
          2   -1    0    0  501    0  0.00000000000E+00 -0.00000000000E+00 -0.33065177207E+04  0.33065177207E+04  0.00000000000E+00 0.  1.
         23    2    1    2    0    0  0.98093967910E+03 -0.24743093638E+03 -0.74759490392E+03  0.12612191010E+04  0.91163359698E+02 0.  0.
         13    1    3    3    0    0  0.32706457809E+03 -0.87303041289E+02 -0.19800566551E+03  0.39217254217E+03  0.00000000000E+00 0. -1.
        -13    1    3    3    0    0  0.65387510101E+03 -0.16012789510E+03 -0.54958923840E+03  0.86904655886E+03  0.00000000000E+00 0.  1.
         22    1    1    2    0    0 -0.98093967910E+03  0.24743093638E+03 -0.21909665501E+04  0.24132548863E+04  0.00000000000E+00 0.  1.
<mgrwt>
<rscale>  0 0.22060407E+04</rscale>
<asrwt>0</asrwt>
<pdfrwt beam="1">  1        2 0.50869505E+00 0.22060407E+04</pdfrwt>
<pdfrwt beam="2">  1       -2 0.56608655E-01 0.22060407E+04</pdfrwt>
<totfact> 0.29563921E+00</totfact>
</mgrwt>
</event>
<event>
 6    1  0.5040916E-004  0.3296159E+04  0.7818608E-02  0.8163873E-01
         -2   -1    0    0    0  501 -0.00000000000E+00  0.00000000000E+00  0.19019475143E+04  0.19019475143E+04  0.00000000000E+00 0. -1.
          2   -1    0    0  501    0  0.00000000000E+00 -0.00000000000E+00 -0.14280973632E+04  0.14280973632E+04  0.00000000000E+00 0.  1.
         23    2    1    2    0    0  0.85012781703E+03 -0.36331376906E+03  0.16139301167E+04  0.18622245451E+04  0.91627696783E+02 0.  0.
         11    1    3    3    0    0  0.39823691349E+03 -0.18965430624E+03  0.85418123059E+03  0.96134643591E+03  0.00000000000E+00 0.  1.
        -11    1    3    3    0    0  0.45189090354E+03 -0.17365946282E+03  0.75974888610E+03  0.90087810922E+03  0.00000000000E+00 0. -1.
         22    1    1    2    0    0 -0.85012781703E+03  0.36331376906E+03 -0.11400799657E+04  0.14678203324E+04  0.00000000000E+00 0.  1.
<mgrwt>
<rscale>  0 0.32961591E+04</rscale>
<asrwt>0</asrwt>
<pdfrwt beam="1">  1        2 0.21970729E+00 0.32961591E+04</pdfrwt>
<pdfrwt beam="2">  1       -2 0.29260731E+00 0.32961591E+04</pdfrwt>
<totfact> 0.41090422E-01</totfact>
</mgrwt>
</event>
<event>
 6    1  0.5040916E-004  0.2969444E+04  0.7818608E-02  0.8252510E-01
          2   -1    0    0  501    0  0.00000000000E+00  0.00000000000E+00  0.17399388291E+04  0.17399388291E+04  0.00000000000E+00 0.  1.
         -2   -1    0    0    0  501 -0.00000000000E+00 -0.00000000000E+00 -0.12669410161E+04  0.12669410161E+04  0.00000000000E+00 0. -1.
         23    2    1    2    0    0  0.17087764210E+03 -0.14411866650E+04 -0.73110958792E+02  0.14562499853E+04  0.95397250660E+02 0.  0.
         11    1    3    3    0    0  0.12098772671E+03 -0.11469170463E+04 -0.22362946819E+02  0.11534976561E+04  0.00000000000E+00 0.  1.
        -11    1    3    3    0    0  0.49889915394E+02 -0.29426961866E+03 -0.50748011973E+02  0.30275232921E+03  0.00000000000E+00 0. -1.
         22    1    1    2    0    0 -0.17087764210E+03  0.14411866650E+04  0.54610877175E+03  0.15506298599E+04  0.00000000000E+00 0.  1.
<mgrwt>
<rscale>  0 0.29694443E+04</rscale>
<asrwt>0</asrwt>
<pdfrwt beam="1">  1        2 0.26768290E+00 0.29694443E+04</pdfrwt>
<pdfrwt beam="2">  1       -2 0.19491400E+00 0.29694443E+04</pdfrwt>
<totfact> 0.11492574E+00</totfact>
</mgrwt>
</event>
<event>
 6    1  0.5040916E-004  0.2259783E+04  0.7818608E-02  0.8493949E-01
          1   -1    0    0  501    0  0.00000000000E+00  0.00000000000E+00  0.10105867580E+04  0.10105867580E+04  0.00000000000E+00 0.  1.
         -1   -1    0    0    0  501 -0.00000000000E+00 -0.00000000000E+00 -0.12632812134E+04  0.12632812134E+04  0.00000000000E+00 0. -1.
         23    2    1    2    0    0  0.10037004027E+04 -0.50579060901E+03 -0.21863581919E+03  0.11494131572E+04  0.10055021676E+03 0.  0.
         13    1    3    3    0    0  0.19945453269E+03 -0.80642159766E+02 -0.61794393201E+01  0.21522884104E+03  0.00000000000E+00 0.  1.
        -13    1    3    3    0    0  0.80424586997E+03 -0.42514844924E+03 -0.21245637987E+03  0.93418431618E+03  0.00000000000E+00 0. -1.
         22    1    1    2    0    0 -0.10037004027E+04  0.50579060901E+03 -0.34058636175E+02  0.11244548142E+04  0.00000000000E+00 0. -1.
<mgrwt>
<rscale>  0 0.22597834E+04</rscale>
<asrwt>0</asrwt>
<pdfrwt beam="1">  1        1 0.15547489E+00 0.22597834E+04</pdfrwt>
<pdfrwt beam="2">  1       -1 0.19435096E+00 0.22597834E+04</pdfrwt>
<totfact> 0.22180560E+00</totfact>
</mgrwt>
</event>
<event>
 6    1  0.5040916E-004  0.1673058E+04  0.7818608E-02  0.8776881E-01
         -2   -1    0    0    0  501 -0.00000000000E+00  0.00000000000E+00  0.21698653970E+04  0.21698653970E+04  0.00000000000E+00 0. -1.
          2   -1    0    0  501    0  0.00000000000E+00 -0.00000000000E+00 -0.32249963737E+03  0.32249963737E+03  0.00000000000E+00 0.  1.
         23    2    1    2    0    0 -0.64751590975E+03 -0.35868061282E+03  0.35396493564E+03  0.82557930834E+03  0.91440599885E+02 0.  0.
         13    1    3    3    0    0 -0.12490464570E+03 -0.84119684770E+02  0.35109560619E+02  0.15462850038E+03  0.00000000000E+00 0.  1.
        -13    1    3    3    0    0 -0.52261126406E+03 -0.27456092804E+03  0.31885537502E+03  0.67095080796E+03  0.00000000000E+00 0. -1.
         22    1    1    2    0    0  0.64751590975E+03  0.35868061282E+03  0.14934008240E+04  0.16667857260E+04  0.00000000000E+00 0.  1.
<mgrwt>
<rscale>  0 0.16730580E+04</rscale>
<asrwt>0</asrwt>
<pdfrwt beam="1">  1        2 0.49615330E-01 0.16730580E+04</pdfrwt>
<pdfrwt beam="2">  1       -2 0.33382544E+00 0.16730580E+04</pdfrwt>
<totfact> 0.19055611E+00</totfact>
</mgrwt>
</event>
<event>
 6    1  0.5040916E-004  0.2305327E+04  0.7818608E-02  0.8475824E-01
          2   -1    0    0  501    0  0.00000000000E+00  0.00000000000E+00  0.13043858711E+04  0.13043858711E+04  0.00000000000E+00 0.  1.
         -2   -1    0    0    0  501 -0.00000000000E+00 -0.00000000000E+00 -0.10185893704E+04  0.10185893704E+04  0.00000000000E+00 0. -1.
         23    2    1    2    0    0 -0.91692247512E+03  0.63966368684E+03 -0.13102831652E+03  0.11298032564E+04  0.96801451010E+02 0.  0.
         13    1    3    3    0    0 -0.24118182477E+03  0.12775599695E+03 -0.57107067760E+02  0.27883953189E+03  0.00000000000E+00 0. -1.
        -13    1    3    3    0    0 -0.67574065035E+03  0.51190768989E+03 -0.73921248760E+02  0.85096372456E+03  0.00000000000E+00 0.  1.
         22    1    1    2    0    0  0.91692247512E+03 -0.63966368684E+03  0.41682481726E+03  0.11931719851E+04  0.00000000000E+00 0.  1.
<mgrwt>
<rscale>  0 0.23053274E+04</rscale>
<asrwt>0</asrwt>
<pdfrwt beam="1">  1        2 0.20067475E+00 0.23053274E+04</pdfrwt>
<pdfrwt beam="2">  1       -2 0.15670606E+00 0.23053274E+04</pdfrwt>
<totfact> 0.39699309E+00</totfact>
</mgrwt>
</event>
<event>
 6    1  0.5040916E-004  0.2406070E+04  0.7818608E-02  0.8437235E-01
         -1   -1    0    0    0  501 -0.00000000000E+00  0.00000000000E+00  0.12586774759E+04  0.12586774759E+04  0.00000000000E+00 0. -1.
          1   -1    0    0  501    0  0.00000000000E+00 -0.00000000000E+00 -0.11498522894E+04  0.11498522894E+04  0.00000000000E+00 0.  1.
         23    2    1    2    0    0 -0.49760847122E+03 -0.15718966961E+03 -0.10286292004E+04  0.11570804994E+04  0.91839355723E+02 0.  0.
         11    1    3    3    0    0 -0.28391359637E+03 -0.10255565320E+03 -0.68751528160E+03  0.75086740151E+03  0.00000000000E+00 0.  1.
        -11    1    3    3    0    0 -0.21369487484E+03 -0.54634016418E+02 -0.34111391883E+03  0.40621309790E+03  0.00000000000E+00 0. -1.
         22    1    1    2    0    0  0.49760847122E+03  0.15718966961E+03  0.11374543869E+04  0.12514492659E+04  0.00000000000E+00 0. -1.
<mgrwt>
<rscale>  0 0.24060700E+04</rscale>
<asrwt>0</asrwt>
<pdfrwt beam="1">  1        1 0.17690035E+00 0.24060700E+04</pdfrwt>
<pdfrwt beam="2">  1       -1 0.19364269E+00 0.24060700E+04</pdfrwt>
<totfact> 0.17363362E+00</totfact>
</mgrwt>
</event>
<event>
 6    1  0.5040916E-004  0.1622679E+04  0.7818608E-02  0.8806735E-01
         -2   -1    0    0    0  501 -0.00000000000E+00  0.00000000000E+00  0.46950255739E+03  0.46950255739E+03  0.00000000000E+00 0. -1.
          2   -1    0    0  501    0  0.00000000000E+00 -0.00000000000E+00 -0.14020626116E+04  0.14020626116E+04  0.00000000000E+00 0.  1.
         23    2    1    2    0    0  0.73456440238E+03  0.16798443315E+03 -0.12891368711E+03  0.76990682159E+03  0.91291534018E+02 0.  0.
         11    1    3    3    0    0  0.66152816576E+03  0.14881624792E+03 -0.14330410007E+03  0.69303813375E+03  0.00000000000E+00 0.  1.
        -11    1    3    3    0    0  0.73036236624E+02  0.19168185232E+02  0.14390412962E+02  0.76868687841E+02  0.00000000000E+00 0. -1.
         22    1    1    2    0    0 -0.73456440238E+03 -0.16798443315E+03 -0.80364636712E+03  0.11016583474E+04  0.00000000000E+00 0. -1.
<mgrwt>
<rscale>  0 0.16226792E+04</rscale>
<asrwt>0</asrwt>
<pdfrwt beam="1">  1        2 0.21570194E+00 0.16226792E+04</pdfrwt>
<pdfrwt beam="2">  1       -2 0.72231163E-01 0.16226792E+04</pdfrwt>
<totfact> 0.23971591E+01</totfact>
</mgrwt>
</event>
<event>
 6    1  0.5040916E-004  0.1002625E+04  0.7818608E-02  0.9305670E-01
          2   -1    0    0  501    0  0.00000000000E+00  0.00000000000E+00  0.16341657678E+04  0.16341657678E+04  0.00000000000E+00 0. -1.
         -2   -1    0    0    0  501 -0.00000000000E+00 -0.00000000000E+00 -0.15378761997E+03  0.15378761997E+03  0.00000000000E+00 0.  1.
         23    2    1    2    0    0  0.19954423215E+03 -0.45512764961E+03  0.77129559026E+03  0.92206820399E+03  0.91399164246E+02 0.  0.
         13    1    3    3    0    0  0.81151027719E+02 -0.24004435162E+03  0.31856444676E+03  0.40705047203E+03  0.00000000000E+00 0.  1.
        -13    1    3    3    0    0  0.11839320444E+03 -0.21508329799E+03  0.45273114350E+03  0.51501773196E+03  0.00000000000E+00 0. -1.
         22    1    1    2    0    0 -0.19954423215E+03  0.45512764961E+03  0.70908255756E+03  0.86588518376E+03  0.00000000000E+00 0.  1.
<mgrwt>
<rscale>  0 0.10026255E+04</rscale>
<asrwt>0</asrwt>
<pdfrwt beam="1">  1        2 0.25141011E+00 0.10026255E+04</pdfrwt>
<pdfrwt beam="2">  1       -2 0.23659635E-01 0.10026255E+04</pdfrwt>
<totfact> 0.16883515E+02</totfact>
</mgrwt>
</event>
<event>
 6    1  0.5040916E-004  0.1687036E+04  0.7818608E-02  0.8768793E-01
          2   -1    0    0  501    0  0.00000000000E+00  0.00000000000E+00  0.14583852514E+04  0.14583852514E+04  0.00000000000E+00 0.  1.
         -2   -1    0    0    0  501 -0.00000000000E+00 -0.00000000000E+00 -0.48788406656E+03  0.48788406656E+03  0.00000000000E+00 0. -1.
         23    2    1    2    0    0  0.63167968535E+03  0.49984845545E+03  0.76562151945E+03  0.11150994313E+04  0.91666391307E+02 0.  0.
         11    1    3    3    0    0  0.17670173679E+03  0.14304048189E+03  0.16147323775E+03  0.27885065852E+03  0.00000000000E+00 0. -1.
        -11    1    3    3    0    0  0.45497794856E+03  0.35680797356E+03  0.60414828170E+03  0.83624877276E+03  0.00000000000E+00 0.  1.
         22    1    1    2    0    0 -0.63167968535E+03 -0.49984845545E+03  0.20487966543E+03  0.83116988673E+03  0.00000000000E+00 0. -1.
<mgrwt>
<rscale>  0 0.16870364E+04</rscale>
<asrwt>0</asrwt>
<pdfrwt beam="1">  1        2 0.22436696E+00 0.16870364E+04</pdfrwt>
<pdfrwt beam="2">  1       -2 0.75059088E-01 0.16870364E+04</pdfrwt>
<totfact> 0.20348407E+01</totfact>
</mgrwt>
</event>
<event>
 6    1  0.5040916E-004  0.4067813E+04  0.7818608E-02  0.7991005E-01
          2   -1    0    0  501    0  0.00000000000E+00  0.00000000000E+00  0.37532094936E+04  0.37532094936E+04  0.00000000000E+00 0.  1.
         -2   -1    0    0    0  501 -0.00000000000E+00 -0.00000000000E+00 -0.11021968996E+04  0.11021968996E+04  0.00000000000E+00 0. -1.
         23    2    1    2    0    0 -0.83148209241E+03 -0.75866705499E+03 -0.69442247101E+03  0.13256933816E+04  0.91116428659E+02 0.  0.
         13    1    3    3    0    0 -0.42606764201E+03 -0.39973059216E+03 -0.41290360002E+03  0.71540727197E+03  0.00000000000E+00 0. -1.
        -13    1    3    3    0    0 -0.40541445039E+03 -0.35893646283E+03 -0.28151887099E+03  0.61028610967E+03  0.00000000000E+00 0.  1.
         22    1    1    2    0    0  0.83148209241E+03  0.75866705499E+03  0.33454350649E+04  0.35297130116E+04  0.00000000000E+00 0.  1.
<mgrwt>
<rscale>  0 0.40678131E+04</rscale>
<asrwt>0</asrwt>
<pdfrwt beam="1">  1        2 0.57741684E+00 0.40678131E+04</pdfrwt>
<pdfrwt beam="2">  1       -2 0.16956876E+00 0.40678131E+04</pdfrwt>
<totfact> 0.89483037E-02</totfact>
</mgrwt>
</event>
<event>
 6    1  0.5040916E-004  0.1335466E+04  0.7818608E-02  0.9001904E-01
          2   -1    0    0  501    0  0.00000000000E+00  0.00000000000E+00  0.13330960842E+04  0.13330960842E+04  0.00000000000E+00 0.  1.
         -2   -1    0    0    0  501 -0.00000000000E+00 -0.00000000000E+00 -0.33445997968E+03  0.33445997968E+03  0.00000000000E+00 0. -1.
         23    2    1    2    0    0 -0.10931401522E+03 -0.43222677710E+03 -0.11355363150E+03  0.46933423563E+03  0.92793624483E+02 0.  0.
         11    1    3    3    0    0 -0.13664048546E+02 -0.24263531792E+03 -0.58559075205E+02  0.24997553683E+03  0.00000000000E+00 0. -1.
        -11    1    3    3    0    0 -0.95649966670E+02 -0.18959145918E+03 -0.54994556300E+02  0.21935869880E+03  0.00000000000E+00 0.  1.
         22    1    1    2    0    0  0.10931401522E+03  0.43222677710E+03  0.11121897360E+04  0.11982218282E+04  0.00000000000E+00 0.  1.
<mgrwt>
<rscale>  0 0.13354659E+04</rscale>
<asrwt>0</asrwt>
<pdfrwt beam="1">  1        2 0.20509170E+00 0.13354659E+04</pdfrwt>
<pdfrwt beam="2">  1       -2 0.51455382E-01 0.13354659E+04</pdfrwt>
<totfact> 0.55161809E+01</totfact>
</mgrwt>
</event>
<event>
 6    1  0.5040916E-004  0.1883081E+04  0.7818608E-02  0.8663324E-01
          2   -1    0    0  501    0  0.00000000000E+00  0.00000000000E+00  0.16392360199E+04  0.16392360199E+04  0.00000000000E+00 0. -1.
         -2   -1    0    0    0  501 -0.00000000000E+00 -0.00000000000E+00 -0.54079982200E+03  0.54079982200E+03  0.00000000000E+00 0.  1.
         23    2    1    2    0    0  0.15164653523E+03 -0.46602307635E+03  0.14782679041E+04  0.15599985008E+04  0.90250465883E+02 0.  0.
         13    1    3    3    0    0  0.57471429156E+02 -0.14127564078E+03  0.59459308079E+03  0.61384257230E+03  0.00000000000E+00 0. -1.
        -13    1    3    3    0    0  0.94175106069E+02 -0.32474743557E+03  0.88367482335E+03  0.94615592845E+03  0.00000000000E+00 0.  1.
         22    1    1    2    0    0 -0.15164653523E+03  0.46602307635E+03 -0.37983170624E+03  0.62003734114E+03  0.00000000000E+00 0.  1.
<mgrwt>
<rscale>  0 0.18830810E+04</rscale>
<asrwt>0</asrwt>
<pdfrwt beam="1">  1        2 0.25219015E+00 0.18830810E+04</pdfrwt>
<pdfrwt beam="2">  1       -2 0.83199973E-01 0.18830810E+04</pdfrwt>
<totfact> 0.12578027E+01</totfact>
</mgrwt>
</event>
<event>
 6    1  0.5040916E-004  0.3372696E+04  0.7818608E-02  0.8144640E-01
          2   -1    0    0  501    0  0.00000000000E+00  0.00000000000E+00  0.15171328138E+04  0.15171328138E+04  0.00000000000E+00 0.  1.
         -2   -1    0    0    0  501 -0.00000000000E+00 -0.00000000000E+00 -0.18744369273E+04  0.18744369273E+04  0.00000000000E+00 0. -1.
         23    2    1    2    0    0 -0.10768013496E+04  0.10668796430E+04 -0.91902860279E+03  0.17750092811E+04  0.91164993255E+02 0.  0.
         11    1    3    3    0    0 -0.57249952400E+03  0.54591237225E+03 -0.42924844258E+03  0.90001680462E+03  0.00000000000E+00 0.  1.
        -11    1    3    3    0    0 -0.50430182559E+03  0.52096727078E+03 -0.48978016021E+03  0.87499247646E+03  0.00000000000E+00 0. -1.
         22    1    1    2    0    0  0.10768013496E+04 -0.10668796430E+04  0.56172448929E+03  0.16165604601E+04  0.00000000000E+00 0.  1.
<mgrwt>
<rscale>  0 0.33726961E+04</rscale>
<asrwt>0</asrwt>
<pdfrwt beam="1">  1        2 0.23340505E+00 0.33726961E+04</pdfrwt>
<pdfrwt beam="2">  1       -2 0.28837491E+00 0.33726961E+04</pdfrwt>
<totfact> 0.38583658E-01</totfact>
</mgrwt>
</event>
<event>
 6    1  0.5040916E-004  0.3056368E+04  0.7818608E-02  0.8227815E-01
          2   -1    0    0  501    0  0.00000000000E+00  0.00000000000E+00  0.33231415850E+04  0.33231415850E+04  0.00000000000E+00 0.  1.
         -2   -1    0    0    0  501 -0.00000000000E+00 -0.00000000000E+00 -0.70275244525E+03  0.70275244525E+03  0.00000000000E+00 0. -1.
         23    2    1    2    0    0 -0.66690845960E+03 -0.98774741832E+03  0.54095129925E+02  0.11963575310E+04  0.89068529524E+02 0.  0.
         11    1    3    3    0    0 -0.61089268620E+03 -0.92386846231E+03  0.70543590588E+02  0.11098194483E+04  0.00000000000E+00 0. -1.
        -11    1    3    3    0    0 -0.56015773405E+02 -0.63878956012E+02 -0.16448460663E+02  0.86538082655E+02  0.00000000000E+00 0.  1.
         22    1    1    2    0    0  0.66690845960E+03  0.98774741832E+03  0.25662940099E+04  0.28295364993E+04  0.00000000000E+00 0.  1.
<mgrwt>
<rscale>  0 0.30563677E+04</rscale>
<asrwt>0</asrwt>
<pdfrwt beam="1">  1        2 0.51125254E+00 0.30563677E+04</pdfrwt>
<pdfrwt beam="2">  1       -2 0.10811576E+00 0.30563677E+04</pdfrwt>
<totfact> 0.62685191E-01</totfact>
</mgrwt>
</event>
<event>
 6    1  0.5040916E-004  0.9884976E+03  0.7818608E-02  0.9321251E-01
          2   -1    0    0  501    0  0.00000000000E+00  0.00000000000E+00  0.14934749899E+04  0.14934749899E+04  0.00000000000E+00 0.  1.
         -2   -1    0    0    0  501 -0.00000000000E+00 -0.00000000000E+00 -0.16356610211E+03  0.16356610211E+03  0.00000000000E+00 0. -1.
         23    2    1    2    0    0  0.43015556411E+02  0.24879479040E+03 -0.33050361988E+02  0.27089279461E+03  0.92419661977E+02 0.  0.
         13    1    3    3    0    0  0.11534981383E+02  0.22002909956E+03 -0.60389262226E+01  0.22041399475E+03  0.00000000000E+00 0. -1.
        -13    1    3    3    0    0  0.31480575028E+02  0.28765690836E+02 -0.27011435765E+02  0.50478799862E+02  0.00000000000E+00 0.  1.
         22    1    1    2    0    0 -0.43015556411E+02 -0.24879479040E+03  0.13629592498E+04  0.13861482974E+04  0.00000000000E+00 0.  1.
<mgrwt>
<rscale>  0 0.98849761E+03</rscale>
<asrwt>0</asrwt>
<pdfrwt beam="1">  1        2 0.22976537E+00 0.98849761E+03</pdfrwt>
<pdfrwt beam="2">  1       -2 0.25164017E-01 0.98849761E+03</pdfrwt>
<totfact> 0.18114976E+02</totfact>
</mgrwt>
</event>
<event>
 6    1  0.5040916E-004  0.5583782E+04  0.7818608E-02  0.7744265E-01
         -2   -1    0    0    0  501 -0.00000000000E+00  0.00000000000E+00  0.30122405561E+04  0.30122405561E+04  0.00000000000E+00 0. -1.
          2   -1    0    0  501    0  0.00000000000E+00 -0.00000000000E+00 -0.25876607136E+04  0.25876607136E+04  0.00000000000E+00 0.  1.
         23    2    1    2    0    0  0.38740037091E+03  0.24072213056E+03  0.29739643895E+04  0.30100387714E+04  0.88560846801E+02 0.  0.
         13    1    3    3    0    0  0.13870136386E+03  0.38869384749E+02  0.97037923110E+03  0.98101210469E+03  0.00000000000E+00 0.  1.
        -13    1    3    3    0    0  0.24869900705E+03  0.20185274582E+03  0.20035851584E+04  0.20290266667E+04  0.00000000000E+00 0. -1.
         22    1    1    2    0    0 -0.38740037091E+03 -0.24072213056E+03 -0.25493845471E+04  0.25898624983E+04  0.00000000000E+00 0.  1.
<mgrwt>
<rscale>  0 0.55837824E+04</rscale>
<asrwt>0</asrwt>
<pdfrwt beam="1">  1        2 0.39810165E+00 0.55837824E+04</pdfrwt>
<pdfrwt beam="2">  1       -2 0.46342162E+00 0.55837824E+04</pdfrwt>
<totfact> 0.61233329E-03</totfact>
</mgrwt>
</event>
<event>
 6    1  0.5040916E-004  0.7454952E+03  0.7818608E-02  0.9642444E-01
          2   -1    0    0  501    0  0.00000000000E+00  0.00000000000E+00  0.20801794822E+04  0.20801794822E+04  0.00000000000E+00 0.  1.
         -2   -1    0    0    0  501 -0.00000000000E+00 -0.00000000000E+00 -0.66792687485E+02  0.66792687485E+02  0.00000000000E+00 0. -1.
         23    2    1    2    0    0  0.26782153039E+03  0.22445321035E+03  0.70228130497E+03  0.79009884434E+03  0.94601991245E+02 0.  0.
         13    1    3    3    0    0  0.22573919038E+03  0.21353013433E+03  0.65982782884E+03  0.72933261551E+03  0.00000000000E+00 0. -1.
        -13    1    3    3    0    0  0.42082340017E+02  0.10923076023E+02  0.42453476128E+02  0.60766228832E+02  0.00000000000E+00 0.  1.
         22    1    1    2    0    0 -0.26782153039E+03 -0.22445321035E+03  0.13111054898E+04  0.13568733254E+04  0.00000000000E+00 0.  1.
<mgrwt>
<rscale>  0 0.74549521E+03</rscale>
<asrwt>0</asrwt>
<pdfrwt beam="1">  1        2 0.32002756E+00 0.74549521E+03</pdfrwt>
<pdfrwt beam="2">  1       -2 0.10275800E-01 0.74549521E+03</pdfrwt>
<totfact> 0.40609052E+02</totfact>
</mgrwt>
</event>
<event>
 6    1  0.5040916E-004  0.8738517E+03  0.7818608E-02  0.9458872E-01
          2   -1    0    0  501    0  0.00000000000E+00  0.00000000000E+00  0.77809447228E+03  0.77809447228E+03  0.00000000000E+00 0.  1.
         -2   -1    0    0    0  501 -0.00000000000E+00 -0.00000000000E+00 -0.24534838187E+03  0.24534838187E+03  0.00000000000E+00 0. -1.
         23    2    1    2    0    0 -0.30117503101E+03  0.30862888381E+03  0.29726615320E+03  0.53210896761E+03  0.93886103031E+02 0.  0.
         11    1    3    3    0    0 -0.15993021324E+03  0.19818286876E+03  0.12589555890E+03  0.28408416768E+03  0.00000000000E+00 0. -1.
        -11    1    3    3    0    0 -0.14124481777E+03  0.11044601506E+03  0.17137059430E+03  0.24802479993E+03  0.00000000000E+00 0.  1.
         22    1    1    2    0    0  0.30117503101E+03 -0.30862888381E+03  0.23547993721E+03  0.49133388653E+03  0.00000000000E+00 0. -1.
<mgrwt>
<rscale>  0 0.87385175E+03</rscale>
<asrwt>0</asrwt>
<pdfrwt beam="1">  1        2 0.11970684E+00 0.87385175E+03</pdfrwt>
<pdfrwt beam="2">  1       -2 0.37745905E-01 0.87385175E+03</pdfrwt>
<totfact> 0.23740009E+02</totfact>
</mgrwt>
</event>
<event>
 6    1  0.5040916E-004  0.1152165E+04  0.7818608E-02  0.9155789E-01
          1   -1    0    0  501    0  0.00000000000E+00  0.00000000000E+00  0.19238658570E+04  0.19238658570E+04  0.00000000000E+00 0.  1.
         -1   -1    0    0    0  501 -0.00000000000E+00 -0.00000000000E+00 -0.17250209167E+03  0.17250209167E+03  0.00000000000E+00 0. -1.
         23    2    1    2    0    0  0.31654462387E+03 -0.33317854510E+03  0.26301146612E+03  0.53867702671E+03  0.98941730213E+02 0.  0.
         13    1    3    3    0    0  0.92054733494E+02 -0.12332933720E+03  0.40076579724E+02  0.15902934199E+03  0.00000000000E+00 0. -1.
        -13    1    3    3    0    0  0.22448989038E+03 -0.20984920790E+03  0.22293488639E+03  0.37964768472E+03  0.00000000000E+00 0.  1.
         22    1    1    2    0    0 -0.31654462387E+03  0.33317854510E+03  0.14883522992E+04  0.15576909220E+04  0.00000000000E+00 0.  1.
<mgrwt>
<rscale>  0 0.11521647E+04</rscale>
<asrwt>0</asrwt>
<pdfrwt beam="1">  1        1 0.29597935E+00 0.11521647E+04</pdfrwt>
<pdfrwt beam="2">  1       -1 0.26538785E-01 0.11521647E+04</pdfrwt>
<totfact> 0.42193289E+01</totfact>
</mgrwt>
</event>
<event>
 6    1  0.5040916E-004  0.1852977E+04  0.7818608E-02  0.8678623E-01
         -2   -1    0    0    0  501 -0.00000000000E+00  0.00000000000E+00  0.51461023171E+03  0.51461023171E+03  0.00000000000E+00 0. -1.
          2   -1    0    0  501    0  0.00000000000E+00 -0.00000000000E+00 -0.16680221281E+04  0.16680221281E+04  0.00000000000E+00 0.  1.
         23    2    1    2    0    0 -0.80576357055E+03 -0.79616231097E+02 -0.11029320590E+04  0.13713729131E+04  0.92794742142E+02 0.  0.
         13    1    3    3    0    0 -0.37741758088E+03 -0.32806770777E+02 -0.59401962276E+03  0.70454213982E+03  0.00000000000E+00 0.  1.
        -13    1    3    3    0    0 -0.42834598967E+03 -0.46809460321E+02 -0.50891243622E+03  0.66683077327E+03  0.00000000000E+00 0. -1.
         22    1    1    2    0    0  0.80576357055E+03  0.79616231097E+02 -0.50479837394E+02  0.81125944670E+03  0.00000000000E+00 0. -1.
<mgrwt>
<rscale>  0 0.18529773E+04</rscale>
<asrwt>0</asrwt>
<pdfrwt beam="1">  1        2 0.25661879E+00 0.18529773E+04</pdfrwt>
<pdfrwt beam="2">  1       -2 0.79170805E-01 0.18529773E+04</pdfrwt>
<totfact> 0.13591306E+01</totfact>
</mgrwt>
</event>
<event>
 6    1  0.5040916E-004  0.2273420E+04  0.7818608E-02  0.8488475E-01
          1   -1    0    0  501    0  0.00000000000E+00  0.00000000000E+00  0.59336505796E+03  0.59336505796E+03  0.00000000000E+00 0.  1.
         -1   -1    0    0    0  501 -0.00000000000E+00 -0.00000000000E+00 -0.21775966679E+04  0.21775966679E+04  0.00000000000E+00 0. -1.
         23    2    1    2    0    0  0.54357333620E+03 -0.60076839981E+03  0.17590282109E+03  0.83331680036E+03  0.84145381685E+02 0.  0.
         13    1    3    3    0    0  0.24590904612E+03 -0.25506955916E+03  0.11813879798E+03  0.37348161208E+03  0.00000000000E+00 0. -1.
        -13    1    3    3    0    0  0.29766429008E+03 -0.34569884065E+03  0.57764023109E+02  0.45983518828E+03  0.00000000000E+00 0.  1.
         22    1    1    2    0    0 -0.54357333620E+03  0.60076839981E+03 -0.17601344310E+04  0.19376449255E+04  0.00000000000E+00 0. -1.
<mgrwt>
<rscale>  0 0.22734201E+04</rscale>
<asrwt>0</asrwt>
<pdfrwt beam="1">  1        1 0.91286932E-01 0.22734201E+04</pdfrwt>
<pdfrwt beam="2">  1       -1 0.33501487E+00 0.22734201E+04</pdfrwt>
<totfact> 0.61567387E-01</totfact>
</mgrwt>
</event>
<event>
 6    1  0.5394287E-004  0.2949378E+04  0.7818608E-02  0.8258336E-01
         -2   -1    0    0    0  501 -0.00000000000E+00  0.00000000000E+00  0.89653203786E+03  0.89653203786E+03  0.00000000000E+00 0. -1.
          2   -1    0    0  501    0  0.00000000000E+00 -0.00000000000E+00 -0.24256882566E+04  0.24256882566E+04  0.00000000000E+00 0.  1.
         23    2    1    2    0    0 -0.39546419138E+03  0.32276063510E+03 -0.23222946413E+04  0.23790156976E+04  0.78082869820E+02 0.  0.
         11    1    3    3    0    0 -0.23148443758E+03  0.19045556216E+03 -0.11820320778E+04  0.12194499575E+04  0.00000000000E+00 0. -1.
        -11    1    3    3    0    0 -0.16397975379E+03  0.13230507294E+03 -0.11402625635E+04  0.11595657401E+04  0.00000000000E+00 0.  1.
         22    1    1    2    0    0  0.39546419138E+03 -0.32276063510E+03  0.79313842250E+03  0.94320459683E+03  0.00000000000E+00 0. -1.
<mgrwt>
<rscale>  0 0.29493777E+04</rscale>
<asrwt>0</asrwt>
<pdfrwt beam="1">  1        2 0.37318280E+00 0.29493777E+04</pdfrwt>
<pdfrwt beam="2">  1       -2 0.13792801E+00 0.29493777E+04</pdfrwt>
<totfact> 0.12329585E+00</totfact>
</mgrwt>
</event>
<event>
 6    1  0.5040916E-004  0.3375360E+04  0.7818608E-02  0.8143980E-01
          2   -1    0    0  501    0  0.00000000000E+00  0.00000000000E+00  0.16494278787E+04  0.16494278787E+04  0.00000000000E+00 0.  1.
         -2   -1    0    0    0  501 -0.00000000000E+00 -0.00000000000E+00 -0.17268192856E+04  0.17268192856E+04  0.00000000000E+00 0. -1.
         23    2    1    2    0    0 -0.10609131546E+03 -0.48637228671E+03 -0.16505529618E+04  0.17262015146E+04  0.87368305106E+02 0.  0.
         11    1    3    3    0    0 -0.56820011487E+02 -0.11996977293E+03 -0.35808679242E+03  0.38189973950E+03  0.00000000000E+00 0. -1.
        -11    1    3    3    0    0 -0.49271303972E+02 -0.36640251377E+03 -0.12924661694E+04  0.13443017751E+04  0.00000000000E+00 0.  1.
         22    1    1    2    0    0  0.10609131546E+03  0.48637228671E+03  0.15731615549E+04  0.16500456497E+04  0.00000000000E+00 0.  1.
<mgrwt>
<rscale>  0 0.33753601E+04</rscale>
<asrwt>0</asrwt>
<pdfrwt beam="1">  1        2 0.25375814E+00 0.33753601E+04</pdfrwt>
<pdfrwt beam="2">  1       -2 0.26566451E+00 0.33753601E+04</pdfrwt>
<totfact> 0.44750592E-01</totfact>
</mgrwt>
</event>
<event>
 6    1  0.5040916E-004  0.3579945E+04  0.7818608E-02  0.8095101E-01
          2   -1    0    0  501    0  0.00000000000E+00  0.00000000000E+00  0.23897456519E+04  0.23897456519E+04  0.00000000000E+00 0.  1.
         -2   -1    0    0    0  501 -0.00000000000E+00 -0.00000000000E+00 -0.13407293608E+04  0.13407293608E+04  0.00000000000E+00 0. -1.
         23    2    1    2    0    0 -0.31931483083E+03 -0.13459859323E+04  0.17059462584E+04  0.21990713843E+04  0.10964590892E+03 0.  0.
         13    1    3    3    0    0 -0.14184241421E+03 -0.77996550116E+03  0.10298551055E+04  0.12996411012E+04  0.00000000000E+00 0.  1.
        -13    1    3    3    0    0 -0.17747241662E+03 -0.56602043117E+03  0.67609115285E+03  0.89943028308E+03  0.00000000000E+00 0. -1.
         22    1    1    2    0    0  0.31931483083E+03  0.13459859323E+04 -0.65692996730E+03  0.15314036284E+04  0.00000000000E+00 0. -1.
<mgrwt>
<rscale>  0 0.35799453E+04</rscale>
<asrwt>0</asrwt>
<pdfrwt beam="1">  1        2 0.36765318E+00 0.35799453E+04</pdfrwt>
<pdfrwt beam="2">  1       -2 0.20626605E+00 0.35799453E+04</pdfrwt>
<totfact> 0.39819790E-01</totfact>
</mgrwt>
</event>
<event>
 6    1  0.5040916E-004  0.5007332E+04  0.7818608E-02  0.7827377E-01
         -2   -1    0    0    0  501 -0.00000000000E+00  0.00000000000E+00  0.19673817499E+04  0.19673817499E+04  0.00000000000E+00 0. -1.
          2   -1    0    0  501    0  0.00000000000E+00 -0.00000000000E+00 -0.31861352753E+04  0.31861352753E+04  0.00000000000E+00 0.  1.
         23    2    1    2    0    0  0.19185134245E+04 -0.32772152379E+03 -0.22290876327E+04  0.29606034005E+04  0.90805636589E+02 0.  0.
         11    1    3    3    0    0  0.15480485991E+04 -0.23037706822E+03 -0.18106532858E+04  0.23933226653E+04  0.00000000000E+00 0.  1.
        -11    1    3    3    0    0  0.37046482539E+03 -0.97344455567E+02 -0.41843434687E+03  0.56728073519E+03  0.00000000000E+00 0. -1.
         22    1    1    2    0    0 -0.19185134245E+04  0.32772152379E+03  0.10103341072E+04  0.21929136247E+04  0.00000000000E+00 0. -1.
<mgrwt>
<rscale>  0 0.50073324E+04</rscale>
<asrwt>0</asrwt>
<pdfrwt beam="1">  1        2 0.49017465E+00 0.50073324E+04</pdfrwt>
<pdfrwt beam="2">  1       -2 0.30267412E+00 0.50073324E+04</pdfrwt>
<totfact> 0.29459008E-02</totfact>
</mgrwt>
</event>
<event>
 6    1  0.6249538E-004  0.2514781E+04  0.7818608E-02  0.8397739E-01
          1   -1    0    0  501    0  0.00000000000E+00  0.00000000000E+00  0.11058227349E+04  0.11058227349E+04  0.00000000000E+00 0.  1.
         -1   -1    0    0    0  501 -0.00000000000E+00 -0.00000000000E+00 -0.14297323859E+04  0.14297323859E+04  0.00000000000E+00 0. -1.
         23    2    1    2    0    0 -0.10105183277E+04  0.10928657302E+03 -0.90558208947E+03  0.13644728559E+04  0.92824608533E+02 0.  0.
         13    1    3    3    0    0 -0.56486573635E+03  0.19209931849E+02 -0.52835822688E+03  0.77369550697E+03  0.00000000000E+00 0.  1.
        -13    1    3    3    0    0 -0.44565259135E+03  0.90076641168E+02 -0.37722386259E+03  0.59077734890E+03  0.00000000000E+00 0. -1.
         22    1    1    2    0    0  0.10105183277E+04 -0.10928657302E+03  0.58167243839E+03  0.11710822649E+04  0.00000000000E+00 0.  1.
<mgrwt>
<rscale>  0 0.25147808E+04</rscale>
<asrwt>0</asrwt>
<pdfrwt beam="1">  1        1 0.17012657E+00 0.25147808E+04</pdfrwt>
<pdfrwt beam="2">  1       -1 0.21995883E+00 0.25147808E+04</pdfrwt>
<totfact> 0.12263192E+00</totfact>
</mgrwt>
</event>
<event>
 6    1  0.7010966E-004  0.3455631E+04  0.7818608E-02  0.8124386E-01
         -2   -1    0    0    0  501 -0.00000000000E+00  0.00000000000E+00  0.25266979719E+04  0.25266979719E+04  0.00000000000E+00 0. -1.
          2   -1    0    0  501    0  0.00000000000E+00 -0.00000000000E+00 -0.11815205591E+04  0.11815205591E+04  0.00000000000E+00 0.  1.
         23    2    1    2    0    0 -0.16418781642E+04  0.15332342526E+03  0.12382270976E+03  0.16561514538E+04  0.90739163092E+02 0.  0.
         11    1    3    3    0    0 -0.87296290985E+03  0.39207656951E+02  0.82203570846E+02  0.87770092252E+03  0.00000000000E+00 0. -1.
        -11    1    3    3    0    0 -0.76891525434E+03  0.11411576831E+03  0.41619138917E+02  0.77845053128E+03  0.00000000000E+00 0.  1.
         22    1    1    2    0    0  0.16418781642E+04 -0.15332342526E+03  0.12213547030E+04  0.20520670772E+04  0.00000000000E+00 0.  1.
<mgrwt>
<rscale>  0 0.34556305E+04</rscale>
<asrwt>0</asrwt>
<pdfrwt beam="1">  1        2 0.18177239E+00 0.34556305E+04</pdfrwt>
<pdfrwt beam="2">  1       -2 0.38872276E+00 0.34556305E+04</pdfrwt>
<totfact> 0.14076574E-01</totfact>
</mgrwt>
</event>
<event>
 6    1  0.5040916E-004  0.4718292E+04  0.7818608E-02  0.7873496E-01
         -1   -1    0    0    0  501 -0.00000000000E+00  0.00000000000E+00  0.25326008198E+04  0.25326008198E+04  0.00000000000E+00 0. -1.
          1   -1    0    0  501    0  0.00000000000E+00 -0.00000000000E+00 -0.21975708129E+04  0.21975708129E+04  0.00000000000E+00 0.  1.
         23    2    1    2    0    0 -0.61205721947E+03 -0.22023975638E+04  0.74873803947E+03  0.24071728370E+04  0.93291730020E+02 0.  0.
         13    1    3    3    0    0 -0.35968756810E+03 -0.12904655357E+04  0.39036171285E+03  0.13953704570E+04  0.00000000000E+00 0. -1.
        -13    1    3    3    0    0 -0.25236965137E+03 -0.91193202809E+03  0.35837632662E+03  0.10118023800E+04  0.00000000000E+00 0.  1.
         22    1    1    2    0    0  0.61205721947E+03  0.22023975638E+04 -0.41370803255E+03  0.23229987957E+04  0.00000000000E+00 0.  1.
<mgrwt>
<rscale>  0 0.47182919E+04</rscale>
<asrwt>0</asrwt>
<pdfrwt beam="1">  1        1 0.33808781E+00 0.47182919E+04</pdfrwt>
<pdfrwt beam="2">  1       -1 0.38963090E+00 0.47182919E+04</pdfrwt>
<totfact> 0.13592040E-02</totfact>
</mgrwt>
</event>
<event>
 6    1  0.5040916E-004  0.2241500E+04  0.7818608E-02  0.8501351E-01
         -2   -1    0    0    0  501 -0.00000000000E+00  0.00000000000E+00  0.56890481447E+03  0.56890481447E+03  0.00000000000E+00 0. -1.
          2   -1    0    0  501    0  0.00000000000E+00 -0.00000000000E+00 -0.22078915935E+04  0.22078915935E+04  0.00000000000E+00 0.  1.
         23    2    1    2    0    0  0.70722331071E+03 -0.17218211212E+03 -0.18735811529E+04  0.20120441533E+04  0.90575092474E+02 0.  0.
         11    1    3    3    0    0  0.38288570420E+03 -0.67899306954E+02 -0.89399876381E+03  0.97490797927E+03  0.00000000000E+00 0. -1.
        -11    1    3    3    0    0  0.32433760652E+03 -0.10428280517E+03 -0.97958238905E+03  0.10371361740E+04  0.00000000000E+00 0.  1.
         22    1    1    2    0    0 -0.70722331071E+03  0.17218211212E+03  0.23459437378E+03  0.76475225476E+03  0.00000000000E+00 0. -1.
<mgrwt>
<rscale>  0 0.22414996E+04</rscale>
<asrwt>0</asrwt>
<pdfrwt beam="1">  1        2 0.33967562E+00 0.22414996E+04</pdfrwt>
<pdfrwt beam="2">  1       -2 0.87523819E-01 0.22414996E+04</pdfrwt>
<totfact> 0.52463072E+00</totfact>
</mgrwt>
</event>
<event>
 6    1  0.5040916E-004  0.1939615E+04  0.7818608E-02  0.8635385E-01
         -2   -1    0    0    0  501 -0.00000000000E+00  0.00000000000E+00  0.10237935225E+04  0.10237935225E+04  0.00000000000E+00 0. -1.
          2   -1    0    0  501    0  0.00000000000E+00 -0.00000000000E+00 -0.91866869434E+03  0.91866869434E+03  0.00000000000E+00 0.  1.
         23    2    1    2    0    0  0.31822109032E+03  0.69809718214E+03  0.64328736143E+03  0.10053265541E+04  0.90876361404E+02 0.  0.
         11    1    3    3    0    0  0.28029190104E+03  0.54475029202E+03  0.48144512691E+03  0.77916996905E+03  0.00000000000E+00 0.  1.
        -11    1    3    3    0    0  0.37929189284E+02  0.15334689012E+03  0.16184223451E+03  0.22615658510E+03  0.00000000000E+00 0. -1.
         22    1    1    2    0    0 -0.31822109032E+03 -0.69809718214E+03 -0.53816253328E+03  0.93713566268E+03  0.00000000000E+00 0.  1.
<mgrwt>
<rscale>  0 0.19396155E+04</rscale>
<asrwt>0</asrwt>
<pdfrwt beam="1">  1        2 0.14133364E+00 0.19396155E+04</pdfrwt>
<pdfrwt beam="2">  1       -2 0.15750670E+00 0.19396155E+04</pdfrwt>
<totfact> 0.69888333E+00</totfact>
</mgrwt>
</event>
<event>
 6    1  0.5040916E-004  0.3230576E+04  0.7818608E-02  0.8180788E-01
         -2   -1    0    0    0  501 -0.00000000000E+00  0.00000000000E+00  0.17196369733E+04  0.17196369733E+04  0.00000000000E+00 0.  1.
          2   -1    0    0  501    0  0.00000000000E+00 -0.00000000000E+00 -0.15172713470E+04  0.15172713470E+04  0.00000000000E+00 0. -1.
         23    2    1    2    0    0  0.12089723571E+04 -0.10648958523E+04  0.61136238401E+01  0.16139073391E+04  0.95090410606E+02 0.  0.
         11    1    3    3    0    0  0.96870500016E+03 -0.83777627830E+03  0.41484732809E+02  0.12813974609E+04  0.00000000000E+00 0.  1.
        -11    1    3    3    0    0  0.24026735698E+03 -0.22711957398E+03 -0.35371108969E+02  0.33250987815E+03  0.00000000000E+00 0. -1.
         22    1    1    2    0    0 -0.12089723571E+04  0.10648958523E+04  0.19625200251E+03  0.16230009812E+04  0.00000000000E+00 0.  1.
<mgrwt>
<rscale>  0 0.32305764E+04</rscale>
<asrwt>0</asrwt>
<pdfrwt beam="1">  1        2 0.23342636E+00 0.32305764E+04</pdfrwt>
<pdfrwt beam="2">  1       -2 0.26455953E+00 0.32305764E+04</pdfrwt>
<totfact> 0.54548713E-01</totfact>
</mgrwt>
</event>
<event>
 6    1  0.5040916E-004  0.3139016E+04  0.7818608E-02  0.8205111E-01
          2   -1    0    0  501    0  0.00000000000E+00  0.00000000000E+00  0.18205887088E+04  0.18205887088E+04  0.00000000000E+00 0.  1.
         -2   -1    0    0    0  501 -0.00000000000E+00 -0.00000000000E+00 -0.13530539296E+04  0.13530539296E+04  0.00000000000E+00 0. -1.
         23    2    1    2    0    0  0.69246895122E+03 -0.40496435658E+03 -0.11284574859E+04  0.13873893841E+04  0.89014758659E+02 0.  0.
         11    1    3    3    0    0  0.32802779497E+03 -0.19562673905E+03 -0.61379204787E+03  0.72291958981E+03  0.00000000000E+00 0.  1.
        -11    1    3    3    0    0  0.36444115626E+03 -0.20933761752E+03 -0.51466543800E+03  0.66446979431E+03  0.00000000000E+00 0. -1.
         22    1    1    2    0    0 -0.69246895122E+03  0.40496435658E+03  0.15959922650E+04  0.17862532543E+04  0.00000000000E+00 0.  1.
<mgrwt>
<rscale>  0 0.31390156E+04</rscale>
<asrwt>0</asrwt>
<pdfrwt beam="1">  1        2 0.28009057E+00 0.31390156E+04</pdfrwt>
<pdfrwt beam="2">  1       -2 0.20816214E+00 0.31390156E+04</pdfrwt>
<totfact> 0.83709402E-01</totfact>
</mgrwt>
</event>
<event>
 6    1  0.5040916E-004  0.3456732E+04  0.7818608E-02  0.8124121E-01
         -3   -1    0    0    0  501 -0.00000000000E+00  0.00000000000E+00  0.17214334234E+04  0.17214334234E+04  0.00000000000E+00 0.  1.
          3   -1    0    0  501    0  0.00000000000E+00 -0.00000000000E+00 -0.17353268099E+04  0.17353268099E+04  0.00000000000E+00 0. -1.
         23    2    1    2    0    0  0.48017044544E+03 -0.10842916356E+03  0.16485510125E+04  0.17229661509E+04  0.92581726471E+02 0.  0.
         11    1    3    3    0    0  0.22345868263E+03 -0.89673224284E+02  0.70755535124E+03  0.74740193007E+03  0.00000000000E+00 0. -1.
        -11    1    3    3    0    0  0.25671176281E+03 -0.18755939275E+02  0.94099566126E+03  0.97556422082E+03  0.00000000000E+00 0.  1.
         22    1    1    2    0    0 -0.48017044544E+03  0.10842916356E+03 -0.16624443990E+04  0.17337940824E+04  0.00000000000E+00 0. -1.
<mgrwt>
<rscale>  0 0.34567323E+04</rscale>
<asrwt>0</asrwt>
<pdfrwt beam="1">  1        3 0.26697335E+00 0.34567323E+04</pdfrwt>
<pdfrwt beam="2">  1       -3 0.26483591E+00 0.34567323E+04</pdfrwt>
<totfact> 0.75652157E-03</totfact>
</mgrwt>
</event>
<event>
 6    1  0.5040916E-004  0.3706988E+04  0.7818608E-02  0.8066415E-01
          2   -1    0    0  501    0  0.00000000000E+00  0.00000000000E+00  0.44319213250E+04  0.44319213250E+04  0.00000000000E+00 0.  1.
         -2   -1    0    0    0  501 -0.00000000000E+00 -0.00000000000E+00 -0.77515813431E+03  0.77515813431E+03  0.00000000000E+00 0. -1.
         23    2    1    2    0    0 -0.61880836583E+03 -0.15836249063E+04  0.79677229617E+03  0.18798674802E+04  0.90906621223E+02 0.  0.
         13    1    3    3    0    0 -0.94376237380E+02 -0.27861221937E+03  0.17339411165E+03  0.34146326437E+03  0.00000000000E+00 0. -1.
        -13    1    3    3    0    0 -0.52443212845E+03 -0.13050126869E+04  0.62337818452E+03  0.15384042158E+04  0.00000000000E+00 0.  1.
         22    1    1    2    0    0  0.61880836583E+03  0.15836249063E+04  0.28599908946E+04  0.33272119792E+04  0.00000000000E+00 0. -1.
<mgrwt>
<rscale>  0 0.37069879E+04</rscale>
<asrwt>0</asrwt>
<pdfrwt beam="1">  1        2 0.68183404E+00 0.37069879E+04</pdfrwt>
<pdfrwt beam="2">  1       -2 0.11925510E+00 0.37069879E+04</pdfrwt>
<totfact> 0.62045547E-02</totfact>
</mgrwt>
</event>
<event>
 6    1  0.5040916E-004  0.1592334E+04  0.7818608E-02  0.8825272E-01
         -1   -1    0    0    0  501 -0.00000000000E+00  0.00000000000E+00  0.27621622597E+03  0.27621622597E+03  0.00000000000E+00 0. -1.
          1   -1    0    0  501    0  0.00000000000E+00 -0.00000000000E+00 -0.22948748053E+04  0.22948748053E+04  0.00000000000E+00 0.  1.
         23    2    1    2    0    0 -0.19811777917E+03  0.43431065568E+03 -0.20359208985E+04  0.20934150032E+04  0.97652807708E+02 0.  0.
         11    1    3    3    0    0 -0.12659666947E+02  0.11890576331E+03 -0.42806357861E+03  0.44445165659E+03  0.00000000000E+00 0.  1.
        -11    1    3    3    0    0 -0.18545811222E+03  0.31540489237E+03 -0.16078573199E+04  0.16489633466E+04  0.00000000000E+00 0. -1.
         22    1    1    2    0    0  0.19811777917E+03 -0.43431065568E+03  0.17262319181E+02  0.47767602800E+03  0.00000000000E+00 0. -1.
<mgrwt>
<rscale>  0 0.15923337E+04</rscale>
<asrwt>0</asrwt>
<pdfrwt beam="1">  1        1 0.35305767E+00 0.15923337E+04</pdfrwt>
<pdfrwt beam="2">  1       -1 0.42494804E-01 0.15923337E+04</pdfrwt>
<totfact> 0.98273321E+00</totfact>
</mgrwt>
</event>
<event>
 6    1  0.5040916E-004  0.2195477E+04  0.7818608E-02  0.8520313E-01
          2   -1    0    0  501    0  0.00000000000E+00  0.00000000000E+00  0.46650394968E+04  0.46650394968E+04  0.00000000000E+00 0.  1.
         -2   -1    0    0    0  501 -0.00000000000E+00 -0.00000000000E+00 -0.25831065302E+03  0.25831065302E+03  0.00000000000E+00 0. -1.
         23    2    1    2    0    0 -0.75067613484E+03  0.62791904479E+03  0.11016776737E+04  0.14764442586E+04  0.91634958986E+02 0.  0.
         11    1    3    3    0    0 -0.18419441320E+03  0.10507741869E+03  0.23534295978E+03  0.31678881687E+03  0.00000000000E+00 0. -1.
        -11    1    3    3    0    0 -0.56648172164E+03  0.52284162610E+03  0.86633471392E+03  0.11596554417E+04  0.00000000000E+00 0.  1.
         22    1    1    2    0    0  0.75067613484E+03 -0.62791904479E+03  0.33050511701E+04  0.34469058912E+04  0.00000000000E+00 0.  1.
<mgrwt>
<rscale>  0 0.21954766E+04</rscale>
<asrwt>0</asrwt>
<pdfrwt beam="1">  1        2 0.71769832E+00 0.21954766E+04</pdfrwt>
<pdfrwt beam="2">  1       -2 0.39740104E-01 0.21954766E+04</pdfrwt>
<totfact> 0.46427841E-01</totfact>
</mgrwt>
</event>
<event>
 6    1  0.5040916E-004  0.6955287E+03  0.7818608E-02  0.9724909E-01
         -2   -1    0    0    0  501 -0.00000000000E+00  0.00000000000E+00  0.66631537874E+03  0.66631537874E+03  0.00000000000E+00 0. -1.
          2   -1    0    0  501    0  0.00000000000E+00 -0.00000000000E+00 -0.18150570633E+03  0.18150570633E+03  0.00000000000E+00 0.  1.
         23    2    1    2    0    0 -0.13575002751E+03  0.28344741376E+03  0.83338663727E+02  0.33796867785E+03  0.92233334537E+02 0.  0.
         13    1    3    3    0    0 -0.50376452305E+02  0.20465642964E+03  0.63403510788E+02  0.22009553908E+03  0.00000000000E+00 0. -1.
        -13    1    3    3    0    0 -0.85373575209E+02  0.78790984117E+02  0.19935152939E+02  0.11787313877E+03  0.00000000000E+00 0.  1.
         22    1    1    2    0    0  0.13575002751E+03 -0.28344741376E+03  0.40147100868E+03  0.50985240722E+03  0.00000000000E+00 0.  1.
<mgrwt>
<rscale>  0 0.69552870E+03</rscale>
<asrwt>0</asrwt>
<pdfrwt beam="1">  1        2 0.27923955E-01 0.69552870E+03</pdfrwt>
<pdfrwt beam="2">  1       -2 0.10251006E+00 0.69552870E+03</pdfrwt>
<totfact> 0.15191044E+02</totfact>
</mgrwt>
</event>
<event>
 6    1  0.5040916E-004  0.2217452E+04  0.7818608E-02  0.8511199E-01
         -2   -1    0    0    0  501 -0.00000000000E+00  0.00000000000E+00  0.80384811104E+03  0.80384811104E+03  0.00000000000E+00 0. -1.
          2   -1    0    0  501    0  0.00000000000E+00 -0.00000000000E+00 -0.15292353131E+04  0.15292353131E+04  0.00000000000E+00 0.  1.
         23    2    1    2    0    0  0.22837217197E+03  0.88274624406E+03 -0.10238611565E+04  0.13736661626E+04  0.85277653914E+02 0.  0.
         11    1    3    3    0    0  0.12166864159E+03  0.60600497261E+03 -0.72280258928E+03  0.95104619670E+03  0.00000000000E+00 0. -1.
        -11    1    3    3    0    0  0.10670353037E+03  0.27674127145E+03 -0.30105856719E+03  0.42261996592E+03  0.00000000000E+00 0.  1.
         22    1    1    2    0    0 -0.22837217197E+03 -0.88274624406E+03  0.29847395438E+03  0.95941726156E+03  0.00000000000E+00 0. -1.
<mgrwt>
<rscale>  0 0.22174516E+04</rscale>
<asrwt>0</asrwt>
<pdfrwt beam="1">  1        2 0.23526697E+00 0.22174516E+04</pdfrwt>
<pdfrwt beam="2">  1       -2 0.12366894E+00 0.22174516E+04</pdfrwt>
<totfact> 0.54947224E+00</totfact>
</mgrwt>
</event>
<event>
 6    1  0.5040916E-004  0.2956972E+04  0.7818608E-02  0.8256126E-01
          2   -1    0    0  501    0  0.00000000000E+00  0.00000000000E+00  0.68876574134E+03  0.68876574134E+03  0.00000000000E+00 0.  1.
         -2   -1    0    0    0  501 -0.00000000000E+00 -0.00000000000E+00 -0.31736773508E+04  0.31736773508E+04  0.00000000000E+00 0. -1.
         23    2    1    2    0    0 -0.10322318737E+04 -0.59290630241E+03 -0.23859178112E+04  0.26679388868E+04  0.90849200563E+02 0.  0.
         13    1    3    3    0    0 -0.27821017242E+03 -0.20426183091E+03 -0.65808612122E+03  0.74310237420E+03  0.00000000000E+00 0.  1.
        -13    1    3    3    0    0 -0.75402170125E+03 -0.38864447150E+03 -0.17278316900E+04  0.19248365126E+04  0.00000000000E+00 0. -1.
         22    1    1    2    0    0  0.10322318737E+04  0.59290630241E+03 -0.98993798219E+02  0.11945042053E+04  0.00000000000E+00 0.  1.
<mgrwt>
<rscale>  0 0.29569716E+04</rscale>
<asrwt>0</asrwt>
<pdfrwt beam="1">  1        2 0.10596396E+00 0.29569716E+04</pdfrwt>
<pdfrwt beam="2">  1       -2 0.48825805E+00 0.29569716E+04</pdfrwt>
<totfact> 0.70046419E-02</totfact>
</mgrwt>
</event>
<event>
 6    1  0.5040916E-004  0.2739213E+04  0.7818608E-02  0.8322393E-01
          2   -1    0    0  501    0  0.00000000000E+00  0.00000000000E+00  0.18786601770E+04  0.18786601770E+04  0.00000000000E+00 0.  1.
         -2   -1    0    0    0  501 -0.00000000000E+00 -0.00000000000E+00 -0.99848952910E+03  0.99848952910E+03  0.00000000000E+00 0. -1.
         23    2    1    2    0    0 -0.34792627184E+03 -0.12690072698E+04  0.83370814536E+03  0.15604907124E+04  0.92896988650E+02 0.  0.
         13    1    3    3    0    0 -0.28401440210E+03 -0.10282346918E+04  0.63154097021E+03  0.12396671969E+04  0.00000000000E+00 0. -1.
        -13    1    3    3    0    0 -0.63911869749E+02 -0.24077257805E+03  0.20216717515E+03  0.32082351557E+03  0.00000000000E+00 0.  1.
         22    1    1    2    0    0  0.34792627184E+03  0.12690072698E+04  0.46462502536E+02  0.13166589937E+04  0.00000000000E+00 0. -1.
<mgrwt>
<rscale>  0 0.27392134E+04</rscale>
<asrwt>0</asrwt>
<pdfrwt beam="1">  1        2 0.28902464E+00 0.27392134E+04</pdfrwt>
<pdfrwt beam="2">  1       -2 0.15361377E+00 0.27392134E+04</pdfrwt>
<totfact> 0.19192111E+00</totfact>
</mgrwt>
</event>
<event>
 6    1  0.5040916E-004  0.5682649E+03  0.7818608E-02  0.9973526E-01
          4   -1    0    0  501    0  0.00000000000E+00  0.00000000000E+00  0.42419280255E+03  0.42419280255E+03  0.00000000000E+00 0.  1.
         -4   -1    0    0    0  501 -0.00000000000E+00 -0.00000000000E+00 -0.19031731474E+03  0.19031731474E+03  0.00000000000E+00 0. -1.
         23    2    1    2    0    0 -0.12654618057E+03  0.24569791893E+03  0.13718647938E+03  0.32171297330E+03  0.91091733316E+02 0.  0.
         11    1    3    3    0    0 -0.13997793388E+03  0.21594849912E+03  0.12987867214E+03  0.28826384741E+03  0.00000000000E+00 0.  1.
        -11    1    3    3    0    0  0.13431753309E+02  0.29749419810E+02  0.73078072387E+01  0.33449125887E+02  0.00000000000E+00 0. -1.
         22    1    1    2    0    0  0.12654618057E+03 -0.24569791893E+03  0.96689008419E+02  0.29279714399E+03  0.00000000000E+00 0.  1.
<mgrwt>
<rscale>  0 0.56826485E+03</rscale>
<asrwt>0</asrwt>
<pdfrwt beam="1">  1        4 0.65260431E-01 0.56826485E+03</pdfrwt>
<pdfrwt beam="2">  1       -4 0.29279587E-01 0.56826485E+03</pdfrwt>
<totfact> 0.48399564E+01</totfact>
</mgrwt>
</event>
<event>
 6    1  0.5040916E-004  0.5085952E+04  0.7818608E-02  0.7815383E-01
          2   -1    0    0  501    0  0.00000000000E+00  0.00000000000E+00  0.14259678121E+04  0.14259678121E+04  0.00000000000E+00 0.  1.
         -2   -1    0    0    0  501 -0.00000000000E+00 -0.00000000000E+00 -0.45349737940E+04  0.45349737940E+04  0.00000000000E+00 0. -1.
         23    2    1    2    0    0  0.14546191947E+04  0.12281733392E+04 -0.35295392970E+04  0.40112813737E+04  0.91672550211E+02 0.  0.
         13    1    3    3    0    0  0.19378036686E+03  0.16803566860E+03 -0.54404058840E+03  0.60147067953E+03  0.00000000000E+00 0.  1.
        -13    1    3    3    0    0  0.12608388279E+04  0.10601376706E+04 -0.29854987086E+04  0.34098106941E+04  0.00000000000E+00 0. -1.
         22    1    1    2    0    0 -0.14546191947E+04 -0.12281733392E+04  0.42053331508E+03  0.19496602325E+04  0.00000000000E+00 0.  1.
<mgrwt>
<rscale>  0 0.50859519E+04</rscale>
<asrwt>0</asrwt>
<pdfrwt beam="1">  1        2 0.21937966E+00 0.50859519E+04</pdfrwt>
<pdfrwt beam="2">  1       -2 0.69768829E+00 0.50859519E+04</pdfrwt>
<totfact> 0.23673059E-03</totfact>
</mgrwt>
</event>
<event>
 6    1  0.5040916E-004  0.2282193E+04  0.7818608E-02  0.8484975E-01
         -2   -1    0    0    0  501 -0.00000000000E+00  0.00000000000E+00  0.14680576974E+04  0.14680576974E+04  0.00000000000E+00 0. -1.
          2   -1    0    0  501    0  0.00000000000E+00 -0.00000000000E+00 -0.88695538856E+03  0.88695538856E+03  0.00000000000E+00 0.  1.
         23    2    1    2    0    0  0.75187619591E+03  0.34673948736E+03  0.10985513895E+04  0.13786424406E+04  0.91069959902E+02 0.  0.
         13    1    3    3    0    0  0.91929106547E+02  0.62070041158E+02  0.10801842568E+03  0.15482774598E+03  0.00000000000E+00 0.  1.
        -13    1    3    3    0    0  0.65994708937E+03  0.28466944620E+03  0.99053296382E+03  0.12238146946E+04  0.00000000000E+00 0. -1.
         22    1    1    2    0    0 -0.75187619591E+03 -0.34673948736E+03 -0.51744908065E+03  0.97637064537E+03  0.00000000000E+00 0.  1.
<mgrwt>
<rscale>  0 0.22821934E+04</rscale>
<asrwt>0</asrwt>
<pdfrwt beam="1">  1        2 0.13645467E+00 0.22821934E+04</pdfrwt>
<pdfrwt beam="2">  1       -2 0.22585503E+00 0.22821934E+04</pdfrwt>
<totfact> 0.24657328E+00</totfact>
</mgrwt>
</event>
<event>
 6    1  0.5040916E-004  0.1459547E+04  0.7818608E-02  0.8911808E-01
         -2   -1    0    0    0  501 -0.00000000000E+00  0.00000000000E+00  0.55060120289E+03  0.55060120289E+03  0.00000000000E+00 0. -1.
          2   -1    0    0  501    0  0.00000000000E+00 -0.00000000000E+00 -0.96725081705E+03  0.96725081705E+03  0.00000000000E+00 0.  1.
         23    2    1    2    0    0 -0.20432855552E+03 -0.64369575159E+03 -0.48914303947E+03  0.83862475611E+03  0.89085292163E+02 0.  0.
         13    1    3    3    0    0 -0.19308333632E+03 -0.48443729787E+03 -0.37041852251E+03  0.63966440588E+03  0.00000000000E+00 0.  1.
        -13    1    3    3    0    0 -0.11245219209E+02 -0.15925845372E+03 -0.11872451696E+03  0.19896035023E+03  0.00000000000E+00 0. -1.
         22    1    1    2    0    0  0.20432855552E+03  0.64369575159E+03  0.72493425314E+02  0.67922726383E+03  0.00000000000E+00 0. -1.
<mgrwt>
<rscale>  0 0.14595471E+04</rscale>
<asrwt>0</asrwt>
<pdfrwt beam="1">  1        2 0.14880782E+00 0.14595471E+04</pdfrwt>
<pdfrwt beam="2">  1       -2 0.84707878E-01 0.14595471E+04</pdfrwt>
<totfact> 0.31137785E+01</totfact>
</mgrwt>
</event>
<event>
 6    1  0.5040916E-004  0.3048854E+04  0.7818608E-02  0.8229916E-01
         -2   -1    0    0    0  501 -0.00000000000E+00  0.00000000000E+00  0.19005648115E+04  0.19005648115E+04  0.00000000000E+00 0. -1.
          2   -1    0    0  501    0  0.00000000000E+00 -0.00000000000E+00 -0.12227296733E+04  0.12227296733E+04  0.00000000000E+00 0.  1.
         23    2    1    2    0    0 -0.42273190737E+03  0.10651156919E+04 -0.68832901346E+03  0.13401573079E+04  0.95137145613E+02 0.  0.
         11    1    3    3    0    0 -0.38211390628E+03  0.89582122475E+03 -0.55573095249E+03  0.11213133352E+04  0.00000000000E+00 0.  1.
        -11    1    3    3    0    0 -0.40618001093E+02  0.16929446713E+03 -0.13259806097E+03  0.21884397270E+03  0.00000000000E+00 0. -1.
         22    1    1    2    0    0  0.42273190737E+03 -0.10651156919E+04  0.13661641517E+04  0.17831371770E+04  0.00000000000E+00 0. -1.
<mgrwt>
<rscale>  0 0.30488535E+04</rscale>
<asrwt>0</asrwt>
<pdfrwt beam="1">  1        2 0.18811226E+00 0.30488535E+04</pdfrwt>
<pdfrwt beam="2">  1       -2 0.29239459E+00 0.30488535E+04</pdfrwt>
<totfact> 0.55370136E-01</totfact>
</mgrwt>
</event>
<event>
 6    1  0.5040916E-004  0.1091437E+04  0.7818608E-02  0.9213578E-01
         -2   -1    0    0    0  501 -0.00000000000E+00  0.00000000000E+00  0.13871100361E+03  0.13871100361E+03  0.00000000000E+00 0. -1.
          2   -1    0    0  501    0  0.00000000000E+00 -0.00000000000E+00 -0.21469730516E+04  0.21469730516E+04  0.00000000000E+00 0.  1.
         23    2    1    2    0    0 -0.68082783552E+02 -0.17094968095E+03 -0.20786305609E+04  0.20886795211E+04  0.89543700122E+02 0.  0.
         13    1    3    3    0    0 -0.73310941979E+02 -0.78429358557E+02 -0.89230420847E+03  0.89873937209E+03  0.00000000000E+00 0. -1.
        -13    1    3    3    0    0  0.52281584271E+01 -0.92520322392E+02 -0.11863263525E+04  0.11899401490E+04  0.00000000000E+00 0.  1.
         22    1    1    2    0    0  0.68082783552E+02  0.17094968095E+03  0.70368512955E+02  0.19700453408E+03  0.00000000000E+00 0. -1.
<mgrwt>
<rscale>  0 0.10914372E+04</rscale>
<asrwt>0</asrwt>
<pdfrwt beam="1">  1        2 0.33030351E+00 0.10914372E+04</pdfrwt>
<pdfrwt beam="2">  1       -2 0.21340157E-01 0.10914372E+04</pdfrwt>
<totfact> 0.10512265E+02</totfact>
</mgrwt>
</event>
<event>
 6    1  0.5040916E-004  0.1234915E+04  0.7818608E-02  0.9082832E-01
         -1   -1    0    0    0  501 -0.00000000000E+00  0.00000000000E+00  0.14306676927E+04  0.14306676927E+04  0.00000000000E+00 0. -1.
          1   -1    0    0  501    0  0.00000000000E+00 -0.00000000000E+00 -0.26648673571E+03  0.26648673571E+03  0.00000000000E+00 0.  1.
         23    2    1    2    0    0  0.22442733301E+03 -0.56765540880E+03  0.49332936860E+03  0.79015820758E+03  0.91519594299E+02 0.  0.
         11    1    3    3    0    0  0.11161406443E+03 -0.16683575525E+03  0.15346851875E+03  0.25267460271E+03  0.00000000000E+00 0.  1.
        -11    1    3    3    0    0  0.11281326858E+03 -0.40081965356E+03  0.33986084985E+03  0.53748360487E+03  0.00000000000E+00 0. -1.
         22    1    1    2    0    0 -0.22442733301E+03  0.56765540880E+03  0.67085158835E+03  0.90699622079E+03  0.00000000000E+00 0. -1.
<mgrwt>
<rscale>  0 0.12349153E+04</rscale>
<asrwt>0</asrwt>
<pdfrwt beam="1">  1        1 0.40997960E-01 0.12349153E+04</pdfrwt>
<pdfrwt beam="2">  1       -1 0.22010272E+00 0.12349153E+04</pdfrwt>
<totfact> 0.11108271E+01</totfact>
</mgrwt>
</event>
<event>
 6    1  0.5040916E-004  0.2035213E+04  0.7818608E-02  0.8590332E-01
         -2   -1    0    0    0  501 -0.00000000000E+00  0.00000000000E+00  0.44367583577E+03  0.44367583577E+03  0.00000000000E+00 0. -1.
          2   -1    0    0  501    0  0.00000000000E+00 -0.00000000000E+00 -0.23339632289E+04  0.23339632289E+04  0.00000000000E+00 0.  1.
         23    2    1    2    0    0  0.34335439185E+03 -0.87997597557E+03 -0.14561453429E+04  0.17380577664E+04  0.90750116670E+02 0.  0.
         11    1    3    3    0    0  0.15079698121E+03 -0.51035609694E+03 -0.81780931083E+03  0.97571263397E+03  0.00000000000E+00 0. -1.
        -11    1    3    3    0    0  0.19255741065E+03 -0.36961987863E+03 -0.63833603207E+03  0.76234513241E+03  0.00000000000E+00 0.  1.
         22    1    1    2    0    0 -0.34335439185E+03  0.87997597557E+03 -0.43414205026E+03  0.10395812983E+04  0.00000000000E+00 0. -1.
<mgrwt>
<rscale>  0 0.20352131E+04</rscale>
<asrwt>0</asrwt>
<pdfrwt beam="1">  1        2 0.35907126E+00 0.20352131E+04</pdfrwt>
<pdfrwt beam="2">  1       -2 0.68257823E-01 0.20352131E+04</pdfrwt>
<totfact> 0.78909945E+00</totfact>
</mgrwt>
</event>
<event>
 6    1  0.5040916E-004  0.3078359E+04  0.7818608E-02  0.8221702E-01
          2   -1    0    0  501    0  0.00000000000E+00  0.00000000000E+00  0.29403146402E+04  0.29403146402E+04  0.00000000000E+00 0.  1.
         -2   -1    0    0    0  501 -0.00000000000E+00 -0.00000000000E+00 -0.80572100691E+03  0.80572100691E+03  0.00000000000E+00 0. -1.
         23    2    1    2    0    0 -0.11858063538E+04 -0.97808543991E+03  0.10125805752E+04  0.18429588912E+04  0.91598127647E+02 0.  0.
         13    1    3    3    0    0 -0.29497154037E+03 -0.29592113980E+03  0.27844879928E+03  0.50210682572E+03  0.00000000000E+00 0.  1.
        -13    1    3    3    0    0 -0.89083481339E+03 -0.68216430010E+03  0.73413177591E+03  0.13408520655E+04  0.00000000000E+00 0. -1.
         22    1    1    2    0    0  0.11858063538E+04  0.97808543991E+03  0.11220130581E+04  0.19030767559E+04  0.00000000000E+00 0.  1.
<mgrwt>
<rscale>  0 0.30783588E+04</rscale>
<asrwt>0</asrwt>
<pdfrwt beam="1">  1        2 0.45235609E+00 0.30783588E+04</pdfrwt>
<pdfrwt beam="2">  1       -2 0.12395708E+00 0.30783588E+04</pdfrwt>
<totfact> 0.78959455E-01</totfact>
</mgrwt>
</event>
<event>
 6    1  0.5040916E-004  0.5460787E+04  0.7818608E-02  0.7761108E-01
          2   -1    0    0  501    0  0.00000000000E+00  0.00000000000E+00  0.32404253820E+04  0.32404253820E+04  0.00000000000E+00 0.  1.
         -2   -1    0    0    0  501 -0.00000000000E+00 -0.00000000000E+00 -0.23006388038E+04  0.23006388038E+04  0.00000000000E+00 0. -1.
         23    2    1    2    0    0 -0.23518945255E+04  0.13827735829E+04  0.55774415570E+03  0.27861727083E+04  0.90604504449E+02 0.  0.
         11    1    3    3    0    0 -0.15241134740E+04  0.86082848194E+03  0.32600394776E+03  0.17805128842E+04  0.00000000000E+00 0.  1.
        -11    1    3    3    0    0 -0.82778105155E+03  0.52194510096E+03  0.23174020794E+03  0.10056598240E+04  0.00000000000E+00 0. -1.
         22    1    1    2    0    0  0.23518945255E+04 -0.13827735829E+04  0.38204242252E+03  0.27548914776E+04  0.00000000000E+00 0. -1.
<mgrwt>
<rscale>  0 0.54607869E+04</rscale>
<asrwt>0</asrwt>
<pdfrwt beam="1">  1        2 0.49852698E+00 0.54607869E+04</pdfrwt>
<pdfrwt beam="2">  1       -2 0.35394443E+00 0.54607869E+04</pdfrwt>
<totfact> 0.12569215E-02</totfact>
</mgrwt>
</event>
<event>
 6    1  0.5040916E-004  0.2558991E+04  0.7818608E-02  0.8382266E-01
         -2   -1    0    0    0  501 -0.00000000000E+00  0.00000000000E+00  0.17811344141E+04  0.17811344141E+04  0.00000000000E+00 0. -1.
          2   -1    0    0  501    0  0.00000000000E+00 -0.00000000000E+00 -0.91913807918E+03  0.91913807918E+03  0.00000000000E+00 0.  1.
         23    2    1    2    0    0  0.27548558109E+02 -0.78514437957E+03 -0.63196498157E+03  0.10123355765E+04  0.90735669609E+02 0.  0.
         11    1    3    3    0    0  0.34670689727E+02 -0.61537957228E+03 -0.44842291399E+03  0.76221859364E+03  0.00000000000E+00 0. -1.
        -11    1    3    3    0    0 -0.71221316172E+01 -0.16976480729E+03 -0.18354206758E+03  0.25011698287E+03  0.00000000000E+00 0.  1.
         22    1    1    2    0    0 -0.27548558109E+02  0.78514437957E+03  0.14939613165E+04  0.16879369167E+04  0.00000000000E+00 0. -1.
<mgrwt>
<rscale>  0 0.25589908E+04</rscale>
<asrwt>0</asrwt>
<pdfrwt beam="1">  1        2 0.14140586E+00 0.25589908E+04</pdfrwt>
<pdfrwt beam="2">  1       -2 0.27402068E+00 0.25589908E+04</pdfrwt>
<totfact> 0.11570925E+00</totfact>
</mgrwt>
</event>
<event>
 6    1  0.5040916E-004  0.2211083E+04  0.7818608E-02  0.8513829E-01
         -2   -1    0    0    0  501 -0.00000000000E+00  0.00000000000E+00  0.93408066823E+03  0.93408066823E+03  0.00000000000E+00 0. -1.
          2   -1    0    0  501    0  0.00000000000E+00 -0.00000000000E+00 -0.13084757539E+04  0.13084757539E+04  0.00000000000E+00 0.  1.
         23    2    1    2    0    0 -0.88487426218E+00 -0.11003465917E+04 -0.27528454165E+03  0.11377549446E+04  0.89114140551E+02 0.  0.
         13    1    3    3    0    0  0.23093134469E+02 -0.14478686928E+03 -0.16902766664E+02  0.14758805472E+03  0.00000000000E+00 0. -1.
        -13    1    3    3    0    0 -0.23978008731E+02 -0.95555972245E+03 -0.25838177499E+03  0.99016688983E+03  0.00000000000E+00 0.  1.
         22    1    1    2    0    0  0.88487426218E+00  0.11003465917E+04 -0.99110544025E+02  0.11048014776E+04  0.00000000000E+00 0.  1.
<mgrwt>
<rscale>  0 0.22110829E+04</rscale>
<asrwt>0</asrwt>
<pdfrwt beam="1">  1        2 0.20130396E+00 0.22110829E+04</pdfrwt>
<pdfrwt beam="2">  1       -2 0.14370472E+00 0.22110829E+04</pdfrwt>
<totfact> 0.50081159E+00</totfact>
</mgrwt>
</event>
<event>
 6    1  0.5040916E-004  0.5070939E+04  0.7818608E-02  0.7817656E-01
         -1   -1    0    0    0  501 -0.00000000000E+00  0.00000000000E+00  0.21335592684E+04  0.21335592684E+04  0.00000000000E+00 0.  1.
          1   -1    0    0  501    0  0.00000000000E+00 -0.00000000000E+00 -0.30130893300E+04  0.30130893300E+04  0.00000000000E+00 0. -1.
         23    2    1    2    0    0 -0.23559048210E+04 -0.93195247826E+03 -0.51616876401E+03  0.25871849084E+04  0.90953890087E+02 0.  0.
         11    1    3    3    0    0 -0.74274070167E+03 -0.33140673224E+03 -0.14107639330E+03  0.82546757710E+03  0.00000000000E+00 0.  1.
        -11    1    3    3    0    0 -0.16131641193E+04 -0.60054574603E+03 -0.37509237071E+03  0.17617173313E+04  0.00000000000E+00 0. -1.
         22    1    1    2    0    0  0.23559048210E+04  0.93195247826E+03 -0.36336129757E+03  0.25594636899E+04  0.00000000000E+00 0. -1.
<mgrwt>
<rscale>  0 0.50709386E+04</rscale>
<asrwt>0</asrwt>
<pdfrwt beam="1">  1        1 0.46355220E+00 0.50709386E+04</pdfrwt>
<pdfrwt beam="2">  1       -1 0.32823989E+00 0.50709386E+04</pdfrwt>
<totfact> 0.90741970E-03</totfact>
</mgrwt>
</event>
<event>
 6    1  0.5040916E-004  0.1691213E+04  0.7818608E-02  0.8766392E-01
         -2   -1    0    0    0  501 -0.00000000000E+00  0.00000000000E+00  0.16106564204E+04  0.16106564204E+04  0.00000000000E+00 0. -1.
          2   -1    0    0  501    0  0.00000000000E+00 -0.00000000000E+00 -0.44394959768E+03  0.44394959768E+03  0.00000000000E+00 0.  1.
         23    2    1    2    0    0  0.19928932791E+03  0.48009909360E+03 -0.22153296310E+03  0.57223592973E+03  0.90364426858E+02 0.  0.
         13    1    3    3    0    0  0.12619771184E+02  0.10892085778E+03 -0.24236892989E+02  0.11229621038E+03  0.00000000000E+00 0.  1.
        -13    1    3    3    0    0  0.18666955673E+03  0.37117823582E+03 -0.19729607011E+03  0.45993971935E+03  0.00000000000E+00 0. -1.
         22    1    1    2    0    0 -0.19928932791E+03 -0.48009909360E+03  0.13882397858E+04  0.14823700883E+04  0.00000000000E+00 0. -1.
<mgrwt>
<rscale>  0 0.16912129E+04</rscale>
<asrwt>0</asrwt>
<pdfrwt beam="1">  1        2 0.68299939E-01 0.16912129E+04</pdfrwt>
<pdfrwt beam="2">  1       -2 0.24779329E+00 0.16912129E+04</pdfrwt>
<totfact> 0.44596087E+00</totfact>
</mgrwt>
</event>
<event>
 6    1  0.5040916E-004  0.5324195E+03  0.7818608E-02  0.1005647E+00
         -2   -1    0    0    0  501 -0.00000000000E+00  0.00000000000E+00  0.66155624922E+03  0.66155624922E+03  0.00000000000E+00 0. -1.
          2   -1    0    0  501    0  0.00000000000E+00 -0.00000000000E+00 -0.10712262539E+03  0.10712262539E+03  0.00000000000E+00 0.  1.
         23    2    1    2    0    0  0.98772691829E+02  0.23353105260E+03  0.36324365092E+03  0.45111564797E+03  0.85244241584E+02 0.  0.
         13    1    3    3    0    0  0.69823925382E+02  0.17835063361E+03  0.32718088725E+03  0.37911958806E+03  0.00000000000E+00 0. -1.
        -13    1    3    3    0    0  0.28948766447E+02  0.55180418992E+02  0.36062763671E+02  0.71996059910E+02  0.00000000000E+00 0.  1.
         22    1    1    2    0    0 -0.98772691829E+02 -0.23353105260E+03  0.19118997291E+03  0.31756322665E+03  0.00000000000E+00 0. -1.
<mgrwt>
<rscale>  0 0.53241954E+03</rscale>
<asrwt>0</asrwt>
<pdfrwt beam="1">  1        2 0.16480404E-01 0.53241954E+03</pdfrwt>
<pdfrwt beam="2">  1       -2 0.10177788E+00 0.53241954E+03</pdfrwt>
<totfact> 0.28687916E+02</totfact>
</mgrwt>
</event>
<event>
 6    1  0.5040916E-004  0.1590310E+04  0.7818608E-02  0.8826523E-01
          2   -1    0    0  501    0  0.00000000000E+00  0.00000000000E+00  0.14857460284E+04  0.14857460284E+04  0.00000000000E+00 0.  1.
         -2   -1    0    0    0  501 -0.00000000000E+00 -0.00000000000E+00 -0.42555840790E+03  0.42555840790E+03  0.00000000000E+00 0. -1.
         23    2    1    2    0    0  0.57904156266E+03 -0.76001876132E+02 -0.11368872077E+03  0.60017855330E+03  0.78890773493E+02 0.  0.
         11    1    3    3    0    0  0.29139980773E+03 -0.64388808326E+02 -0.88131341636E+02  0.31117021060E+03  0.00000000000E+00 0. -1.
        -11    1    3    3    0    0  0.28764175493E+03 -0.11613067806E+02 -0.25557379137E+02  0.28900834270E+03  0.00000000000E+00 0.  1.
         22    1    1    2    0    0 -0.57904156266E+03  0.76001876132E+02  0.11738763412E+04  0.13111258830E+04  0.00000000000E+00 0.  1.
<mgrwt>
<rscale>  0 0.15903103E+04</rscale>
<asrwt>0</asrwt>
<pdfrwt beam="1">  1        2 0.22857631E+00 0.15903103E+04</pdfrwt>
<pdfrwt beam="2">  1       -2 0.65470525E-01 0.15903103E+04</pdfrwt>
<totfact> 0.26672368E+01</totfact>
</mgrwt>
</event>
<event>
 6    1  0.5040916E-004  0.2762182E+04  0.7818608E-02  0.8315106E-01
         -2   -1    0    0    0  501 -0.00000000000E+00  0.00000000000E+00  0.14754916106E+04  0.14754916106E+04  0.00000000000E+00 0. -1.
          2   -1    0    0  501    0  0.00000000000E+00 -0.00000000000E+00 -0.12927299888E+04  0.12927299888E+04  0.00000000000E+00 0.  1.
         23    2    1    2    0    0  0.56669236296E+03  0.11397610810E+04 -0.44169803857E+03  0.13504256255E+04  0.91414751541E+02 0.  0.
         11    1    3    3    0    0  0.38623494464E+03  0.85182242669E+03 -0.34789243017E+03  0.99790180982E+03  0.00000000000E+00 0. -1.
        -11    1    3    3    0    0  0.18045741832E+03  0.28793865431E+03 -0.93805608407E+02  0.35252381571E+03  0.00000000000E+00 0.  1.
         22    1    1    2    0    0 -0.56669236296E+03 -0.11397610810E+04  0.62445966044E+03  0.14177959739E+04  0.00000000000E+00 0. -1.
<mgrwt>
<rscale>  0 0.27621819E+04</rscale>
<asrwt>0</asrwt>
<pdfrwt beam="1">  1        2 0.19888154E+00 0.27621819E+04</pdfrwt>
<pdfrwt beam="2">  1       -2 0.22699871E+00 0.27621819E+04</pdfrwt>
<totfact> 0.13010088E+00</totfact>
</mgrwt>
</event>
<event>
 6    1  0.5040916E-004  0.1369345E+04  0.7818608E-02  0.8976312E-01
          2   -1    0    0  501    0  0.00000000000E+00  0.00000000000E+00  0.96791107382E+03  0.96791107382E+03  0.00000000000E+00 0.  1.
         -2   -1    0    0    0  501 -0.00000000000E+00 -0.00000000000E+00 -0.48431741716E+03  0.48431741716E+03  0.00000000000E+00 0. -1.
         23    2    1    2    0    0 -0.54742235312E+03  0.75314184009E+02 -0.18173754810E+03  0.58735331443E+03  0.81313717059E+02 0.  0.
         13    1    3    3    0    0 -0.25158457007E+02  0.18501268365E+02 -0.22209149318E+02  0.38320897739E+02  0.00000000000E+00 0. -1.
        -13    1    3    3    0    0 -0.52226389611E+03  0.56812915644E+02 -0.15952839878E+03  0.54903241669E+03  0.00000000000E+00 0.  1.
         22    1    1    2    0    0  0.54742235312E+03 -0.75314184009E+02  0.66533120476E+03  0.86487517656E+03  0.00000000000E+00 0.  1.
<mgrwt>
<rscale>  0 0.13693446E+04</rscale>
<asrwt>0</asrwt>
<pdfrwt beam="1">  1        2 0.14890940E+00 0.13693446E+04</pdfrwt>
<pdfrwt beam="2">  1       -2 0.74510372E-01 0.13693446E+04</pdfrwt>
<totfact> 0.41773017E+01</totfact>
</mgrwt>
</event>
<event>
 6    1  0.5040916E-004  0.1196750E+04  0.7818608E-02  0.9115706E-01
          2   -1    0    0  501    0  0.00000000000E+00  0.00000000000E+00  0.26615523109E+03  0.26615523109E+03  0.00000000000E+00 0.  1.
         -2   -1    0    0    0  501 -0.00000000000E+00 -0.00000000000E+00 -0.13452783906E+04  0.13452783906E+04  0.00000000000E+00 0. -1.
         23    2    1    2    0    0 -0.57844228462E+03  0.46167979627E+02 -0.71879415992E+03  0.92837875794E+03  0.92168947480E+02 0.  0.
         11    1    3    3    0    0 -0.24666654047E+03 -0.92657673415E+01 -0.36069702543E+03  0.43707274084E+03  0.00000000000E+00 0.  1.
        -11    1    3    3    0    0 -0.33177574414E+03  0.55433746969E+02 -0.35809713450E+03  0.49130601710E+03  0.00000000000E+00 0. -1.
         22    1    1    2    0    0  0.57844228462E+03 -0.46167979627E+02 -0.36032899963E+03  0.68305486379E+03  0.00000000000E+00 0.  1.
<mgrwt>
<rscale>  0 0.11967504E+04</rscale>
<asrwt>0</asrwt>
<pdfrwt beam="1">  1        2 0.40946959E-01 0.11967504E+04</pdfrwt>
<pdfrwt beam="2">  1       -2 0.20696590E+00 0.11967504E+04</pdfrwt>
<totfact> 0.14832385E+01</totfact>
</mgrwt>
</event>
<event>
 6    1  0.5040916E-004  0.6095862E+03  0.7818608E-02  0.9885715E-01
          2   -1    0    0  501    0  0.00000000000E+00  0.00000000000E+00  0.94538835294E+03  0.94538835294E+03  0.00000000000E+00 0.  1.
         -2   -1    0    0    0  501 -0.00000000000E+00 -0.00000000000E+00 -0.98265265490E+02  0.98265265490E+02  0.00000000000E+00 0. -1.
         23    2    1    2    0    0  0.25591033585E+03  0.15067499314E+03  0.47786226175E+03  0.56979012442E+03  0.90085465725E+02 0.  0.
         13    1    3    3    0    0  0.99972561711E+02  0.76619283544E+02  0.28112782924E+03  0.30805500171E+03  0.00000000000E+00 0.  1.
        -13    1    3    3    0    0  0.15593777414E+03  0.74055709597E+02  0.19673443251E+03  0.26173512271E+03  0.00000000000E+00 0. -1.
         22    1    1    2    0    0 -0.25591033585E+03 -0.15067499314E+03  0.36926082570E+03  0.47386349400E+03  0.00000000000E+00 0.  1.
<mgrwt>
<rscale>  0 0.60958621E+03</rscale>
<asrwt>0</asrwt>
<pdfrwt beam="1">  1        2 0.14544436E+00 0.60958621E+03</pdfrwt>
<pdfrwt beam="2">  1       -2 0.15117734E-01 0.60958621E+03</pdfrwt>
<totfact> 0.95208120E+02</totfact>
</mgrwt>
</event>
<event>
 6    1  0.5040916E-004  0.2527804E+04  0.7818608E-02  0.8393147E-01
         -2   -1    0    0    0  501 -0.00000000000E+00  0.00000000000E+00  0.43429989640E+03  0.43429989640E+03  0.00000000000E+00 0. -1.
          2   -1    0    0  501    0  0.00000000000E+00 -0.00000000000E+00 -0.36782157591E+04  0.36782157591E+04  0.00000000000E+00 0.  1.
         23    2    1    2    0    0  0.74021132677E+03 -0.55952011070E+03 -0.23184011489E+03  0.96075807074E+03  0.91272498945E+02 0.  0.
         11    1    3    3    0    0  0.32765689906E+03 -0.21741034933E+03 -0.58985720080E+02  0.39762497239E+03  0.00000000000E+00 0.  1.
        -11    1    3    3    0    0  0.41255442771E+03 -0.34210976138E+03 -0.17285439481E+03  0.56313309835E+03  0.00000000000E+00 0. -1.
         22    1    1    2    0    0 -0.74021132677E+03  0.55952011070E+03 -0.30120757479E+04  0.31517575848E+04  0.00000000000E+00 0.  1.
<mgrwt>
<rscale>  0 0.25278044E+04</rscale>
<asrwt>0</asrwt>
<pdfrwt beam="1">  1        2 0.56587933E+00 0.25278044E+04</pdfrwt>
<pdfrwt beam="2">  1       -2 0.66815370E-01 0.25278044E+04</pdfrwt>
<totfact> 0.11106315E+00</totfact>
</mgrwt>
</event>
<event>
 6    1  0.5040916E-004  0.3656331E+04  0.7818608E-02  0.8077709E-01
         -2   -1    0    0    0  501 -0.00000000000E+00  0.00000000000E+00  0.25936377190E+04  0.25936377190E+04  0.00000000000E+00 0.  1.
          2   -1    0    0  501    0  0.00000000000E+00 -0.00000000000E+00 -0.12886109422E+04  0.12886109422E+04  0.00000000000E+00 0. -1.
         23    2    1    2    0    0  0.86691705271E+03  0.75440564401E+03 -0.85455991238E+03  0.14359273986E+04  0.10460305104E+03 0.  0.
         13    1    3    3    0    0  0.25173342914E+03  0.17548287773E+03 -0.18804630862E+03  0.35989633772E+03  0.00000000000E+00 0.  1.
        -13    1    3    3    0    0  0.61518362357E+03  0.57892276629E+03 -0.66651360376E+03  0.10760310609E+04  0.00000000000E+00 0. -1.
         22    1    1    2    0    0 -0.86691705271E+03 -0.75440564401E+03  0.21595866891E+04  0.24463212626E+04  0.00000000000E+00 0.  1.
<mgrwt>
<rscale>  0 0.36563315E+04</rscale>
<asrwt>0</asrwt>
<pdfrwt beam="1">  1        2 0.19824784E+00 0.36563315E+04</pdfrwt>
<pdfrwt beam="2">  1       -2 0.39902119E+00 0.36563315E+04</pdfrwt>
<totfact> 0.10250729E-01</totfact>
</mgrwt>
</event>
<event>
 6    1  0.5040916E-004  0.1040702E+04  0.7818608E-02  0.9264997E-01
          2   -1    0    0  501    0  0.00000000000E+00  0.00000000000E+00  0.21281730160E+04  0.21281730160E+04  0.00000000000E+00 0.  1.
         -2   -1    0    0    0  501 -0.00000000000E+00 -0.00000000000E+00 -0.12722887430E+03  0.12722887430E+03  0.00000000000E+00 0. -1.
         23    2    1    2    0    0  0.50824184522E+03  0.11165345248E+02  0.12038247349E+04  0.13099740576E+04  0.91671157096E+02 0.  0.
         13    1    3    3    0    0  0.38242129255E+02  0.17145175933E+02  0.58618217913E+02  0.72059093659E+02  0.00000000000E+00 0.  1.
        -13    1    3    3    0    0  0.46999971597E+03 -0.59798306844E+01  0.11452065170E+04  0.12379149639E+04  0.00000000000E+00 0. -1.
         22    1    1    2    0    0 -0.50824184522E+03 -0.11165345248E+02  0.79711940686E+03  0.94542783276E+03  0.00000000000E+00 0. -1.
<mgrwt>
<rscale>  0 0.10407018E+04</rscale>
<asrwt>0</asrwt>
<pdfrwt beam="1">  1        2 0.32741121E+00 0.10407018E+04</pdfrwt>
<pdfrwt beam="2">  1       -2 0.19573675E-01 0.10407018E+04</pdfrwt>
<totfact> 0.12588948E+02</totfact>
</mgrwt>
</event>
<event>
 6    1  0.5040916E-004  0.4130677E+04  0.7818608E-02  0.7978691E-01
          2   -1    0    0  501    0  0.00000000000E+00  0.00000000000E+00  0.25212770742E+04  0.25212770742E+04  0.00000000000E+00 0.  1.
         -2   -1    0    0    0  501 -0.00000000000E+00 -0.00000000000E+00 -0.16918505220E+04  0.16918505220E+04  0.00000000000E+00 0. -1.
         23    2    1    2    0    0 -0.76378509419E+03 -0.65451120178E+03 -0.14237660677E+04  0.17456127399E+04  0.91112231558E+02 0.  0.
         13    1    3    3    0    0 -0.21456850808E+03 -0.15017704124E+03 -0.42481074037E+03  0.49905606249E+03  0.00000000000E+00 0. -1.
        -13    1    3    3    0    0 -0.54921658612E+03 -0.50433416055E+03 -0.99895532738E+03  0.12465566774E+04  0.00000000000E+00 0.  1.
         22    1    1    2    0    0  0.76378509419E+03  0.65451120178E+03  0.22531926199E+04  0.24675148563E+04  0.00000000000E+00 0.  1.
<mgrwt>
<rscale>  0 0.41306774E+04</rscale>
<asrwt>0</asrwt>
<pdfrwt beam="1">  1        2 0.38788878E+00 0.41306774E+04</pdfrwt>
<pdfrwt beam="2">  1       -2 0.26028470E+00 0.41306774E+04</pdfrwt>
<totfact> 0.14676830E-01</totfact>
</mgrwt>
</event>
<event>
 6    1  0.5040916E-004  0.3423595E+04  0.7818608E-02  0.8132140E-01
         -2   -1    0    0    0  501 -0.00000000000E+00  0.00000000000E+00  0.20094356610E+04  0.20094356610E+04  0.00000000000E+00 0. -1.
          2   -1    0    0  501    0  0.00000000000E+00 -0.00000000000E+00 -0.14582453403E+04  0.14582453403E+04  0.00000000000E+00 0.  1.
         23    2    1    2    0    0  0.15781634135E+04 -0.57337600788E+03  0.60706659803E+03  0.17876566073E+04  0.88467422222E+02 0.  0.
         11    1    3    3    0    0  0.47046257981E+03 -0.21318581705E+03  0.17656865187E+03  0.54585686806E+03  0.00000000000E+00 0. -1.
        -11    1    3    3    0    0  0.11077008337E+04 -0.36019019083E+03  0.43049794616E+03  0.12417997392E+04  0.00000000000E+00 0.  1.
         22    1    1    2    0    0 -0.15781634135E+04  0.57337600788E+03 -0.55876277297E+02  0.16800243940E+04  0.00000000000E+00 0. -1.
<mgrwt>
<rscale>  0 0.34235947E+04</rscale>
<asrwt>0</asrwt>
<pdfrwt beam="1">  1        2 0.22434544E+00 0.34235947E+04</pdfrwt>
<pdfrwt beam="2">  1       -2 0.30914395E+00 0.34235947E+04</pdfrwt>
<totfact> 0.30953545E-01</totfact>
</mgrwt>
</event>
<event>
 6    1  0.5040916E-004  0.1044054E+04  0.7818608E-02  0.9261505E-01
          1   -1    0    0  501    0  0.00000000000E+00  0.00000000000E+00  0.55267547794E+03  0.55267547794E+03  0.00000000000E+00 0. -1.
         -1   -1    0    0    0  501 -0.00000000000E+00 -0.00000000000E+00 -0.49307795983E+03  0.49307795983E+03  0.00000000000E+00 0.  1.
         23    2    1    2    0    0  0.26593973012E+03  0.31794870519E+03 -0.28111772951E+03  0.50918825148E+03  0.91816003058E+02 0.  0.
         11    1    3    3    0    0  0.13766785841E+03  0.10892200283E+03 -0.84334316880E+02  0.19475296902E+03  0.00000000000E+00 0.  1.
        -11    1    3    3    0    0  0.12827187171E+03  0.20902670235E+03 -0.19678341263E+03  0.31443528246E+03  0.00000000000E+00 0. -1.
         22    1    1    2    0    0 -0.26593973012E+03 -0.31794870519E+03  0.34071524762E+03  0.53656518629E+03  0.00000000000E+00 0. -1.
<mgrwt>
<rscale>  0 0.10440538E+04</rscale>
<asrwt>0</asrwt>
<pdfrwt beam="1">  1        1 0.85026996E-01 0.10440538E+04</pdfrwt>
<pdfrwt beam="2">  1       -1 0.75858148E-01 0.10440538E+04</pdfrwt>
<totfact> 0.67290528E+01</totfact>
</mgrwt>
</event>
<event>
 6    1  0.5040916E-004  0.8539926E+03  0.7818608E-02  0.9484994E-01
         -2   -1    0    0    0  501 -0.00000000000E+00  0.00000000000E+00  0.28758037082E+03  0.28758037082E+03  0.00000000000E+00 0. -1.
          2   -1    0    0  501    0  0.00000000000E+00 -0.00000000000E+00 -0.63399958209E+03  0.63399958209E+03  0.00000000000E+00 0.  1.
         23    2    1    2    0    0 -0.14500360279E+03  0.17749216353E+02  0.25161292266E+03  0.30596358478E+03  0.94676147246E+02 0.  0.
         13    1    3    3    0    0 -0.71760864678E+02  0.17116137083E+02  0.20804936679E+03  0.22074220909E+03  0.00000000000E+00 0. -1.
        -13    1    3    3    0    0 -0.73242738112E+02  0.63307926944E+00  0.43563555868E+02  0.85221375695E+02  0.00000000000E+00 0.  1.
         22    1    1    2    0    0  0.14500360279E+03 -0.17749216353E+02 -0.59803213392E+03  0.61561636813E+03  0.00000000000E+00 0.  1.
<mgrwt>
<rscale>  0 0.85399259E+03</rscale>
<asrwt>0</asrwt>
<pdfrwt beam="1">  1        2 0.97538397E-01 0.85399259E+03</pdfrwt>
<pdfrwt beam="2">  1       -2 0.44243134E-01 0.85399259E+03</pdfrwt>
<totfact> 0.22568762E+02</totfact>
</mgrwt>
</event>
<event>
 6    1  0.5040916E-004  0.3756722E+04  0.7818608E-02  0.8055507E-01
          2   -1    0    0  501    0  0.00000000000E+00  0.00000000000E+00  0.22943636908E+04  0.22943636908E+04  0.00000000000E+00 0.  1.
         -2   -1    0    0    0  501 -0.00000000000E+00 -0.00000000000E+00 -0.15377856009E+04  0.15377856009E+04  0.00000000000E+00 0. -1.
         23    2    1    2    0    0 -0.57306754109E+03 -0.26604942731E+03 -0.14247410553E+04  0.15611711064E+04  0.90440279816E+02 0.  0.
         11    1    3    3    0    0 -0.11295684377E+03 -0.42932796283E+02 -0.36552246638E+03  0.38497941111E+03  0.00000000000E+00 0. -1.
        -11    1    3    3    0    0 -0.46011069732E+03 -0.22311663103E+03 -0.10592185890E+04  0.11761916953E+04  0.00000000000E+00 0.  1.
         22    1    1    2    0    0  0.57306754109E+03  0.26604942731E+03  0.21813191453E+04  0.22709781853E+04  0.00000000000E+00 0.  1.
<mgrwt>
<rscale>  0 0.37567217E+04</rscale>
<asrwt>0</asrwt>
<pdfrwt beam="1">  1        2 0.35297903E+00 0.37567217E+04</pdfrwt>
<pdfrwt beam="2">  1       -2 0.23658240E+00 0.37567217E+04</pdfrwt>
<totfact> 0.28586395E-01</totfact>
</mgrwt>
</event>
<event>
 6    1  0.5040916E-004  0.4104090E+04  0.7818608E-02  0.7983871E-01
          2   -1    0    0  501    0  0.00000000000E+00  0.00000000000E+00  0.17032755524E+04  0.17032755524E+04  0.00000000000E+00 0.  1.
         -2   -1    0    0    0  501 -0.00000000000E+00 -0.00000000000E+00 -0.24722303857E+04  0.24722303857E+04  0.00000000000E+00 0. -1.
         23    2    1    2    0    0  0.84728001695E+03 -0.72621339327E+03  0.13661655208E+04  0.17663549993E+04  0.91282164373E+02 0.  0.
         13    1    3    3    0    0  0.17326887758E+03 -0.10300039589E+03  0.23730861299E+03  0.31136243077E+03  0.00000000000E+00 0. -1.
        -13    1    3    3    0    0  0.67401113937E+03 -0.62321299738E+03  0.11288569078E+04  0.14549925685E+04  0.00000000000E+00 0.  1.
         22    1    1    2    0    0 -0.84728001695E+03  0.72621339327E+03 -0.21351203541E+04  0.24091509388E+04  0.00000000000E+00 0. -1.
<mgrwt>
<rscale>  0 0.41040904E+04</rscale>
<asrwt>0</asrwt>
<pdfrwt beam="1">  1        2 0.26204239E+00 0.41040904E+04</pdfrwt>
<pdfrwt beam="2">  1       -2 0.38034314E+00 0.41040904E+04</pdfrwt>
<totfact> 0.76075032E-02</totfact>
</mgrwt>
</event>
<event>
 6    1  0.5040916E-004  0.2617321E+04  0.7818608E-02  0.8362341E-01
         -4   -1    0    0    0  501 -0.00000000000E+00  0.00000000000E+00  0.64023254011E+03  0.64023254011E+03  0.00000000000E+00 0. -1.
          4   -1    0    0  501    0  0.00000000000E+00 -0.00000000000E+00 -0.26749537133E+04  0.26749537133E+04  0.00000000000E+00 0.  1.
         23    2    1    2    0    0  0.85733648686E+03 -0.80127349095E+03 -0.29006771546E+03  0.12125971955E+04  0.95852072950E+02 0.  0.
         13    1    3    3    0    0  0.70862395563E+03 -0.63720544818E+03 -0.26865668483E+03  0.99012883403E+03  0.00000000000E+00 0. -1.
        -13    1    3    3    0    0  0.14871253123E+03 -0.16406804277E+03 -0.21411030628E+02  0.22246836143E+03  0.00000000000E+00 0.  1.
         22    1    1    2    0    0 -0.85733648686E+03  0.80127349095E+03 -0.17446534577E+04  0.21025890579E+04  0.00000000000E+00 0.  1.
<mgrwt>
<rscale>  0 0.26173211E+04</rscale>
<asrwt>0</asrwt>
<pdfrwt beam="1">  1        4 0.41153134E+00 0.26173211E+04</pdfrwt>
<pdfrwt beam="2">  1       -4 0.98497313E-01 0.26173211E+04</pdfrwt>
<totfact> 0.85217560E-03</totfact>
</mgrwt>
</event>
<event>
 6    1  0.5040916E-004  0.1284208E+04  0.7818608E-02  0.9042183E-01
          2   -1    0    0  501    0  0.00000000000E+00  0.00000000000E+00  0.12411257284E+04  0.12411257284E+04  0.00000000000E+00 0.  1.
         -2   -1    0    0    0  501 -0.00000000000E+00 -0.00000000000E+00 -0.33219629357E+03  0.33219629357E+03  0.00000000000E+00 0. -1.
         23    2    1    2    0    0  0.18699842250E+03  0.60026115384E+03  0.59713579056E+03  0.87154061764E+03  0.87920606245E+02 0.  0.
         13    1    3    3    0    0  0.93063860464E+02  0.17739248809E+03  0.21554990085E+03  0.29426304000E+03  0.00000000000E+00 0.  1.
        -13    1    3    3    0    0  0.93934562041E+02  0.42286866575E+03  0.38158588972E+03  0.57727757764E+03  0.00000000000E+00 0. -1.
         22    1    1    2    0    0 -0.18699842250E+03 -0.60026115384E+03  0.31179364424E+03  0.70178140429E+03  0.00000000000E+00 0. -1.
<mgrwt>
<rscale>  0 0.12842077E+04</rscale>
<asrwt>0</asrwt>
<pdfrwt beam="1">  1        2 0.19094242E+00 0.12842077E+04</pdfrwt>
<pdfrwt beam="2">  1       -2 0.51107122E-01 0.12842077E+04</pdfrwt>
<totfact> 0.63547100E+01</totfact>
</mgrwt>
</event>
<event>
 6    1  0.5040916E-004  0.1708847E+04  0.7818608E-02  0.8756335E-01
         -2   -1    0    0    0  501 -0.00000000000E+00  0.00000000000E+00  0.31618296838E+03  0.31618296838E+03  0.00000000000E+00 0. -1.
          2   -1    0    0  501    0  0.00000000000E+00 -0.00000000000E+00 -0.23089152835E+04  0.23089152835E+04  0.00000000000E+00 0.  1.
         23    2    1    2    0    0  0.40810707438E+03  0.27561409934E+03 -0.20671412735E+04  0.21270508555E+04  0.93583017586E+02 0.  0.
         11    1    3    3    0    0  0.19465850696E+03  0.75816332040E+02 -0.86154953365E+03  0.88651432559E+03  0.00000000000E+00 0.  1.
        -11    1    3    3    0    0  0.21344856742E+03  0.19979776730E+03 -0.12055917399E+04  0.12405365299E+04  0.00000000000E+00 0. -1.
         22    1    1    2    0    0 -0.40810707438E+03 -0.27561409934E+03  0.74408958457E+02  0.49804739635E+03  0.00000000000E+00 0. -1.
<mgrwt>
<rscale>  0 0.17088472E+04</rscale>
<asrwt>0</asrwt>
<pdfrwt beam="1">  1        2 0.35521773E+00 0.17088472E+04</pdfrwt>
<pdfrwt beam="2">  1       -2 0.48643534E-01 0.17088472E+04</pdfrwt>
<totfact> 0.17068299E+01</totfact>
</mgrwt>
</event>
<event>
 6    1  0.5040916E-004  0.4592271E+04  0.7818608E-02  0.7894679E-01
         -2   -1    0    0    0  501 -0.00000000000E+00  0.00000000000E+00  0.20787653055E+04  0.20787653055E+04  0.00000000000E+00 0. -1.
          2   -1    0    0  501    0  0.00000000000E+00 -0.00000000000E+00 -0.25362353222E+04  0.25362353222E+04  0.00000000000E+00 0.  1.
         23    2    1    2    0    0 -0.80686111313E+03  0.23263584263E+03 -0.23754242338E+04  0.25212736470E+04  0.95059042429E+02 0.  0.
         13    1    3    3    0    0 -0.33593832112E+03  0.13352385817E+03 -0.92687352928E+03  0.99487572871E+03  0.00000000000E+00 0. -1.
        -13    1    3    3    0    0 -0.47092279201E+03  0.99111984460E+02 -0.14485507045E+04  0.15263979183E+04  0.00000000000E+00 0.  1.
         22    1    1    2    0    0  0.80686111313E+03 -0.23263584263E+03  0.19179542170E+04  0.20937269807E+04  0.00000000000E+00 0. -1.
<mgrwt>
<rscale>  0 0.45922709E+04</rscale>
<asrwt>0</asrwt>
<pdfrwt beam="1">  1        2 0.39019005E+00 0.45922709E+04</pdfrwt>
<pdfrwt beam="2">  1       -2 0.31981005E+00 0.45922709E+04</pdfrwt>
<totfact> 0.59880936E-02</totfact>
</mgrwt>
</event>
<event>
 6    1  0.5040916E-004  0.7552024E+03  0.7818608E-02  0.9627224E-01
          1   -1    0    0  501    0  0.00000000000E+00  0.00000000000E+00  0.66457716629E+03  0.66457716629E+03  0.00000000000E+00 0.  1.
         -1   -1    0    0    0  501 -0.00000000000E+00 -0.00000000000E+00 -0.21454643205E+03  0.21454643205E+03  0.00000000000E+00 0. -1.
         23    2    1    2    0    0  0.18825367534E+03 -0.24223693217E+02 -0.14347529771E+03  0.25600591799E+03  0.94486165127E+02 0.  0.
         11    1    3    3    0    0  0.17284899050E+03 -0.17913576214E+02 -0.81691385272E+02  0.19201862450E+03  0.00000000000E+00 0.  1.
        -11    1    3    3    0    0  0.15404684848E+02 -0.63101170032E+01 -0.61783912440E+02  0.63987293491E+02  0.00000000000E+00 0. -1.
         22    1    1    2    0    0 -0.18825367534E+03  0.24223693217E+02  0.59350603195E+03  0.62311768034E+03  0.00000000000E+00 0.  1.
<mgrwt>
<rscale>  0 0.75520238E+03</rscale>
<asrwt>0</asrwt>
<pdfrwt beam="1">  1        1 0.10224264E+00 0.75520238E+03</pdfrwt>
<pdfrwt beam="2">  1       -1 0.33007144E-01 0.75520238E+03</pdfrwt>
<totfact> 0.25670929E+02</totfact>
</mgrwt>
</event>
<event>
 6    1  0.5040916E-004  0.3221142E+04  0.7818608E-02  0.8183256E-01
          2   -1    0    0  501    0  0.00000000000E+00  0.00000000000E+00  0.16265534095E+04  0.16265534095E+04  0.00000000000E+00 0.  1.
         -2   -1    0    0    0  501 -0.00000000000E+00 -0.00000000000E+00 -0.15947456223E+04  0.15947456223E+04  0.00000000000E+00 0. -1.
         23    2    1    2    0    0  0.64927248034E+03 -0.12796696641E+04 -0.71246736748E+03  0.16048044575E+04  0.93157899093E+02 0.  0.
         11    1    3    3    0    0  0.47908732346E+03 -0.86738450611E+03 -0.46271289199E+03  0.10936104267E+04  0.00000000000E+00 0.  1.
        -11    1    3    3    0    0  0.17018515688E+03 -0.41228515794E+03 -0.24975447549E+03  0.51119403078E+03  0.00000000000E+00 0. -1.
         22    1    1    2    0    0 -0.64927248034E+03  0.12796696641E+04  0.74427515465E+03  0.16164945743E+04  0.00000000000E+00 0. -1.
<mgrwt>
<rscale>  0 0.32211420E+04</rscale>
<asrwt>0</asrwt>
<pdfrwt beam="1">  1        2 0.25023899E+00 0.32211420E+04</pdfrwt>
<pdfrwt beam="2">  1       -2 0.24534548E+00 0.32211420E+04</pdfrwt>
<totfact> 0.62192310E-01</totfact>
</mgrwt>
</event>
<event>
 6    1  0.5040916E-004  0.1240222E+04  0.7818608E-02  0.9078361E-01
         -2   -1    0    0    0  501 -0.00000000000E+00  0.00000000000E+00  0.31632036264E+03  0.31632036264E+03  0.00000000000E+00 0. -1.
          2   -1    0    0  501    0  0.00000000000E+00 -0.00000000000E+00 -0.12156584386E+04  0.12156584386E+04  0.00000000000E+00 0.  1.
         23    2    1    2    0    0  0.15175422079E+03  0.22136743652E+03 -0.11380377430E+04  0.11727986007E+04  0.91070126376E+02 0.  0.
         11    1    3    3    0    0  0.95163416228E+02  0.14822968315E+03 -0.54957830467E+03  0.57711734310E+03  0.00000000000E+00 0. -1.
        -11    1    3    3    0    0  0.56590804558E+02  0.73137753379E+02 -0.58845943829E+03  0.59568125759E+03  0.00000000000E+00 0.  1.
         22    1    1    2    0    0 -0.15175422079E+03 -0.22136743652E+03  0.23869966696E+03  0.35918020058E+03  0.00000000000E+00 0. -1.
<mgrwt>
<rscale>  0 0.12402218E+04</rscale>
<asrwt>0</asrwt>
<pdfrwt beam="1">  1        2 0.18702438E+00 0.12402218E+04</pdfrwt>
<pdfrwt beam="2">  1       -2 0.48664671E-01 0.12402218E+04</pdfrwt>
<totfact> 0.72930057E+01</totfact>
</mgrwt>
</event>
<event>
 6    1  0.5040916E-004  0.3765526E+04  0.7818608E-02  0.8053594E-01
          1   -1    0    0  501    0  0.00000000000E+00  0.00000000000E+00  0.19293867948E+04  0.19293867948E+04  0.00000000000E+00 0.  1.
         -1   -1    0    0    0  501 -0.00000000000E+00 -0.00000000000E+00 -0.18372657576E+04  0.18372657576E+04  0.00000000000E+00 0. -1.
         23    2    1    2    0    0  0.83832729598E+03  0.24512684096E+03  0.17132652618E+04  0.19251888898E+04  0.90523924514E+02 0.  0.
         11    1    3    3    0    0  0.53618726461E+03  0.12987809018E+03  0.11558882405E+04  0.12807976911E+04  0.00000000000E+00 0.  1.
        -11    1    3    3    0    0  0.30214003137E+03  0.11524875079E+03  0.55737702127E+03  0.64439119869E+03  0.00000000000E+00 0. -1.
         22    1    1    2    0    0 -0.83832729598E+03 -0.24512684096E+03 -0.16211442247E+04  0.18414636625E+04  0.00000000000E+00 0. -1.
<mgrwt>
<rscale>  0 0.37655259E+04</rscale>
<asrwt>0</asrwt>
<pdfrwt beam="1">  1        1 0.29682874E+00 0.37655259E+04</pdfrwt>
<pdfrwt beam="2">  1       -1 0.28265627E+00 0.37655259E+04</pdfrwt>
<totfact> 0.11359579E-01</totfact>
</mgrwt>
</event>
<event>
 6    1  0.5040916E-004  0.3709339E+04  0.7818608E-02  0.8065895E-01
         -2   -1    0    0    0  501 -0.00000000000E+00  0.00000000000E+00  0.52841295836E+04  0.52841295836E+04  0.00000000000E+00 0. -1.
          2   -1    0    0  501    0  0.00000000000E+00 -0.00000000000E+00 -0.65096777669E+03  0.65096777669E+03  0.00000000000E+00 0.  1.
         23    2    1    2    0    0 -0.16788961041E+04  0.49701117815E+03  0.32910523624E+04  0.37289763299E+04  0.92339469689E+02 0.  0.
         11    1    3    3    0    0 -0.74526231217E+03  0.17313197585E+03  0.14258688306E+04  0.16181756756E+04  0.00000000000E+00 0.  1.
        -11    1    3    3    0    0 -0.93363379191E+03  0.32387920230E+03  0.18651835318E+04  0.21108006544E+04  0.00000000000E+00 0. -1.
         22    1    1    2    0    0  0.16788961041E+04 -0.49701117815E+03  0.13421094445E+04  0.22061210303E+04  0.00000000000E+00 0.  1.
<mgrwt>
<rscale>  0 0.37093385E+04</rscale>
<asrwt>0</asrwt>
<pdfrwt beam="1">  1        2 0.10014889E+00 0.37093385E+04</pdfrwt>
<pdfrwt beam="2">  1       -2 0.81294298E+00 0.37093385E+04</pdfrwt>
<totfact> 0.23295500E-03</totfact>
</mgrwt>
</event>
<event>
 6    1  0.5040916E-004  0.4910600E+04  0.7818608E-02  0.7842448E-01
          2   -1    0    0  501    0  0.00000000000E+00  0.00000000000E+00  0.34495167786E+04  0.34495167786E+04  0.00000000000E+00 0.  1.
         -2   -1    0    0    0  501 -0.00000000000E+00 -0.00000000000E+00 -0.17476354124E+04  0.17476354124E+04  0.00000000000E+00 0. -1.
         23    2    1    2    0    0 -0.20342200855E+03  0.48847470019E+03  0.33877858815E+04  0.34301598082E+04  0.94419728387E+02 0.  0.
         13    1    3    3    0    0 -0.12401699701E+03  0.18552139183E+03  0.15215576852E+04  0.15378349039E+04  0.00000000000E+00 0. -1.
        -13    1    3    3    0    0 -0.79405011534E+02  0.30295330837E+03  0.18662281963E+04  0.18923249043E+04  0.00000000000E+00 0.  1.
         22    1    1    2    0    0  0.20342200855E+03 -0.48847470019E+03 -0.16859045152E+04  0.17669923827E+04  0.00000000000E+00 0. -1.
<mgrwt>
<rscale>  0 0.49105998E+04</rscale>
<asrwt>0</asrwt>
<pdfrwt beam="1">  1        2 0.53069489E+00 0.49105998E+04</pdfrwt>
<pdfrwt beam="2">  1       -2 0.26886699E+00 0.49105998E+04</pdfrwt>
<totfact> 0.31772109E-02</totfact>
</mgrwt>
</event>
<event>
 6    1  0.5040916E-004  0.2417688E+04  0.7818608E-02  0.8432911E-01
         -2   -1    0    0    0  501 -0.00000000000E+00  0.00000000000E+00  0.21108570133E+04  0.21108570133E+04  0.00000000000E+00 0. -1.
          2   -1    0    0  501    0  0.00000000000E+00 -0.00000000000E+00 -0.69228007425E+03  0.69228007425E+03  0.00000000000E+00 0.  1.
         23    2    1    2    0    0 -0.20303910810E+03  0.95424751833E+03 -0.11391154562E+03  0.98645490255E+03  0.91127541848E+02 0.  0.
         11    1    3    3    0    0 -0.15243083821E+03  0.77155006269E+03 -0.57032089544E+02  0.78852857838E+03  0.00000000000E+00 0.  1.
        -11    1    3    3    0    0 -0.50608269891E+02  0.18269745563E+03 -0.56879456074E+02  0.19792632417E+03  0.00000000000E+00 0. -1.
         22    1    1    2    0    0  0.20303910810E+03 -0.95424751833E+03  0.15324884847E+04  0.18166821850E+04  0.00000000000E+00 0. -1.
<mgrwt>
<rscale>  0 0.24176884E+04</rscale>
<asrwt>0</asrwt>
<pdfrwt beam="1">  1        2 0.10650463E+00 0.24176884E+04</pdfrwt>
<pdfrwt beam="2">  1       -2 0.32474723E+00 0.24176884E+04</pdfrwt>
<totfact> 0.83535660E-01</totfact>
</mgrwt>
</event>
<event>
 6    1  0.5040916E-004  0.5518609E+04  0.7818608E-02  0.7753134E-01
         -2   -1    0    0    0  501 -0.00000000000E+00  0.00000000000E+00  0.19677744205E+04  0.19677744205E+04  0.00000000000E+00 0. -1.
          2   -1    0    0  501    0  0.00000000000E+00 -0.00000000000E+00 -0.38692253546E+04  0.38692253546E+04  0.00000000000E+00 0.  1.
         23    2    1    2    0    0 -0.51827357451E+03 -0.70230533128E+03 -0.37187833457E+04  0.38209299920E+04  0.91192953559E+02 0.  0.
         13    1    3    3    0    0 -0.18079381852E+03 -0.27561527796E+03 -0.12317149140E+04  0.12750575735E+04  0.00000000000E+00 0. -1.
        -13    1    3    3    0    0 -0.33747975599E+03 -0.42669005332E+03 -0.24870684317E+04  0.25458724185E+04  0.00000000000E+00 0.  1.
         22    1    1    2    0    0  0.51827357451E+03  0.70230533128E+03  0.18173324116E+04  0.20160697831E+04  0.00000000000E+00 0. -1.
<mgrwt>
<rscale>  0 0.55186095E+04</rscale>
<asrwt>0</asrwt>
<pdfrwt beam="1">  1        2 0.59526543E+00 0.55186095E+04</pdfrwt>
<pdfrwt beam="2">  1       -2 0.30273453E+00 0.55186095E+04</pdfrwt>
<totfact> 0.92457501E-03</totfact>
</mgrwt>
</event>
<event>
 6    1  0.5040916E-004  0.7929256E+03  0.7818608E-02  0.9570314E-01
          2   -1    0    0  501    0  0.00000000000E+00  0.00000000000E+00  0.27584856216E+04  0.27584856216E+04  0.00000000000E+00 0.  1.
         -2   -1    0    0    0  501 -0.00000000000E+00 -0.00000000000E+00 -0.56981538004E+02  0.56981538004E+02  0.00000000000E+00 0. -1.
         23    2    1    2    0    0  0.33535507582E+03 -0.18528688032E+03  0.16571961855E+04  0.17030943620E+04  0.86237773868E+02 0.  0.
         11    1    3    3    0    0  0.27587257236E+03 -0.11062335076E+03  0.12641404775E+04  0.12986124706E+04  0.00000000000E+00 0. -1.
        -11    1    3    3    0    0  0.59482503454E+02 -0.74663529558E+02  0.39305570806E+03  0.40448189144E+03  0.00000000000E+00 0.  1.
         22    1    1    2    0    0 -0.33535507582E+03  0.18528688032E+03  0.10443078981E+04  0.11123727976E+04  0.00000000000E+00 0.  1.
<mgrwt>
<rscale>  0 0.79292560E+03</rscale>
<asrwt>0</asrwt>
<pdfrwt beam="1">  1        2 0.42438230E+00 0.79292560E+03</pdfrwt>
<pdfrwt beam="2">  1       -2 0.87663926E-02 0.79292560E+03</pdfrwt>
<totfact> 0.21683741E+02</totfact>
</mgrwt>
</event>
<event>
 6    1  0.5040916E-004  0.9500225E+03  0.7818608E-02  0.9365124E-01
         -2   -1    0    0    0  501 -0.00000000000E+00  0.00000000000E+00  0.17243292582E+03  0.17243292582E+03  0.00000000000E+00 0. -1.
          2   -1    0    0  501    0  0.00000000000E+00 -0.00000000000E+00 -0.13085416722E+04  0.13085416722E+04  0.00000000000E+00 0.  1.
         23    2    1    2    0    0 -0.35083012385E+03 -0.27349746400E+03 -0.33293033974E+03  0.56283615994E+03  0.89773566236E+02 0.  0.
         11    1    3    3    0    0 -0.19013493959E+03 -0.94029285658E+02 -0.17254610416E+03  0.27343181943E+03  0.00000000000E+00 0.  1.
        -11    1    3    3    0    0 -0.16069518426E+03 -0.17946817835E+03 -0.16038423558E+03  0.28940434051E+03  0.00000000000E+00 0. -1.
         22    1    1    2    0    0  0.35083012385E+03  0.27349746400E+03 -0.80317840667E+03  0.91813843812E+03  0.00000000000E+00 0. -1.
<mgrwt>
<rscale>  0 0.95002246E+03</rscale>
<asrwt>0</asrwt>
<pdfrwt beam="1">  1        2 0.20131410E+00 0.95002246E+03</pdfrwt>
<pdfrwt beam="2">  1       -2 0.26528142E-01 0.95002246E+03</pdfrwt>
<totfact> 0.21025904E+02</totfact>
</mgrwt>
</event>
<event>
 6    1  0.5040916E-004  0.5311023E+04  0.7818608E-02  0.7782242E-01
          2   -1    0    0  501    0  0.00000000000E+00  0.00000000000E+00  0.37955022447E+04  0.37955022447E+04  0.00000000000E+00 0.  1.
         -2   -1    0    0    0  501 -0.00000000000E+00 -0.00000000000E+00 -0.18579203222E+04  0.18579203222E+04  0.00000000000E+00 0. -1.
         23    2    1    2    0    0  0.62472619324E+03  0.25445678209E+04  0.14237167468E+04  0.29833728238E+04  0.91846714624E+02 0.  0.
         11    1    3    3    0    0  0.28942089581E+03  0.12600470124E+04  0.74982064872E+03  0.14945614519E+04  0.00000000000E+00 0.  1.
        -11    1    3    3    0    0  0.33530529744E+03  0.12845208086E+04  0.67389609806E+03  0.14888113719E+04  0.00000000000E+00 0. -1.
         22    1    1    2    0    0 -0.62472619324E+03 -0.25445678209E+04  0.51386517574E+03  0.26700497431E+04  0.00000000000E+00 0.  1.
<mgrwt>
<rscale>  0 0.53110228E+04</rscale>
<asrwt>0</asrwt>
<pdfrwt beam="1">  1        2 0.58392342E+00 0.53110228E+04</pdfrwt>
<pdfrwt beam="2">  1       -2 0.28583390E+00 0.53110228E+04</pdfrwt>
<totfact> 0.13593559E-02</totfact>
</mgrwt>
</event>
<event>
 6    1  0.5040916E-004  0.1863835E+04  0.7818608E-02  0.8673070E-01
          2   -1    0    0  501    0  0.00000000000E+00  0.00000000000E+00  0.23622848873E+04  0.23622848873E+04  0.00000000000E+00 0.  1.
         -2   -1    0    0    0  501 -0.00000000000E+00 -0.00000000000E+00 -0.36764009168E+03  0.36764009168E+03  0.00000000000E+00 0. -1.
         23    2    1    2    0    0  0.16470904018E+02 -0.88095815450E+03  0.56105119188E+03  0.10472042115E+04  0.74159692634E+02 0.  0.
         11    1    3    3    0    0  0.33403775568E+02 -0.69602765632E+03  0.46881127784E+03  0.83985375204E+03  0.00000000000E+00 0. -1.
        -11    1    3    3    0    0 -0.16932871550E+02 -0.18493049818E+03  0.92239914043E+02  0.20735045946E+03  0.00000000000E+00 0.  1.
         22    1    1    2    0    0 -0.16470904018E+02  0.88095815450E+03  0.14335936038E+04  0.16827207675E+04  0.00000000000E+00 0.  1.
<mgrwt>
<rscale>  0 0.18638354E+04</rscale>
<asrwt>0</asrwt>
<pdfrwt beam="1">  1        2 0.36342843E+00 0.18638354E+04</pdfrwt>
<pdfrwt beam="2">  1       -2 0.56560016E-01 0.18638354E+04</pdfrwt>
<totfact> 0.11514864E+01</totfact>
</mgrwt>
</event>
<event>
 6    1  0.5040916E-004  0.1644356E+04  0.7818608E-02  0.8793753E-01
          2   -1    0    0  501    0  0.00000000000E+00  0.00000000000E+00  0.11407697592E+04  0.11407697592E+04  0.00000000000E+00 0.  1.
         -2   -1    0    0    0  501 -0.00000000000E+00 -0.00000000000E+00 -0.59256167848E+03  0.59256167848E+03  0.00000000000E+00 0. -1.
         23    2    1    2    0    0 -0.58750130991E+03  0.45802460193E+03  0.63485694976E+03  0.98336320392E+03  0.94950087098E+02 0.  0.
         11    1    3    3    0    0 -0.45102580778E+03  0.33221484312E+03  0.42466271116E+03  0.70294338287E+03  0.00000000000E+00 0. -1.
        -11    1    3    3    0    0 -0.13647550212E+03  0.12580975881E+03  0.21019423861E+03  0.28041982105E+03  0.00000000000E+00 0.  1.
         22    1    1    2    0    0  0.58750130991E+03 -0.45802460193E+03 -0.86648869074E+02  0.74996823374E+03  0.00000000000E+00 0. -1.
<mgrwt>
<rscale>  0 0.16443557E+04</rscale>
<asrwt>0</asrwt>
<pdfrwt beam="1">  1        2 0.17550304E+00 0.16443557E+04</pdfrwt>
<pdfrwt beam="2">  1       -2 0.91163335E-01 0.16443557E+04</pdfrwt>
<totfact> 0.20167246E+01</totfact>
</mgrwt>
</event>
<event>
 6    1  0.5040916E-004  0.3081840E+04  0.7818608E-02  0.8220740E-01
          2   -1    0    0  501    0  0.00000000000E+00  0.00000000000E+00  0.75927520335E+03  0.75927520335E+03  0.00000000000E+00 0.  1.
         -2   -1    0    0    0  501 -0.00000000000E+00 -0.00000000000E+00 -0.31272378450E+04  0.31272378450E+04  0.00000000000E+00 0. -1.
         23    2    1    2    0    0 -0.10760951326E+04  0.50038469944E+03  0.51734111750E+02  0.11914624069E+04  0.92415728291E+02 0.  0.
         11    1    3    3    0    0 -0.84758461076E+03  0.35313106998E+03  0.50883880179E+02  0.91961426383E+03  0.00000000000E+00 0.  1.
        -11    1    3    3    0    0 -0.22851052182E+03  0.14725362946E+03  0.85023157130E+00  0.27184814302E+03  0.00000000000E+00 0. -1.
         22    1    1    2    0    0  0.10760951326E+04 -0.50038469944E+03 -0.24196967534E+04  0.26950506415E+04  0.00000000000E+00 0. -1.
<mgrwt>
<rscale>  0 0.30818398E+04</rscale>
<asrwt>0</asrwt>
<pdfrwt beam="1">  1        2 0.11681157E+00 0.30818398E+04</pdfrwt>
<pdfrwt beam="2">  1       -2 0.48111352E+00 0.30818398E+04</pdfrwt>
<totfact> 0.68005912E-02</totfact>
</mgrwt>
</event>
<event>
 6    1  0.5040916E-004  0.1870386E+04  0.7818608E-02  0.8669739E-01
          2   -1    0    0  501    0  0.00000000000E+00  0.00000000000E+00  0.13629805421E+04  0.13629805421E+04  0.00000000000E+00 0.  1.
         -2   -1    0    0    0  501 -0.00000000000E+00 -0.00000000000E+00 -0.64167139324E+03  0.64167139324E+03  0.00000000000E+00 0. -1.
         23    2    1    2    0    0  0.60050978518E+03  0.25162539069E+03  0.10779293857E+04  0.12622872455E+04  0.86660199838E+02 0.  0.
         11    1    3    3    0    0  0.16111015218E+03  0.43989095475E+02  0.33835113672E+03  0.37732348638E+03  0.00000000000E+00 0.  1.
        -11    1    3    3    0    0  0.43939963300E+03  0.20763629521E+03  0.73957824901E+03  0.88496375913E+03  0.00000000000E+00 0. -1.
         22    1    1    2    0    0 -0.60050978518E+03 -0.25162539069E+03 -0.35662023688E+03  0.74236468982E+03  0.00000000000E+00 0. -1.
<mgrwt>
<rscale>  0 0.18703857E+04</rscale>
<asrwt>0</asrwt>
<pdfrwt beam="1">  1        2 0.20968931E+00 0.18703857E+04</pdfrwt>
<pdfrwt beam="2">  1       -2 0.98718676E-01 0.18703857E+04</pdfrwt>
<totfact> 0.12151380E+01</totfact>
</mgrwt>
</event>
<event>
 6    1  0.5040916E-004  0.1247488E+04  0.7818608E-02  0.9072277E-01
         -2   -1    0    0    0  501 -0.00000000000E+00  0.00000000000E+00  0.27939914743E+03  0.27939914743E+03  0.00000000000E+00 0. -1.
          2   -1    0    0  501    0  0.00000000000E+00 -0.00000000000E+00 -0.13924760294E+04  0.13924760294E+04  0.00000000000E+00 0.  1.
         23    2    1    2    0    0  0.31365847735E+03  0.53486607934E+02  0.15435305831E+03  0.36511540123E+03  0.90785086663E+02 0.  0.
         13    1    3    3    0    0  0.22424378838E+03  0.78507211460E+02  0.10237412980E+03  0.25870663179E+03  0.00000000000E+00 0.  1.
        -13    1    3    3    0    0  0.89414688971E+02 -0.25020603526E+02  0.51978928508E+02  0.10640876944E+03  0.00000000000E+00 0. -1.
         22    1    1    2    0    0 -0.31365847735E+03 -0.53486607934E+02 -0.12674299403E+04  0.13067597757E+04  0.00000000000E+00 0.  1.
<mgrwt>
<rscale>  0 0.12474881E+04</rscale>
<asrwt>0</asrwt>
<pdfrwt beam="1">  1        2 0.21422708E+00 0.12474881E+04</pdfrwt>
<pdfrwt beam="2">  1       -2 0.42984485E-01 0.12474881E+04</pdfrwt>
<totfact> 0.73735000E+01</totfact>
</mgrwt>
</event>
<event>
 6    1  0.5040916E-004  0.2036417E+04  0.7818608E-02  0.8589781E-01
          2   -1    0    0  501    0  0.00000000000E+00  0.00000000000E+00  0.20652850287E+04  0.20652850287E+04  0.00000000000E+00 0.  1.
         -2   -1    0    0    0  501 -0.00000000000E+00 -0.00000000000E+00 -0.50198818216E+03  0.50198818216E+03  0.00000000000E+00 0. -1.
         23    2    1    2    0    0 -0.61243479425E+03 -0.53057623409E+03  0.15561557852E+04  0.17569408641E+04  0.92913157156E+02 0.  0.
         13    1    3    3    0    0 -0.34095626815E+03 -0.27067313269E+03  0.74319225967E+03  0.86130706278E+03  0.00000000000E+00 0. -1.
        -13    1    3    3    0    0 -0.27147852610E+03 -0.25990310140E+03  0.81296352552E+03  0.89563380133E+03  0.00000000000E+00 0.  1.
         22    1    1    2    0    0  0.61243479425E+03  0.53057623409E+03  0.71410613080E+01  0.81033234672E+03  0.00000000000E+00 0. -1.
<mgrwt>
<rscale>  0 0.20364171E+04</rscale>
<asrwt>0</asrwt>
<pdfrwt beam="1">  1        2 0.31773615E+00 0.20364171E+04</pdfrwt>
<pdfrwt beam="2">  1       -2 0.77228952E-01 0.20364171E+04</pdfrwt>
<totfact> 0.85139265E+00</totfact>
</mgrwt>
</event>
<event>
 6    1  0.5040916E-004  0.8853420E+03  0.7818608E-02  0.9444092E-01
          2   -1    0    0  501    0  0.00000000000E+00  0.00000000000E+00  0.18009036301E+04  0.18009036301E+04  0.00000000000E+00 0.  1.
         -2   -1    0    0    0  501 -0.00000000000E+00 -0.00000000000E+00 -0.10881070458E+03  0.10881070458E+03  0.00000000000E+00 0. -1.
         23    2    1    2    0    0 -0.32120881495E+03  0.17700826102E+03  0.33770760287E+03  0.50655125453E+03  0.89670068352E+02 0.  0.
         13    1    3    3    0    0 -0.78828051907E+02  0.35033214787E+01  0.59672418891E+02  0.98928927039E+02  0.00000000000E+00 0.  1.
        -13    1    3    3    0    0 -0.24238076304E+03  0.17350493954E+03  0.27803518398E+03  0.40762232749E+03  0.00000000000E+00 0. -1.
         22    1    1    2    0    0  0.32120881495E+03 -0.17700826102E+03  0.13543853227E+04  0.14031630802E+04  0.00000000000E+00 0.  1.
<mgrwt>
<rscale>  0 0.88534195E+03</rscale>
<asrwt>0</asrwt>
<pdfrwt beam="1">  1        2 0.27706208E+00 0.88534195E+03</pdfrwt>
<pdfrwt beam="2">  1       -2 0.16740110E-01 0.88534195E+03</pdfrwt>
<totfact> 0.25276483E+02</totfact>
</mgrwt>
</event>
<event>
 6    1  0.5040916E-004  0.1737550E+04  0.7818608E-02  0.8740233E-01
          2   -1    0    0  501    0  0.00000000000E+00  0.00000000000E+00  0.56980162905E+03  0.56980162905E+03  0.00000000000E+00 0.  1.
         -2   -1    0    0    0  501 -0.00000000000E+00 -0.00000000000E+00 -0.13246193409E+04  0.13246193409E+04  0.00000000000E+00 0. -1.
         23    2    1    2    0    0  0.33918268814E+03  0.75241854025E+03 -0.91156454330E+02  0.83535306829E+03  0.91250719919E+02 0.  0.
         13    1    3    3    0    0  0.14317884998E+03  0.21791383040E+03 -0.18000949822E+02  0.26136307075E+03  0.00000000000E+00 0.  1.
        -13    1    3    3    0    0  0.19600383816E+03  0.53450470985E+03 -0.73155504508E+02  0.57398999753E+03  0.00000000000E+00 0. -1.
         22    1    1    2    0    0 -0.33918268814E+03 -0.75241854025E+03 -0.66366125755E+03  0.10590679017E+04  0.00000000000E+00 0. -1.
<mgrwt>
<rscale>  0 0.17375503E+04</rscale>
<asrwt>0</asrwt>
<pdfrwt beam="1">  1        2 0.87661790E-01 0.17375503E+04</pdfrwt>
<pdfrwt beam="2">  1       -2 0.20378759E+00 0.17375503E+04</pdfrwt>
<totfact> 0.62849524E+00</totfact>
</mgrwt>
</event>
<event>
 6    1  0.5040916E-004  0.4044073E+04  0.7818608E-02  0.7995714E-01
         -2   -1    0    0    0  501 -0.00000000000E+00  0.00000000000E+00  0.18246202580E+04  0.18246202580E+04  0.00000000000E+00 0. -1.
          2   -1    0    0  501    0  0.00000000000E+00 -0.00000000000E+00 -0.22408124196E+04  0.22408124196E+04  0.00000000000E+00 0.  1.
         23    2    1    2    0    0  0.19010259623E+04  0.68178225636E+03 -0.13141372803E+03  0.20258676478E+04  0.90240810977E+02 0.  0.
         11    1    3    3    0    0  0.16342365988E+03  0.41968701552E+02 -0.30536777034E+02  0.17146766246E+03  0.00000000000E+00 0. -1.
        -11    1    3    3    0    0  0.17376023024E+04  0.63981355481E+03 -0.10087695099E+03  0.18543999853E+04  0.00000000000E+00 0.  1.
         22    1    1    2    0    0 -0.19010259623E+04 -0.68178225636E+03 -0.28477843357E+03  0.20395650298E+04  0.00000000000E+00 0. -1.
<mgrwt>
<rscale>  0 0.40440731E+04</rscale>
<asrwt>0</asrwt>
<pdfrwt beam="1">  1        2 0.34474037E+00 0.40440731E+04</pdfrwt>
<pdfrwt beam="2">  1       -2 0.28071081E+00 0.40440731E+04</pdfrwt>
<totfact> 0.16052008E-01</totfact>
</mgrwt>
</event>
<event>
 6    1  0.5040916E-004  0.1710572E+04  0.7818608E-02  0.8755357E-01
          2   -1    0    0  501    0  0.00000000000E+00  0.00000000000E+00  0.29322261925E+04  0.29322261925E+04  0.00000000000E+00 0.  1.
         -2   -1    0    0    0  501 -0.00000000000E+00 -0.00000000000E+00 -0.24947407326E+03  0.24947407326E+03  0.00000000000E+00 0. -1.
         23    2    1    2    0    0  0.29063782320E+03  0.41447305404E+03  0.68283466756E+02  0.51867480745E+03  0.90014816850E+02 0.  0.
         11    1    3    3    0    0  0.96002734730E+02  0.71796042010E+02  0.21842137308E+02  0.12185350092E+03  0.00000000000E+00 0. -1.
        -11    1    3    3    0    0  0.19463508847E+03  0.34267701203E+03  0.46441329449E+02  0.39682130653E+03  0.00000000000E+00 0.  1.
         22    1    1    2    0    0 -0.29063782320E+03 -0.41447305404E+03  0.26144686525E+04  0.26630254583E+04  0.00000000000E+00 0.  1.
<mgrwt>
<rscale>  0 0.17105723E+04</rscale>
<asrwt>0</asrwt>
<pdfrwt beam="1">  1        2 0.45111170E+00 0.17105723E+04</pdfrwt>
<pdfrwt beam="2">  1       -2 0.38380629E-01 0.17105723E+04</pdfrwt>
<totfact> 0.11747453E+01</totfact>
</mgrwt>
</event>
<event>
 6    1  0.5040916E-004  0.1173516E+04  0.7818608E-02  0.9136359E-01
         -2   -1    0    0    0  501 -0.00000000000E+00  0.00000000000E+00  0.12350649263E+03  0.12350649263E+03  0.00000000000E+00 0. -1.
          2   -1    0    0  501    0  0.00000000000E+00 -0.00000000000E+00 -0.27875856385E+04  0.27875856385E+04  0.00000000000E+00 0.  1.
         23    2    1    2    0    0 -0.20943768752E+02 -0.58175971914E+03 -0.12594193750E+04  0.13905816629E+04  0.93258708205E+02 0.  0.
         11    1    3    3    0    0 -0.49638459197E+02 -0.43210474375E+03 -0.98342185273E+03  0.10753125251E+04  0.00000000000E+00 0.  1.
        -11    1    3    3    0    0  0.28694690445E+02 -0.14965497539E+03 -0.27599752230E+03  0.31526913777E+03  0.00000000000E+00 0. -1.
         22    1    1    2    0    0  0.20943768752E+02  0.58175971914E+03 -0.14046597709E+04  0.15205104683E+04  0.00000000000E+00 0. -1.
<mgrwt>
<rscale>  0 0.11735160E+04</rscale>
<asrwt>0</asrwt>
<pdfrwt beam="1">  1        2 0.42885932E+00 0.11735160E+04</pdfrwt>
<pdfrwt beam="2">  1       -2 0.19000999E-01 0.11735160E+04</pdfrwt>
<totfact> 0.55009480E+01</totfact>
</mgrwt>
</event>
<event>
 6    1  0.5040916E-004  0.2204346E+04  0.7818608E-02  0.8516622E-01
          2   -1    0    0  501    0  0.00000000000E+00  0.00000000000E+00  0.24783532538E+04  0.24783532538E+04  0.00000000000E+00 0.  1.
         -2   -1    0    0    0  501 -0.00000000000E+00 -0.00000000000E+00 -0.49015809658E+03  0.49015809658E+03  0.00000000000E+00 0. -1.
         23    2    1    2    0    0  0.15708030019E+03  0.38168007082E+03 -0.37799640850E+03  0.56659202974E+03  0.88268602318E+02 0.  0.
         11    1    3    3    0    0  0.12713754793E+03  0.19394738832E+03 -0.21257549602E+03  0.31459161946E+03  0.00000000000E+00 0. -1.
        -11    1    3    3    0    0  0.29942752257E+02  0.18773268250E+03 -0.16542091248E+03  0.25200041027E+03  0.00000000000E+00 0.  1.
         22    1    1    2    0    0 -0.15708030019E+03 -0.38168007082E+03  0.23661915657E+04  0.24019193207E+04  0.00000000000E+00 0.  1.
<mgrwt>
<rscale>  0 0.22043456E+04</rscale>
<asrwt>0</asrwt>
<pdfrwt beam="1">  1        2 0.38128511E+00 0.22043456E+04</pdfrwt>
<pdfrwt beam="2">  1       -2 0.75408939E-01 0.22043456E+04</pdfrwt>
<totfact> 0.51654454E+00</totfact>
</mgrwt>
</event>
<event>
 6    1  0.5040916E-004  0.3082992E+04  0.7818608E-02  0.8220421E-01
         -1   -1    0    0    0  501 -0.00000000000E+00  0.00000000000E+00  0.19642180640E+04  0.19642180640E+04  0.00000000000E+00 0. -1.
          1   -1    0    0  501    0  0.00000000000E+00 -0.00000000000E+00 -0.12097485750E+04  0.12097485750E+04  0.00000000000E+00 0.  1.
         23    2    1    2    0    0 -0.24383593148E+03 -0.14608290260E+04  0.81442386301E+03  0.16917143218E+04  0.71649934211E+02 0.  0.
         13    1    3    3    0    0 -0.12010756093E+03 -0.67557258730E+03  0.33745525391E+03  0.76465691345E+03  0.00000000000E+00 0.  1.
        -13    1    3    3    0    0 -0.12372837055E+03 -0.78525643873E+03  0.47696860910E+03  0.92705740831E+03  0.00000000000E+00 0. -1.
         22    1    1    2    0    0  0.24383593148E+03  0.14608290260E+04 -0.59954373987E+02  0.14822523172E+04  0.00000000000E+00 0.  1.
<mgrwt>
<rscale>  0 0.30829921E+04</rscale>
<asrwt>0</asrwt>
<pdfrwt beam="1">  1        1 0.18611517E+00 0.30829921E+04</pdfrwt>
<pdfrwt beam="2">  1       -1 0.30218739E+00 0.30829921E+04</pdfrwt>
<totfact> 0.28388858E-01</totfact>
</mgrwt>
</event>
<event>
 6    1  0.5040916E-004  0.3252839E+04  0.7818608E-02  0.8175000E-01
         -2   -1    0    0    0  501 -0.00000000000E+00  0.00000000000E+00  0.55881434132E+03  0.55881434132E+03  0.00000000000E+00 0. -1.
          2   -1    0    0  501    0  0.00000000000E+00 -0.00000000000E+00 -0.47336671059E+04  0.47336671059E+04  0.00000000000E+00 0.  1.
         23    2    1    2    0    0  0.20054992663E+03  0.12473433382E+04 -0.37523201366E+04  0.39603329952E+04  0.90803905415E+02 0.  0.
         13    1    3    3    0    0  0.67645436729E+02  0.33500827189E+03 -0.11375057381E+04  0.11877397659E+04  0.00000000000E+00 0. -1.
        -13    1    3    3    0    0  0.13290448990E+03  0.91233506630E+03 -0.26148143985E+04  0.27725932293E+04  0.00000000000E+00 0.  1.
         22    1    1    2    0    0 -0.20054992663E+03 -0.12473433382E+04 -0.42253262797E+03  0.13321484520E+04  0.00000000000E+00 0. -1.
<mgrwt>
<rscale>  0 0.32528394E+04</rscale>
<asrwt>0</asrwt>
<pdfrwt beam="1">  1        2 0.72825648E+00 0.32528394E+04</pdfrwt>
<pdfrwt beam="2">  1       -2 0.85971437E-01 0.32528394E+04</pdfrwt>
<totfact> 0.69182573E-02</totfact>
</mgrwt>
</event>
<event>
 6    1  0.5040916E-004  0.3393072E+04  0.7818608E-02  0.8139609E-01
         -2   -1    0    0    0  501 -0.00000000000E+00  0.00000000000E+00  0.13236041795E+04  0.13236041795E+04  0.00000000000E+00 0. -1.
          2   -1    0    0  501    0  0.00000000000E+00 -0.00000000000E+00 -0.21745430878E+04  0.21745430878E+04  0.00000000000E+00 0.  1.
         23    2    1    2    0    0  0.11128646071E+04 -0.75422985815E+03 -0.14905672183E+04  0.20093710290E+04  0.91929250126E+02 0.  0.
         11    1    3    3    0    0  0.49791553509E+03 -0.33418075214E+03 -0.73326636399E+03  0.94724664990E+03  0.00000000000E+00 0.  1.
        -11    1    3    3    0    0  0.61494907202E+03 -0.42004910601E+03 -0.75730085434E+03  0.10621243791E+04  0.00000000000E+00 0. -1.
         22    1    1    2    0    0 -0.11128646071E+04  0.75422985815E+03  0.63962831012E+03  0.14887762383E+04  0.00000000000E+00 0. -1.
<mgrwt>
<rscale>  0 0.33930720E+04</rscale>
<asrwt>0</asrwt>
<pdfrwt beam="1">  1        2 0.33454509E+00 0.33930720E+04</pdfrwt>
<pdfrwt beam="2">  1       -2 0.20363141E+00 0.33930720E+04</pdfrwt>
<totfact> 0.55704322E-01</totfact>
</mgrwt>
</event>
<event>
 6    1  0.5040916E-004  0.3103710E+04  0.7818608E-02  0.8214720E-01
          2   -1    0    0  501    0  0.00000000000E+00  0.00000000000E+00  0.27965960673E+04  0.27965960673E+04  0.00000000000E+00 0.  1.
         -2   -1    0    0    0  501 -0.00000000000E+00 -0.00000000000E+00 -0.86113774513E+03  0.86113774513E+03  0.00000000000E+00 0. -1.
         23    2    1    2    0    0 -0.10598916137E+04  0.11280876634E+04  0.86088655252E+03  0.17734152361E+04  0.89016481710E+02 0.  0.
         13    1    3    3    0    0 -0.49942836161E+03  0.49769605381E+03  0.43526990819E+03  0.82860723104E+03  0.00000000000E+00 0. -1.
        -13    1    3    3    0    0 -0.56046325208E+03  0.63039160961E+03  0.42561664433E+03  0.94480800501E+03  0.00000000000E+00 0.  1.
         22    1    1    2    0    0  0.10598916137E+04 -0.11280876634E+04  0.10745717696E+04  0.18843185764E+04  0.00000000000E+00 0. -1.
<mgrwt>
<rscale>  0 0.31037103E+04</rscale>
<asrwt>0</asrwt>
<pdfrwt beam="1">  1        2 0.43024555E+00 0.31037103E+04</pdfrwt>
<pdfrwt beam="2">  1       -2 0.13248273E+00 0.31037103E+04</pdfrwt>
<totfact> 0.81588258E-01</totfact>
</mgrwt>
</event>
<event>
 6    1  0.5040916E-004  0.2711118E+04  0.7818608E-02  0.8331407E-01
          2   -1    0    0  501    0  0.00000000000E+00  0.00000000000E+00  0.16906421715E+04  0.16906421715E+04  0.00000000000E+00 0.  1.
         -2   -1    0    0    0  501 -0.00000000000E+00 -0.00000000000E+00 -0.10868887024E+04  0.10868887024E+04  0.00000000000E+00 0. -1.
         23    2    1    2    0    0  0.11427557299E+04 -0.24310319477E+03 -0.39897382198E+03  0.12379036977E+04  0.90750385816E+02 0.  0.
         11    1    3    3    0    0  0.73018357688E+03 -0.16721696637E+03 -0.29976642991E+03  0.80683919233E+03  0.00000000000E+00 0. -1.
        -11    1    3    3    0    0  0.41257215302E+03 -0.75886228399E+02 -0.99207392069E+02  0.43106450532E+03  0.00000000000E+00 0.  1.
         22    1    1    2    0    0 -0.11427557299E+04  0.24310319477E+03  0.10027272910E+04  0.15396271762E+04  0.00000000000E+00 0.  1.
<mgrwt>
<rscale>  0 0.27111178E+04</rscale>
<asrwt>0</asrwt>
<pdfrwt beam="1">  1        2 0.26009879E+00 0.27111178E+04</pdfrwt>
<pdfrwt beam="2">  1       -2 0.16721365E+00 0.27111178E+04</pdfrwt>
<totfact> 0.19415970E+00</totfact>
</mgrwt>
</event>
<event>
 6    1  0.5040916E-004  0.2755076E+04  0.7818608E-02  0.8317353E-01
         -2   -1    0    0    0  501 -0.00000000000E+00  0.00000000000E+00  0.11888181953E+04  0.11888181953E+04  0.00000000000E+00 0. -1.
          2   -1    0    0  501    0  0.00000000000E+00 -0.00000000000E+00 -0.15962158932E+04  0.15962158932E+04  0.00000000000E+00 0.  1.
         23    2    1    2    0    0 -0.52243310764E+03 -0.10255608873E+04  0.55840495680E+03  0.12825407430E+04  0.91559686602E+02 0.  0.
         13    1    3    3    0    0 -0.25164178572E+03 -0.44304068157E+03  0.20365184202E+03  0.54871003873E+03  0.00000000000E+00 0.  1.
        -13    1    3    3    0    0 -0.27079132192E+03 -0.58252020574E+03  0.35475311478E+03  0.73383070430E+03  0.00000000000E+00 0. -1.
         22    1    1    2    0    0  0.52243310764E+03  0.10255608873E+04 -0.96580265466E+03  0.15024933455E+04  0.00000000000E+00 0.  1.
<mgrwt>
<rscale>  0 0.27550757E+04</rscale>
<asrwt>0</asrwt>
<pdfrwt beam="1">  1        2 0.24557167E+00 0.27550757E+04</pdfrwt>
<pdfrwt beam="2">  1       -2 0.18289511E+00 0.27550757E+04</pdfrwt>
<totfact> 0.16953396E+00</totfact>
</mgrwt>
</event>
<event>
 6    1  0.5040916E-004  0.1650270E+04  0.7818608E-02  0.8790247E-01
          1   -1    0    0  501    0  0.00000000000E+00  0.00000000000E+00  0.18057218119E+04  0.18057218119E+04  0.00000000000E+00 0. -1.
         -1   -1    0    0    0  501 -0.00000000000E+00 -0.00000000000E+00 -0.37705026120E+03  0.37705026120E+03  0.00000000000E+00 0.  1.
         23    2    1    2    0    0  0.19350673634E+03  0.79943778791E+03  0.72748094004E+03  0.11019326279E+04  0.92094324458E+02 0.  0.
         13    1    3    3    0    0  0.93673294555E+02  0.21182750593E+03  0.20683144324E+03  0.31052346819E+03  0.00000000000E+00 0.  1.
        -13    1    3    3    0    0  0.99833441784E+02  0.58761028198E+03  0.52064949680E+03  0.79140915973E+03  0.00000000000E+00 0. -1.
         22    1    1    2    0    0 -0.19350673634E+03 -0.79943778791E+03  0.70119061062E+03  0.10808394451E+04  0.00000000000E+00 0.  1.
<mgrwt>
<rscale>  0 0.16502701E+04</rscale>
<asrwt>0</asrwt>
<pdfrwt beam="1">  1        1 0.27780335E+00 0.16502701E+04</pdfrwt>
<pdfrwt beam="2">  1       -1 0.58007734E-01 0.16502701E+04</pdfrwt>
<totfact> 0.11617345E+01</totfact>
</mgrwt>
</event>
<event>
 6    1  0.5040916E-004  0.3827492E+03  0.7818608E-02  0.1049922E+00
         -2   -1    0    0    0  501 -0.00000000000E+00  0.00000000000E+00  0.89627297085E+02  0.89627297085E+02  0.00000000000E+00 0. -1.
          2   -1    0    0  501    0  0.00000000000E+00 -0.00000000000E+00 -0.40862817327E+03  0.40862817327E+03  0.00000000000E+00 0.  1.
         23    2    1    2    0    0  0.11553085019E+03  0.12517649642E+03 -0.96697981187E+02  0.21819278143E+03  0.96130420275E+02 0.  0.
         11    1    3    3    0    0  0.27709508755E+02  0.59025772051E+02  0.88239045249E+01  0.65800607389E+02  0.00000000000E+00 0. -1.
        -11    1    3    3    0    0  0.87821341431E+02  0.66150724374E+02 -0.10552188571E+03  0.15239217404E+03  0.00000000000E+00 0.  1.
         22    1    1    2    0    0 -0.11553085019E+03 -0.12517649642E+03 -0.22230289500E+03  0.28006268892E+03  0.00000000000E+00 0.  1.
<mgrwt>
<rscale>  0 0.38274921E+03</rscale>
<asrwt>0</asrwt>
<pdfrwt beam="1">  1        2 0.62865872E-01 0.38274921E+03</pdfrwt>
<pdfrwt beam="2">  1       -2 0.13788815E-01 0.38274921E+03</pdfrwt>
<totfact> 0.30863555E+03</totfact>
</mgrwt>
</event>
<event>
 6    1  0.5040916E-004  0.1599774E+04  0.7818608E-02  0.8820687E-01
         -2   -1    0    0    0  501 -0.00000000000E+00  0.00000000000E+00  0.18016052456E+04  0.18016052456E+04  0.00000000000E+00 0. -1.
          2   -1    0    0  501    0  0.00000000000E+00 -0.00000000000E+00 -0.35513847510E+03  0.35513847510E+03  0.00000000000E+00 0.  1.
         23    2    1    2    0    0 -0.57973541876E+02  0.59116032577E+03  0.87677857145E+01  0.60116992521E+03  0.92178861946E+02 0.  0.
         11    1    3    3    0    0 -0.65307792984E+02  0.28888262125E+03  0.32084817634E+02  0.29790554242E+03  0.00000000000E+00 0.  1.
        -11    1    3    3    0    0  0.73342511077E+01  0.30227770453E+03 -0.23317031919E+02  0.30326438279E+03  0.00000000000E+00 0. -1.
         22    1    1    2    0    0  0.57973541876E+02 -0.59116032577E+03  0.14376989848E+04  0.15555737955E+04  0.00000000000E+00 0. -1.
<mgrwt>
<rscale>  0 0.15997742E+04</rscale>
<asrwt>0</asrwt>
<pdfrwt beam="1">  1        2 0.54636690E-01 0.15997742E+04</pdfrwt>
<pdfrwt beam="2">  1       -2 0.27717003E+00 0.15997742E+04</pdfrwt>
<totfact> 0.38263326E+00</totfact>
</mgrwt>
</event>
<event>
 6    1  0.5040916E-004  0.2167348E+04  0.7818608E-02  0.8532143E-01
         -2   -1    0    0    0  501 -0.00000000000E+00  0.00000000000E+00  0.56973928790E+03  0.56973928790E+03  0.00000000000E+00 0. -1.
          2   -1    0    0  501    0  0.00000000000E+00 -0.00000000000E+00 -0.20612051637E+04  0.20612051637E+04  0.00000000000E+00 0.  1.
         23    2    1    2    0    0 -0.66246567194E+03  0.80404243230E+03 -0.11007018155E+04  0.15182712964E+04  0.90874878010E+02 0.  0.
         11    1    3    3    0    0 -0.20670505320E+03  0.22552437321E+03 -0.37985285543E+03  0.48772575666E+03  0.00000000000E+00 0. -1.
        -11    1    3    3    0    0 -0.45576061875E+03  0.57851805909E+03 -0.72084896004E+03  0.10305455397E+04  0.00000000000E+00 0.  1.
         22    1    1    2    0    0  0.66246567194E+03 -0.80404243230E+03 -0.39076406032E+03  0.11126731552E+04  0.00000000000E+00 0. -1.
<mgrwt>
<rscale>  0 0.21673482E+04</rscale>
<asrwt>0</asrwt>
<pdfrwt beam="1">  1        2 0.31710849E+00 0.21673482E+04</pdfrwt>
<pdfrwt beam="2">  1       -2 0.87652198E-01 0.21673482E+04</pdfrwt>
<totfact> 0.63570770E+00</totfact>
</mgrwt>
</event>
<event>
 6    1  0.5040916E-004  0.2147247E+04  0.7818608E-02  0.8540712E-01
         -2   -1    0    0    0  501 -0.00000000000E+00  0.00000000000E+00  0.78836643451E+03  0.78836643451E+03  0.00000000000E+00 0. -1.
          2   -1    0    0  501    0  0.00000000000E+00 -0.00000000000E+00 -0.14620959888E+04  0.14620959888E+04  0.00000000000E+00 0.  1.
         23    2    1    2    0    0 -0.10083214070E+04  0.20637230465E+03 -0.28667301450E+02  0.10357991374E+04  0.11294445976E+03 0.  0.
         13    1    3    3    0    0 -0.48461782621E+03  0.13409363899E+03 -0.58912064468E+02  0.50626689881E+03  0.00000000000E+00 0. -1.
        -13    1    3    3    0    0 -0.52370358081E+03  0.72278665661E+02  0.30244763018E+02  0.52953223863E+03  0.00000000000E+00 0.  1.
         22    1    1    2    0    0  0.10083214070E+04 -0.20637230465E+03 -0.64506225284E+03  0.12146632859E+04  0.00000000000E+00 0. -1.
<mgrwt>
<rscale>  0 0.21472470E+04</rscale>
<asrwt>0</asrwt>
<pdfrwt beam="1">  1        2 0.22493784E+00 0.21472470E+04</pdfrwt>
<pdfrwt beam="2">  1       -2 0.12128714E+00 0.21472470E+04</pdfrwt>
<totfact> 0.63319750E+00</totfact>
</mgrwt>
</event>
<event>
 6    1  0.5040916E-004  0.2185726E+04  0.7818608E-02  0.8524393E-01
          2   -1    0    0  501    0  0.00000000000E+00  0.00000000000E+00  0.26062841022E+04  0.26062841022E+04  0.00000000000E+00 0.  1.
         -2   -1    0    0    0  501 -0.00000000000E+00 -0.00000000000E+00 -0.45825776617E+03  0.45825776617E+03  0.00000000000E+00 0. -1.
         23    2    1    2    0    0 -0.98689931865E+03  0.42362074643E+03  0.13451242379E+04  0.17236180894E+04  0.89862676546E+02 0.  0.
         13    1    3    3    0    0 -0.76460652375E+03  0.35158507736E+03  0.10993789001E+04  0.13845104437E+04  0.00000000000E+00 0. -1.
        -13    1    3    3    0    0 -0.22229279490E+03  0.72035669066E+02  0.24574533779E+03  0.33910764564E+03  0.00000000000E+00 0.  1.
         22    1    1    2    0    0  0.98689931865E+03 -0.42362074643E+03  0.80290209816E+03  0.13409237790E+04  0.00000000000E+00 0. -1.
<mgrwt>
<rscale>  0 0.21857264E+04</rscale>
<asrwt>0</asrwt>
<pdfrwt beam="1">  1        2 0.40096678E+00 0.21857264E+04</pdfrwt>
<pdfrwt beam="2">  1       -2 0.70501196E-01 0.21857264E+04</pdfrwt>
<totfact> 0.50550086E+00</totfact>
</mgrwt>
</event>
<event>
 6    1  0.5040916E-004  0.5179438E+04  0.7818608E-02  0.7801408E-01
         -2   -1    0    0    0  501 -0.00000000000E+00  0.00000000000E+00  0.25122907239E+04  0.25122907239E+04  0.00000000000E+00 0. -1.
          2   -1    0    0  501    0  0.00000000000E+00 -0.00000000000E+00 -0.26695333428E+04  0.26695333428E+04  0.00000000000E+00 0.  1.
         23    2    1    2    0    0 -0.34552845859E+03  0.15723459919E+04  0.19496797701E+04  0.25302615486E+04  0.96490748517E+02 0.  0.
         13    1    3    3    0    0 -0.20230896689E+03  0.94152119203E+03  0.12394790040E+04  0.15696175567E+04  0.00000000000E+00 0.  1.
        -13    1    3    3    0    0 -0.14321949170E+03  0.63082479987E+03  0.71020076611E+03  0.96064399187E+03  0.00000000000E+00 0. -1.
         22    1    1    2    0    0  0.34552845859E+03 -0.15723459919E+04 -0.21069223890E+04  0.26515625180E+04  0.00000000000E+00 0.  1.
<mgrwt>
<rscale>  0 0.51794378E+04</rscale>
<asrwt>0</asrwt>
<pdfrwt beam="1">  1        2 0.41069744E+00 0.51794378E+04</pdfrwt>
<pdfrwt beam="2">  1       -2 0.38650627E+00 0.51794378E+04</pdfrwt>
<totfact> 0.18067183E-02</totfact>
</mgrwt>
</event>
<event>
 6    1  0.5040916E-004  0.3591941E+04  0.7818608E-02  0.8092340E-01
         -2   -1    0    0    0  501 -0.00000000000E+00  0.00000000000E+00  0.10090560152E+04  0.10090560152E+04  0.00000000000E+00 0. -1.
          2   -1    0    0  501    0  0.00000000000E+00 -0.00000000000E+00 -0.31965618004E+04  0.31965618004E+04  0.00000000000E+00 0.  1.
         23    2    1    2    0    0  0.63741418930E+03 -0.12215460028E+04  0.25216270734E+03  0.14037516805E+04  0.91985128557E+02 0.  0.
         11    1    3    3    0    0  0.27873626518E+03 -0.45345545376E+03  0.12241247188E+03  0.54616899156E+03  0.00000000000E+00 0. -1.
        -11    1    3    3    0    0  0.35867792412E+03 -0.76809054908E+03  0.12975023546E+03  0.85758268898E+03  0.00000000000E+00 0.  1.
         22    1    1    2    0    0 -0.63741418930E+03  0.12215460028E+04 -0.24396684925E+04  0.28018661351E+04  0.00000000000E+00 0.  1.
<mgrwt>
<rscale>  0 0.35919409E+04</rscale>
<asrwt>0</asrwt>
<pdfrwt beam="1">  1        2 0.49177873E+00 0.35919409E+04</pdfrwt>
<pdfrwt beam="2">  1       -2 0.15523939E+00 0.35919409E+04</pdfrwt>
<totfact> 0.29033084E-01</totfact>
</mgrwt>
</event>
<event>
 6    1  0.5040916E-004  0.2994785E+04  0.7818608E-02  0.8245222E-01
          2   -1    0    0  501    0  0.00000000000E+00  0.00000000000E+00  0.14230269549E+04  0.14230269549E+04  0.00000000000E+00 0. -1.
         -2   -1    0    0    0  501 -0.00000000000E+00 -0.00000000000E+00 -0.15756445545E+04  0.15756445545E+04  0.00000000000E+00 0.  1.
         23    2    1    2    0    0 -0.13621147285E+03  0.24570698448E+03  0.13949157784E+04  0.14258444230E+04  0.91196502527E+02 0.  0.
         13    1    3    3    0    0 -0.12878058864E+03  0.15583397754E+03  0.86494252518E+03  0.88825347758E+03  0.00000000000E+00 0.  1.
        -13    1    3    3    0    0 -0.74308842037E+01  0.89873006942E+02  0.52997325324E+03  0.53759094540E+03  0.00000000000E+00 0. -1.
         22    1    1    2    0    0  0.13621147285E+03 -0.24570698448E+03 -0.15475333780E+04  0.15728270864E+04  0.00000000000E+00 0.  1.
<mgrwt>
<rscale>  0 0.29947852E+04</rscale>
<asrwt>0</asrwt>
<pdfrwt beam="1">  1        2 0.21892722E+00 0.29947852E+04</pdfrwt>
<pdfrwt beam="2">  1       -2 0.24240685E+00 0.29947852E+04</pdfrwt>
<totfact> 0.86054745E-01</totfact>
</mgrwt>
</event>
<event>
 6    1  0.5040916E-004  0.1457183E+04  0.7818608E-02  0.8913436E-01
          2   -1    0    0  501    0  0.00000000000E+00  0.00000000000E+00  0.24003101450E+04  0.24003101450E+04  0.00000000000E+00 0.  1.
         -2   -1    0    0    0  501 -0.00000000000E+00 -0.00000000000E+00 -0.22115707913E+03  0.22115707913E+03  0.00000000000E+00 0. -1.
         23    2    1    2    0    0  0.43945195775E+03 -0.37716349153E+03  0.30621410970E+03  0.66104108268E+03  0.88531968795E+02 0.  0.
         13    1    3    3    0    0  0.16326283197E+03 -0.14691662756E+03  0.68796537815E+02  0.23015692771E+03  0.00000000000E+00 0. -1.
        -13    1    3    3    0    0  0.27618912579E+03 -0.23024686397E+03  0.23741757189E+03  0.43088415498E+03  0.00000000000E+00 0.  1.
         22    1    1    2    0    0 -0.43945195775E+03  0.37716349153E+03  0.18729389562E+04  0.19604261415E+04  0.00000000000E+00 0.  1.
<mgrwt>
<rscale>  0 0.14571830E+04</rscale>
<asrwt>0</asrwt>
<pdfrwt beam="1">  1        2 0.36927847E+00 0.14571830E+04</pdfrwt>
<pdfrwt beam="2">  1       -2 0.34024168E-01 0.14571830E+04</pdfrwt>
<totfact> 0.31221928E+01</totfact>
</mgrwt>
</event>
<event>
 6    1  0.5040916E-004  0.2420639E+04  0.7818608E-02  0.8431817E-01
          2   -1    0    0  501    0  0.00000000000E+00  0.00000000000E+00  0.38828882881E+03  0.38828882881E+03  0.00000000000E+00 0.  1.
         -2   -1    0    0    0  501 -0.00000000000E+00 -0.00000000000E+00 -0.37726368038E+04  0.37726368038E+04  0.00000000000E+00 0. -1.
         23    2    1    2    0    0 -0.51494373747E+03 -0.89578344105E+03 -0.61620706406E+03  0.12062345948E+04  0.87725286802E+02 0.  0.
         11    1    3    3    0    0 -0.39424628861E+03 -0.62790165925E+03 -0.40942305187E+03  0.84694619970E+03  0.00000000000E+00 0. -1.
        -11    1    3    3    0    0 -0.12069744886E+03 -0.26788178180E+03 -0.20678401219E+03  0.35928839513E+03  0.00000000000E+00 0.  1.
         22    1    1    2    0    0  0.51494373747E+03  0.89578344105E+03 -0.27681409109E+04  0.29546910378E+04  0.00000000000E+00 0. -1.
<mgrwt>
<rscale>  0 0.24206385E+04</rscale>
<asrwt>0</asrwt>
<pdfrwt beam="1">  1        2 0.59736745E-01 0.24206385E+04</pdfrwt>
<pdfrwt beam="2">  1       -2 0.58040565E+00 0.24206385E+04</pdfrwt>
<totfact> 0.44453998E-02</totfact>
</mgrwt>
</event>
<event>
 6    1  0.5040916E-004  0.2113443E+04  0.7818608E-02  0.8555345E-01
         -2   -1    0    0    0  501 -0.00000000000E+00  0.00000000000E+00  0.50680632187E+03  0.50680632187E+03  0.00000000000E+00 0. -1.
          2   -1    0    0  501    0  0.00000000000E+00 -0.00000000000E+00 -0.22033279847E+04  0.22033279847E+04  0.00000000000E+00 0.  1.
         23    2    1    2    0    0 -0.61678881728E+03  0.85542159703E+03 -0.82451340795E+03  0.13417144330E+04  0.90557749898E+02 0.  0.
         13    1    3    3    0    0 -0.27931386961E+03  0.31197544597E+03 -0.33116164403E+03  0.53386604230E+03  0.00000000000E+00 0.  1.
        -13    1    3    3    0    0 -0.33747494768E+03  0.54344615106E+03 -0.49335176392E+03  0.80784839071E+03  0.00000000000E+00 0. -1.
         22    1    1    2    0    0  0.61678881728E+03 -0.85542159703E+03 -0.87200825490E+03  0.13684198736E+04  0.00000000000E+00 0. -1.
<mgrwt>
<rscale>  0 0.21134432E+04</rscale>
<asrwt>0</asrwt>
<pdfrwt beam="1">  1        2 0.33897354E+00 0.21134432E+04</pdfrwt>
<pdfrwt beam="2">  1       -2 0.77970203E-01 0.21134432E+04</pdfrwt>
<totfact> 0.69305469E+00</totfact>
</mgrwt>
</event>
<event>
 6    1  0.5040916E-004  0.3277418E+04  0.7818608E-02  0.8168665E-01
          2   -1    0    0  501    0  0.00000000000E+00  0.00000000000E+00  0.18872686541E+04  0.18872686541E+04  0.00000000000E+00 0.  1.
         -2   -1    0    0    0  501 -0.00000000000E+00 -0.00000000000E+00 -0.14228853265E+04  0.14228853265E+04  0.00000000000E+00 0. -1.
         23    2    1    2    0    0  0.16313669489E+04  0.95138171719E+02  0.33771752506E+03  0.16711135237E+04  0.90321032311E+02 0.  0.
         11    1    3    3    0    0  0.10280199645E+04  0.97976066029E+02  0.23498694913E+03  0.10590765899E+04  0.00000000000E+00 0. -1.
        -11    1    3    3    0    0  0.60334698433E+03 -0.28378943101E+01  0.10273057593E+03  0.61203693384E+03  0.00000000000E+00 0.  1.
         22    1    1    2    0    0 -0.16313669489E+04 -0.95138171719E+02  0.12666580256E+03  0.16390404568E+04  0.00000000000E+00 0.  1.
<mgrwt>
<rscale>  0 0.32774178E+04</rscale>
<asrwt>0</asrwt>
<pdfrwt beam="1">  1        2 0.29034902E+00 0.32774178E+04</pdfrwt>
<pdfrwt beam="2">  1       -2 0.21890544E+00 0.32774178E+04</pdfrwt>
<totfact> 0.64862334E-01</totfact>
</mgrwt>
</event>
<event>
 6    1  0.5040916E-004  0.2756654E+04  0.7818608E-02  0.8316853E-01
         -2   -1    0    0    0  501 -0.00000000000E+00  0.00000000000E+00  0.82297831041E+03  0.82297831041E+03  0.00000000000E+00 0. -1.
          2   -1    0    0  501    0  0.00000000000E+00 -0.00000000000E+00 -0.23084273581E+04  0.23084273581E+04  0.00000000000E+00 0.  1.
         23    2    1    2    0    0  0.76822900694E+03 -0.65064086574E+03 -0.18103356053E+04  0.20735490532E+04  0.93708745399E+02 0.  0.
         13    1    3    3    0    0  0.52660621691E+03 -0.46835687800E+03 -0.13447377237E+04  0.15182199506E+04  0.00000000000E+00 0.  1.
        -13    1    3    3    0    0  0.24162279003E+03 -0.18228398774E+03 -0.46559788153E+03  0.55532910255E+03  0.00000000000E+00 0. -1.
         22    1    1    2    0    0 -0.76822900694E+03  0.65064086574E+03  0.32488655758E+03  0.10578566153E+04  0.00000000000E+00 0. -1.
<mgrwt>
<rscale>  0 0.27566542E+04</rscale>
<asrwt>0</asrwt>
<pdfrwt beam="1">  1        2 0.35514267E+00 0.27566542E+04</pdfrwt>
<pdfrwt beam="2">  1       -2 0.12661205E+00 0.27566542E+04</pdfrwt>
<totfact> 0.18176466E+00</totfact>
</mgrwt>
</event>
<event>
 6    1  0.5040916E-004  0.2997252E+04  0.7818608E-02  0.8244516E-01
         -2   -1    0    0    0  501 -0.00000000000E+00  0.00000000000E+00  0.12526556726E+04  0.12526556726E+04  0.00000000000E+00 0. -1.
          2   -1    0    0  501    0  0.00000000000E+00 -0.00000000000E+00 -0.17928950180E+04  0.17928950180E+04  0.00000000000E+00 0.  1.
         23    2    1    2    0    0  0.32690427819E+03  0.39939200795E+03 -0.16984657465E+04  0.17775330333E+04  0.91964175273E+02 0.  0.
         13    1    3    3    0    0  0.13635059646E+03  0.23513501991E+03 -0.83098799048E+03  0.87431173105E+03  0.00000000000E+00 0. -1.
        -13    1    3    3    0    0  0.19055368173E+03  0.16425698804E+03 -0.86747775601E+03  0.90322130229E+03  0.00000000000E+00 0.  1.
         22    1    1    2    0    0 -0.32690427819E+03 -0.39939200795E+03  0.11582264010E+04  0.12680176573E+04  0.00000000000E+00 0. -1.
<mgrwt>
<rscale>  0 0.29972522E+04</rscale>
<asrwt>0</asrwt>
<pdfrwt beam="1">  1        2 0.27583000E+00 0.29972522E+04</pdfrwt>
<pdfrwt beam="2">  1       -2 0.19271626E+00 0.29972522E+04</pdfrwt>
<totfact> 0.11083222E+00</totfact>
</mgrwt>
</event>
<event>
 6    1  0.5040916E-004  0.4377740E+04  0.7818608E-02  0.7932398E-01
         -2   -1    0    0    0  501 -0.00000000000E+00  0.00000000000E+00  0.36445295488E+04  0.36445295488E+04  0.00000000000E+00 0. -1.
          2   -1    0    0  501    0  0.00000000000E+00 -0.00000000000E+00 -0.13146146634E+04  0.13146146634E+04  0.00000000000E+00 0.  1.
         23    2    1    2    0    0  0.10104792566E+04 -0.10881508185E+04  0.29857035117E+04  0.33358145308E+04  0.89958835260E+02 0.  0.
         11    1    3    3    0    0  0.15658201692E+03 -0.12517499224E+03  0.42091801776E+03  0.46621742178E+03  0.00000000000E+00 0. -1.
        -11    1    3    3    0    0  0.85389723971E+03 -0.96297582630E+03  0.25647854940E+04  0.28695971090E+04  0.00000000000E+00 0.  1.
         22    1    1    2    0    0 -0.10104792566E+04  0.10881508185E+04 -0.65578862628E+03  0.16233296813E+04  0.00000000000E+00 0.  1.
<mgrwt>
<rscale>  0 0.43777400E+04</rscale>
<asrwt>0</asrwt>
<pdfrwt beam="1">  1        2 0.20224841E+00 0.43777400E+04</pdfrwt>
<pdfrwt beam="2">  1       -2 0.56069685E+00 0.43777400E+04</pdfrwt>
<totfact> 0.94006768E-03</totfact>
</mgrwt>
</event>
<event>
 6    1  0.5040916E-004  0.1972841E+04  0.7818608E-02  0.8619425E-01
          2   -1    0    0  501    0  0.00000000000E+00  0.00000000000E+00  0.21635458353E+04  0.21635458353E+04  0.00000000000E+00 0.  1.
         -2   -1    0    0    0  501 -0.00000000000E+00 -0.00000000000E+00 -0.44973631569E+03  0.44973631569E+03  0.00000000000E+00 0. -1.
         23    2    1    2    0    0  0.45144057195E+03 -0.22715860396E+03  0.19772107500E+04  0.20433875734E+04  0.10329958346E+03 0.  0.
         13    1    3    3    0    0  0.27975138560E+03 -0.14704498680E+03  0.14234560057E+04  0.14581186735E+04  0.00000000000E+00 0.  1.
        -13    1    3    3    0    0  0.17168918634E+03 -0.80113617160E+02  0.55375474428E+03  0.58526889988E+03  0.00000000000E+00 0. -1.
         22    1    1    2    0    0 -0.45144057195E+03  0.22715860396E+03 -0.26340123040E+03  0.56989457756E+03  0.00000000000E+00 0. -1.
<mgrwt>
<rscale>  0 0.19728407E+04</rscale>
<asrwt>0</asrwt>
<pdfrwt beam="1">  1        2 0.33285320E+00 0.19728407E+04</pdfrwt>
<pdfrwt beam="2">  1       -2 0.69190203E-01 0.19728407E+04</pdfrwt>
<totfact> 0.96109565E+00</totfact>
</mgrwt>
</event>
<event>
 6    1  0.5040916E-004  0.1353404E+04  0.7818608E-02  0.8988255E-01
          2   -1    0    0  501    0  0.00000000000E+00  0.00000000000E+00  0.41394434920E+03  0.41394434920E+03  0.00000000000E+00 0. -1.
         -2   -1    0    0    0  501 -0.00000000000E+00 -0.00000000000E+00 -0.11062499568E+04  0.11062499568E+04  0.00000000000E+00 0.  1.
         23    2    1    2    0    0  0.75571091244E+02 -0.30030744256E+03 -0.10196483732E+04  0.10695849007E+04  0.91834116664E+02 0.  0.
         13    1    3    3    0    0  0.19333818896E+02 -0.88866834463E+02 -0.45560548145E+03  0.46459387162E+03  0.00000000000E+00 0. -1.
        -13    1    3    3    0    0  0.56237272348E+02 -0.21144060810E+03 -0.56404289178E+03  0.60499102913E+03  0.00000000000E+00 0.  1.
         22    1    1    2    0    0 -0.75571091244E+02  0.30030744256E+03  0.32734276563E+03  0.45060940525E+03  0.00000000000E+00 0. -1.
<mgrwt>
<rscale>  0 0.13534045E+04</rscale>
<asrwt>0</asrwt>
<pdfrwt beam="1">  1        2 0.63683747E-01 0.13534045E+04</pdfrwt>
<pdfrwt beam="2">  1       -2 0.17019230E+00 0.13534045E+04</pdfrwt>
<totfact> 0.15851976E+01</totfact>
</mgrwt>
</event>
<event>
 6    1  0.5040916E-004  0.2740391E+03  0.7818608E-02  0.1098990E+00
          1   -1    0    0  501    0  0.00000000000E+00  0.00000000000E+00  0.33495851722E+02  0.33495851722E+02  0.00000000000E+00 0.  1.
         -1   -1    0    0    0  501 -0.00000000000E+00 -0.00000000000E+00 -0.56049778186E+03  0.56049778186E+03  0.00000000000E+00 0. -1.
         23    2    1    2    0    0  0.11830627958E+03 -0.26517365419E+02 -0.27285902286E+03  0.31241209339E+03  0.91922376405E+02 0.  0.
         13    1    3    3    0    0  0.12333232129E+03 -0.13582840601E+02 -0.27145066677E+03  0.29846410090E+03  0.00000000000E+00 0. -1.
        -13    1    3    3    0    0 -0.50260417164E+01 -0.12934524818E+02 -0.14083560856E+01  0.13947992489E+02  0.00000000000E+00 0.  1.
         22    1    1    2    0    0 -0.11830627958E+03  0.26517365419E+02 -0.25414290728E+03  0.28158154019E+03  0.00000000000E+00 0. -1.
<mgrwt>
<rscale>  0 0.27403905E+03</rscale>
<asrwt>0</asrwt>
<pdfrwt beam="1">  1        1 0.51532083E-02 0.27403905E+03</pdfrwt>
<pdfrwt beam="2">  1       -1 0.86230422E-01 0.27403905E+03</pdfrwt>
<totfact> 0.22190764E+03</totfact>
</mgrwt>
</event>
<event>
 6    1  0.5040916E-004  0.2236658E+04  0.7818608E-02  0.8503323E-01
         -2   -1    0    0    0  501 -0.00000000000E+00  0.00000000000E+00  0.59159429390E+03  0.59159429390E+03  0.00000000000E+00 0. -1.
          2   -1    0    0  501    0  0.00000000000E+00 -0.00000000000E+00 -0.21140492056E+04  0.21140492056E+04  0.00000000000E+00 0.  1.
         23    2    1    2    0    0  0.16652234256E+03  0.10039096761E+04 -0.13182291907E+04  0.16677261264E+04  0.89542757367E+02 0.  0.
         11    1    3    3    0    0  0.38513911311E+02  0.50375221922E+03 -0.64311669203E+03  0.81783170598E+03  0.00000000000E+00 0. -1.
        -11    1    3    3    0    0  0.12800843125E+03  0.50015745683E+03 -0.67511249864E+03  0.84989442045E+03  0.00000000000E+00 0.  1.
         22    1    1    2    0    0 -0.16652234256E+03 -0.10039096761E+04 -0.20422572107E+03  0.10379173731E+04  0.00000000000E+00 0.  1.
<mgrwt>
<rscale>  0 0.22366577E+04</rscale>
<asrwt>0</asrwt>
<pdfrwt beam="1">  1        2 0.32523834E+00 0.22366577E+04</pdfrwt>
<pdfrwt beam="2">  1       -2 0.91014506E-01 0.22366577E+04</pdfrwt>
<totfact> 0.54145431E+00</totfact>
</mgrwt>
</event>
<event>
 6    1  0.5040916E-004  0.4930679E+04  0.7818608E-02  0.7839290E-01
         -2   -1    0    0    0  501 -0.00000000000E+00  0.00000000000E+00  0.22972144191E+04  0.22972144191E+04  0.00000000000E+00 0. -1.
          2   -1    0    0  501    0  0.00000000000E+00 -0.00000000000E+00 -0.26457694444E+04  0.26457694444E+04  0.00000000000E+00 0.  1.
         23    2    1    2    0    0 -0.92826532388E+03 -0.22506287352E+04 -0.55817136843E+03  0.24994320989E+04  0.92732547535E+02 0.  0.
         13    1    3    3    0    0 -0.45323414445E+03 -0.11140668511E+04 -0.32294610918E+03  0.12453354278E+04  0.00000000000E+00 0.  1.
        -13    1    3    3    0    0 -0.47503117942E+03 -0.11365618841E+04 -0.23522525925E+03  0.12540966710E+04  0.00000000000E+00 0. -1.
         22    1    1    2    0    0  0.92826532388E+03  0.22506287352E+04  0.20961634313E+03  0.24435517646E+04  0.00000000000E+00 0. -1.
<mgrwt>
<rscale>  0 0.49306794E+04</rscale>
<asrwt>0</asrwt>
<pdfrwt beam="1">  1        2 0.40704145E+00 0.49306794E+04</pdfrwt>
<pdfrwt beam="2">  1       -2 0.35341760E+00 0.49306794E+04</pdfrwt>
<totfact> 0.30993927E-02</totfact>
</mgrwt>
</event>
<event>
 6    1  0.5040916E-004  0.3114750E+04  0.7818608E-02  0.8211701E-01
         -2   -1    0    0    0  501 -0.00000000000E+00  0.00000000000E+00  0.65593118143E+03  0.65593118143E+03  0.00000000000E+00 0. -1.
          2   -1    0    0  501    0  0.00000000000E+00 -0.00000000000E+00 -0.36976701760E+04  0.36976701760E+04  0.00000000000E+00 0.  1.
         23    2    1    2    0    0 -0.88361296346E+03  0.50285623772E+02 -0.33110376232E+04  0.34284947342E+04  0.91134445054E+02 0.  0.
         11    1    3    3    0    0 -0.18422681913E+03 -0.21531332681E+02 -0.62199643196E+03  0.64906292495E+03  0.00000000000E+00 0.  1.
        -11    1    3    3    0    0 -0.69938614433E+03  0.71816956453E+02 -0.26890411912E+04  0.27794318092E+04  0.00000000000E+00 0. -1.
         22    1    1    2    0    0  0.88361296346E+03 -0.50285623772E+02  0.26929862855E+03  0.92510662331E+03  0.00000000000E+00 0. -1.
<mgrwt>
<rscale>  0 0.31147502E+04</rscale>
<asrwt>0</asrwt>
<pdfrwt beam="1">  1        2 0.56887233E+00 0.31147502E+04</pdfrwt>
<pdfrwt beam="2">  1       -2 0.10091249E+00 0.31147502E+04</pdfrwt>
<totfact> 0.40122640E-01</totfact>
</mgrwt>
</event>
<event>
 6    1  0.5040916E-004  0.2046642E+04  0.7818608E-02  0.8585119E-01
          2   -1    0    0  501    0  0.00000000000E+00  0.00000000000E+00  0.63884150287E+03  0.63884150287E+03  0.00000000000E+00 0.  1.
         -2   -1    0    0    0  501 -0.00000000000E+00 -0.00000000000E+00 -0.16391950727E+04  0.16391950727E+04  0.00000000000E+00 0. -1.
         23    2    1    2    0    0  0.86032794256E+03  0.78193247164E+02 -0.11075424726E+04  0.14075379750E+04  0.90743979527E+02 0.  0.
         13    1    3    3    0    0  0.34480865001E+03 -0.11618853795E+02 -0.45938288006E+03  0.57450903681E+03  0.00000000000E+00 0.  1.
        -13    1    3    3    0    0  0.51551929256E+03  0.89812100959E+02 -0.64815959259E+03  0.83302893824E+03  0.00000000000E+00 0. -1.
         22    1    1    2    0    0 -0.86032794256E+03 -0.78193247164E+02  0.10718890280E+03  0.87049860054E+03  0.00000000000E+00 0.  1.
<mgrwt>
<rscale>  0 0.20466420E+04</rscale>
<asrwt>0</asrwt>
<pdfrwt beam="1">  1        2 0.98283308E-01 0.20466420E+04</pdfrwt>
<pdfrwt beam="2">  1       -2 0.25218386E+00 0.20466420E+04</pdfrwt>
<totfact> 0.26484955E+00</totfact>
</mgrwt>
</event>
<event>
 6    1  0.5040916E-004  0.1460396E+04  0.7818608E-02  0.8911225E-01
          2   -1    0    0  501    0  0.00000000000E+00  0.00000000000E+00  0.19834699767E+04  0.19834699767E+04  0.00000000000E+00 0.  1.
         -2   -1    0    0    0  501 -0.00000000000E+00 -0.00000000000E+00 -0.26881620432E+03  0.26881620432E+03  0.00000000000E+00 0. -1.
         23    2    1    2    0    0 -0.52563913957E+03 -0.38550303014E+03  0.13585376187E+04  0.15095023590E+04  0.89798769963E+02 0.  0.
         13    1    3    3    0    0 -0.73158450009E+02 -0.33463035728E+02  0.11697540961E+03  0.14196894034E+03  0.00000000000E+00 0. -1.
        -13    1    3    3    0    0 -0.45248068956E+03 -0.35203999442E+03  0.12415622091E+04  0.13675334187E+04  0.00000000000E+00 0.  1.
         22    1    1    2    0    0  0.52563913957E+03  0.38550303014E+03  0.35611615359E+03  0.74278382194E+03  0.00000000000E+00 0. -1.
<mgrwt>
<rscale>  0 0.14603957E+04</rscale>
<asrwt>0</asrwt>
<pdfrwt beam="1">  1        2 0.30514922E+00 0.14603957E+04</pdfrwt>
<pdfrwt beam="2">  1       -2 0.41356340E-01 0.14603957E+04</pdfrwt>
<totfact> 0.36643534E+01</totfact>
</mgrwt>
</event>
<event>
 6    1  0.5040916E-004  0.2340427E+04  0.7818608E-02  0.8462150E-01
          2   -1    0    0  501    0  0.00000000000E+00  0.00000000000E+00  0.16484056963E+04  0.16484056963E+04  0.00000000000E+00 0.  1.
         -2   -1    0    0    0  501 -0.00000000000E+00 -0.00000000000E+00 -0.83074170694E+03  0.83074170694E+03  0.00000000000E+00 0. -1.
         23    2    1    2    0    0 -0.55613361873E+03  0.97939036840E+03  0.73934423601E+03  0.13501548969E+04  0.88307704117E+02 0.  0.
         13    1    3    3    0    0 -0.22380971687E+03  0.48056556240E+03  0.36016962428E+03  0.64090265048E+03  0.00000000000E+00 0.  1.
        -13    1    3    3    0    0 -0.33232390185E+03  0.49882480600E+03  0.37917461172E+03  0.70925224638E+03  0.00000000000E+00 0. -1.
         22    1    1    2    0    0  0.55613361873E+03 -0.97939036840E+03  0.78319753309E+02  0.11289925063E+04  0.00000000000E+00 0. -1.
<mgrwt>
<rscale>  0 0.23404268E+04</rscale>
<asrwt>0</asrwt>
<pdfrwt beam="1">  1        2 0.25360088E+00 0.23404268E+04</pdfrwt>
<pdfrwt beam="2">  1       -2 0.12780642E+00 0.23404268E+04</pdfrwt>
<totfact> 0.42936742E+00</totfact>
</mgrwt>
</event>
<event>
 6    1  0.5040916E-004  0.3452822E+04  0.7818608E-02  0.8125062E-01
          2   -1    0    0  501    0  0.00000000000E+00  0.00000000000E+00  0.27214967559E+04  0.27214967559E+04  0.00000000000E+00 0.  1.
         -2   -1    0    0    0  501 -0.00000000000E+00 -0.00000000000E+00 -0.10951673891E+04  0.10951673891E+04  0.00000000000E+00 0. -1.
         23    2    1    2    0    0  0.84932901988E+03  0.68022500439E+03  0.22935205736E+04  0.25402590577E+04  0.92809578217E+02 0.  0.
         11    1    3    3    0    0  0.45565048201E+03  0.37111872872E+03  0.13449333088E+04  0.14677166203E+04  0.00000000000E+00 0.  1.
        -11    1    3    3    0    0  0.39367853787E+03  0.30910627567E+03  0.94858726488E+03  0.10725424374E+04  0.00000000000E+00 0. -1.
         22    1    1    2    0    0 -0.84932901988E+03 -0.68022500439E+03 -0.66719120684E+03  0.12764050874E+04  0.00000000000E+00 0. -1.
<mgrwt>
<rscale>  0 0.34528217E+04</rscale>
<asrwt>0</asrwt>
<pdfrwt beam="1">  1        2 0.41869180E+00 0.34528217E+04</pdfrwt>
<pdfrwt beam="2">  1       -2 0.16848729E+00 0.34528217E+04</pdfrwt>
<totfact> 0.46451994E-01</totfact>
</mgrwt>
</event>
<event>
 6    1  0.5040916E-004  0.1583597E+04  0.7818608E-02  0.8830689E-01
          2   -1    0    0  501    0  0.00000000000E+00  0.00000000000E+00  0.17896823912E+04  0.17896823912E+04  0.00000000000E+00 0.  1.
         -2   -1    0    0    0  501 -0.00000000000E+00 -0.00000000000E+00 -0.35031048652E+03  0.35031048652E+03  0.00000000000E+00 0. -1.
         23    2    1    2    0    0  0.48577504886E+03 -0.62104762848E+03  0.67778562100E+03  0.10437761006E+04  0.91638666747E+02 0.  0.
         13    1    3    3    0    0  0.19947942207E+03 -0.30453820845E+03  0.35691467558E+03  0.50982707449E+03  0.00000000000E+00 0.  1.
        -13    1    3    3    0    0  0.28629562679E+03 -0.31650942003E+03  0.32087094542E+03  0.53394902613E+03  0.00000000000E+00 0. -1.
         22    1    1    2    0    0 -0.48577504886E+03  0.62104762848E+03  0.76158628373E+03  0.10962167771E+04  0.00000000000E+00 0. -1.
<mgrwt>
<rscale>  0 0.15835966E+04</rscale>
<asrwt>0</asrwt>
<pdfrwt beam="1">  1        2 0.27533575E+00 0.15835966E+04</pdfrwt>
<pdfrwt beam="2">  1       -2 0.53893922E-01 0.15835966E+04</pdfrwt>
<totfact> 0.27222514E+01</totfact>
</mgrwt>
</event>
<event>
 6    1  0.5040916E-004  0.1232327E+04  0.7818608E-02  0.9085022E-01
         -2   -1    0    0    0  501 -0.00000000000E+00  0.00000000000E+00  0.28360558324E+03  0.28360558324E+03  0.00000000000E+00 0. -1.
          2   -1    0    0  501    0  0.00000000000E+00 -0.00000000000E+00 -0.13386810561E+04  0.13386810561E+04  0.00000000000E+00 0.  1.
         23    2    1    2    0    0  0.23774964010E+03  0.28442600801E+02  0.21187976742E+03  0.33290327751E+03  0.92723693995E+02 0.  0.
         11    1    3    3    0    0  0.92430484726E+02  0.42710645244E+02  0.13121062836E+03  0.16608378222E+03  0.00000000000E+00 0.  1.
        -11    1    3    3    0    0  0.14531915538E+03 -0.14268044444E+02  0.80669139061E+02  0.16681949529E+03  0.00000000000E+00 0. -1.
         22    1    1    2    0    0 -0.23774964010E+03 -0.28442600801E+02 -0.12669552402E+04  0.12893833618E+04  0.00000000000E+00 0.  1.
<mgrwt>
<rscale>  0 0.12323269E+04</rscale>
<asrwt>0</asrwt>
<pdfrwt beam="1">  1        2 0.20595094E+00 0.12323269E+04</pdfrwt>
<pdfrwt beam="2">  1       -2 0.43631627E-01 0.12323269E+04</pdfrwt>
<totfact> 0.76950768E+01</totfact>
</mgrwt>
</event>
<event>
 6    1  0.5040916E-004  0.1503825E+04  0.7818608E-02  0.8881913E-01
         -1   -1    0    0    0  501 -0.00000000000E+00  0.00000000000E+00  0.38355667725E+03  0.38355667725E+03  0.00000000000E+00 0. -1.
          1   -1    0    0  501    0  0.00000000000E+00 -0.00000000000E+00 -0.14740259436E+04  0.14740259436E+04  0.00000000000E+00 0.  1.
         23    2    1    2    0    0  0.33395825043E+03  0.30720872842E+03  0.18887766275E+03  0.50014611006E+03  0.92552925817E+02 0.  0.
         11    1    3    3    0    0  0.19781386249E+03  0.23770543434E+03  0.14174660298E+03  0.34018568043E+03  0.00000000000E+00 0. -1.
        -11    1    3    3    0    0  0.13614438794E+03  0.69503294079E+02  0.47131059761E+02  0.15996042964E+03  0.00000000000E+00 0.  1.
         22    1    1    2    0    0 -0.33395825043E+03 -0.30720872842E+03 -0.12793469291E+04  0.13574365108E+04  0.00000000000E+00 0.  1.
<mgrwt>
<rscale>  0 0.15038251E+04</rscale>
<asrwt>0</asrwt>
<pdfrwt beam="1">  1        1 0.22677322E+00 0.15038251E+04</pdfrwt>
<pdfrwt beam="2">  1       -1 0.59008720E-01 0.15038251E+04</pdfrwt>
<totfact> 0.19195293E+01</totfact>
</mgrwt>
</event>
<event>
 6    1  0.5040916E-004  0.2484644E+04  0.7818608E-02  0.8408477E-01
         -2   -1    0    0    0  501 -0.00000000000E+00  0.00000000000E+00  0.69581633057E+03  0.69581633057E+03  0.00000000000E+00 0. -1.
          2   -1    0    0  501    0  0.00000000000E+00 -0.00000000000E+00 -0.22180620424E+04  0.22180620424E+04  0.00000000000E+00 0.  1.
         23    2    1    2    0    0  0.16133030503E+03 -0.10015034858E+04 -0.15997478613E+04  0.18965076036E+04  0.92256010489E+02 0.  0.
         11    1    3    3    0    0  0.74196842636E+02 -0.34810160255E+03 -0.48763479931E+03  0.60371151608E+03  0.00000000000E+00 0.  1.
        -11    1    3    3    0    0  0.87133462392E+02 -0.65340188321E+03 -0.11121130619E+04  0.12927960875E+04  0.00000000000E+00 0. -1.
         22    1    1    2    0    0 -0.16133030503E+03  0.10015034858E+04  0.77502149407E+02  0.10173707694E+04  0.00000000000E+00 0. -1.
<mgrwt>
<rscale>  0 0.24846439E+04</rscale>
<asrwt>0</asrwt>
<pdfrwt beam="1">  1        2 0.34124032E+00 0.24846439E+04</pdfrwt>
<pdfrwt beam="2">  1       -2 0.10704866E+00 0.24846439E+04</pdfrwt>
<totfact> 0.31603038E+00</totfact>
</mgrwt>
</event>
<event>
 6    1  0.5040916E-004  0.2839701E+04  0.7818608E-02  0.8291048E-01
         -2   -1    0    0    0  501 -0.00000000000E+00  0.00000000000E+00  0.59450993861E+03  0.59450993861E+03  0.00000000000E+00 0. -1.
          2   -1    0    0  501    0  0.00000000000E+00 -0.00000000000E+00 -0.33909881398E+04  0.33909881398E+04  0.00000000000E+00 0.  1.
         23    2    1    2    0    0 -0.10549038620E+04  0.10954003893E+03 -0.27214597101E+04  0.29222723488E+04  0.92258051720E+02 0.  0.
         11    1    3    3    0    0 -0.18328701598E+03 -0.13871892113E+02 -0.43840077078E+03  0.47537542578E+03  0.00000000000E+00 0. -1.
        -11    1    3    3    0    0 -0.87161684606E+03  0.12341193104E+03 -0.22830589394E+04  0.24468969230E+04  0.00000000000E+00 0.  1.
         22    1    1    2    0    0  0.10549038620E+04 -0.10954003893E+03 -0.75018491088E+02  0.10632257297E+04  0.00000000000E+00 0. -1.
<mgrwt>
<rscale>  0 0.28397015E+04</rscale>
<asrwt>0</asrwt>
<pdfrwt beam="1">  1        2 0.52169048E+00 0.28397015E+04</pdfrwt>
<pdfrwt beam="2">  1       -2 0.91463067E-01 0.28397015E+04</pdfrwt>
<totfact> 0.85357462E-01</totfact>
</mgrwt>
</event>
<event>
 6    1  0.5040916E-004  0.2511668E+04  0.7818608E-02  0.8398840E-01
          2   -1    0    0  501    0  0.00000000000E+00  0.00000000000E+00  0.14453948938E+04  0.14453948938E+04  0.00000000000E+00 0.  1.
         -2   -1    0    0    0  501 -0.00000000000E+00 -0.00000000000E+00 -0.10911340727E+04  0.10911340727E+04  0.00000000000E+00 0. -1.
         23    2    1    2    0    0  0.30527240343E+03 -0.44194607471E+03 -0.96696484200E+03  0.11102944746E+04  0.96048119969E+02 0.  0.
         11    1    3    3    0    0  0.73315320602E+02 -0.80834174681E+02 -0.13025896878E+03  0.16993145377E+03  0.00000000000E+00 0.  1.
        -11    1    3    3    0    0  0.23195708283E+03 -0.36111190003E+03 -0.83670587321E+03  0.94036302080E+03  0.00000000000E+00 0. -1.
         22    1    1    2    0    0 -0.30527240343E+03  0.44194607471E+03  0.13212256631E+04  0.14262344919E+04  0.00000000000E+00 0.  1.
<mgrwt>
<rscale>  0 0.25116685E+04</rscale>
<asrwt>0</asrwt>
<pdfrwt beam="1">  1        2 0.22236845E+00 0.25116685E+04</pdfrwt>
<pdfrwt beam="2">  1       -2 0.16786678E+00 0.25116685E+04</pdfrwt>
<totfact> 0.26817260E+00</totfact>
</mgrwt>
</event>
<event>
 6    1  0.5040916E-004  0.2384128E+04  0.7818608E-02  0.8445470E-01
         -1   -1    0    0    0  501 -0.00000000000E+00  0.00000000000E+00  0.28447244112E+04  0.28447244112E+04  0.00000000000E+00 0. -1.
          1   -1    0    0  501    0  0.00000000000E+00 -0.00000000000E+00 -0.49952682406E+03  0.49952682406E+03  0.00000000000E+00 0.  1.
         23    2    1    2    0    0  0.75385806061E+03  0.80276730233E+03  0.54093626567E+03  0.12304640574E+04  0.93233233018E+02 0.  0.
         13    1    3    3    0    0  0.13077867804E+03  0.11078883794E+03  0.11574264081E+03  0.20681776554E+03  0.00000000000E+00 0. -1.
        -13    1    3    3    0    0  0.62307938257E+03  0.69197846439E+03  0.42519362486E+03  0.10236462918E+04  0.00000000000E+00 0.  1.
         22    1    1    2    0    0 -0.75385806061E+03 -0.80276730233E+03  0.18042613215E+04  0.21137871779E+04  0.00000000000E+00 0. -1.
<mgrwt>
<rscale>  0 0.23841276E+04</rscale>
<asrwt>0</asrwt>
<pdfrwt beam="1">  1        1 0.76850282E-01 0.23841276E+04</pdfrwt>
<pdfrwt beam="2">  1       -1 0.43764990E+00 0.23841276E+04</pdfrwt>
<totfact> 0.15678143E-01</totfact>
</mgrwt>
</event>
<event>
 6    1  0.5040916E-004  0.3936337E+03  0.7818608E-02  0.1046007E+00
         -2   -1    0    0    0  501 -0.00000000000E+00  0.00000000000E+00  0.72340741092E+02  0.72340741092E+02  0.00000000000E+00 0. -1.
          2   -1    0    0  501    0  0.00000000000E+00 -0.00000000000E+00 -0.53547801269E+03  0.53547801269E+03  0.00000000000E+00 0.  1.
         23    2    1    2    0    0 -0.38513086717E+02  0.33885544095E+02 -0.52040675262E+03  0.53093389569E+03  0.91848383082E+02 0.  0.
         11    1    3    3    0    0  0.54178166840E+00  0.56529828045E+02 -0.21967699646E+03  0.22683451625E+03  0.00000000000E+00 0. -1.
        -11    1    3    3    0    0 -0.39054868385E+02 -0.22644283950E+02 -0.30072975615E+03  0.30409937944E+03  0.00000000000E+00 0.  1.
         22    1    1    2    0    0  0.38513086717E+02 -0.33885544095E+02  0.57269481022E+02  0.76884858090E+02  0.00000000000E+00 0. -1.
<mgrwt>
<rscale>  0 0.39363372E+03</rscale>
<asrwt>0</asrwt>
<pdfrwt beam="1">  1        2 0.82381233E-01 0.39363372E+03</pdfrwt>
<pdfrwt beam="2">  1       -2 0.11129345E-01 0.39363372E+03</pdfrwt>
<totfact> 0.32346658E+03</totfact>
</mgrwt>
</event>
<event>
 6    1  0.5040916E-004  0.4075996E+04  0.7818608E-02  0.7989389E-01
         -2   -1    0    0    0  501 -0.00000000000E+00  0.00000000000E+00  0.81786991754E+03  0.81786991754E+03  0.00000000000E+00 0. -1.
          2   -1    0    0  501    0  0.00000000000E+00 -0.00000000000E+00 -0.50783584458E+04  0.50783584458E+04  0.00000000000E+00 0.  1.
         23    2    1    2    0    0 -0.20747839776E+03  0.19033810362E+04 -0.31374841448E+04  0.36765334519E+04  0.84763256854E+02 0.  0.
         11    1    3    3    0    0 -0.12771906793E+03  0.10258267337E+04 -0.17686835704E+04  0.20486273990E+04  0.00000000000E+00 0. -1.
        -11    1    3    3    0    0 -0.79759329828E+02  0.87755430252E+03 -0.13688005744E+04  0.16279060529E+04  0.00000000000E+00 0.  1.
         22    1    1    2    0    0  0.20747839776E+03 -0.19033810362E+04 -0.11230043835E+04  0.22196949114E+04  0.00000000000E+00 0. -1.
<mgrwt>
<rscale>  0 0.40759964E+04</rscale>
<asrwt>0</asrwt>
<pdfrwt beam="1">  1        2 0.78128591E+00 0.40759964E+04</pdfrwt>
<pdfrwt beam="2">  1       -2 0.12582614E+00 0.40759964E+04</pdfrwt>
<totfact> 0.99142213E-03</totfact>
</mgrwt>
</event>
<event>
 6    1  0.5040916E-004  0.8210180E+03  0.7818608E-02  0.9530083E-01
         -2   -1    0    0    0  501 -0.00000000000E+00  0.00000000000E+00  0.71297570470E+02  0.71297570470E+02  0.00000000000E+00 0. -1.
          2   -1    0    0  501    0  0.00000000000E+00 -0.00000000000E+00 -0.23635816710E+04  0.23635816710E+04  0.00000000000E+00 0.  1.
         23    2    1    2    0    0 -0.35284765289E+03  0.68628660243E+02 -0.60005820563E+03  0.70489662926E+03  0.87166786370E+02 0.  0.
         13    1    3    3    0    0 -0.17620487502E+02  0.23335915404E+02 -0.29099219161E+02  0.41253013021E+02  0.00000000000E+00 0.  1.
        -13    1    3    3    0    0 -0.33522716539E+03  0.45292744839E+02 -0.57095898647E+03  0.66364361624E+03  0.00000000000E+00 0. -1.
         22    1    1    2    0    0  0.35284765289E+03 -0.68628660243E+02 -0.16922258949E+04  0.17299826122E+04  0.00000000000E+00 0.  1.
<mgrwt>
<rscale>  0 0.82101798E+03</rscale>
<asrwt>0</asrwt>
<pdfrwt beam="1">  1        2 0.36362794E+00 0.82101798E+03</pdfrwt>
<pdfrwt beam="2">  1       -2 0.10968857E-01 0.82101798E+03</pdfrwt>
<totfact> 0.25282137E+02</totfact>
</mgrwt>
</event>
<event>
 6    1  0.5040916E-004  0.3367085E+04  0.7818608E-02  0.8146032E-01
          2   -1    0    0  501    0  0.00000000000E+00  0.00000000000E+00  0.13082471934E+04  0.13082471934E+04  0.00000000000E+00 0.  1.
         -2   -1    0    0    0  501 -0.00000000000E+00 -0.00000000000E+00 -0.21664984316E+04  0.21664984316E+04  0.00000000000E+00 0. -1.
         23    2    1    2    0    0  0.64508100695E+03 -0.11975384176E+03  0.11692232848E+04  0.13437544402E+04  0.90124456791E+02 0.  0.
         13    1    3    3    0    0  0.36040752134E+03 -0.21309205715E+02  0.63342933126E+03  0.72909559139E+03  0.00000000000E+00 0.  1.
        -13    1    3    3    0    0  0.28467348560E+03 -0.98444636048E+02  0.53579395355E+03  0.61465884882E+03  0.00000000000E+00 0. -1.
         22    1    1    2    0    0 -0.64508100695E+03  0.11975384176E+03 -0.20274745230E+04  0.21309911847E+04  0.00000000000E+00 0. -1.
<mgrwt>
<rscale>  0 0.33670851E+04</rscale>
<asrwt>0</asrwt>
<pdfrwt beam="1">  1        2 0.20126880E+00 0.33670851E+04</pdfrwt>
<pdfrwt beam="2">  1       -2 0.33330745E+00 0.33670851E+04</pdfrwt>
<totfact> 0.26878202E-01</totfact>
</mgrwt>
</event>
<event>
 6    1  0.5040916E-004  0.1824093E+04  0.7818608E-02  0.8693591E-01
         -2   -1    0    0    0  501 -0.00000000000E+00  0.00000000000E+00  0.23665880580E+03  0.23665880580E+03  0.00000000000E+00 0. -1.
          2   -1    0    0  501    0  0.00000000000E+00 -0.00000000000E+00 -0.35148866367E+04  0.35148866367E+04  0.00000000000E+00 0.  1.
         23    2    1    2    0    0 -0.57733989792E+03 -0.69116519620E+03 -0.19081544255E+04  0.21119931187E+04  0.91820127594E+02 0.  0.
         13    1    3    3    0    0 -0.11957406882E+03 -0.11527365885E+03 -0.42806686100E+03  0.45915924454E+03  0.00000000000E+00 0. -1.
        -13    1    3    3    0    0 -0.45776582911E+03 -0.57589153735E+03 -0.14800875645E+04  0.16528338742E+04  0.00000000000E+00 0.  1.
         22    1    1    2    0    0  0.57733989792E+03  0.69116519620E+03 -0.13700734053E+04  0.16395523237E+04  0.00000000000E+00 0. -1.
<mgrwt>
<rscale>  0 0.18240931E+04</rscale>
<asrwt>0</asrwt>
<pdfrwt beam="1">  1        2 0.54075181E+00 0.18240931E+04</pdfrwt>
<pdfrwt beam="2">  1       -2 0.36409046E-01 0.18240931E+04</pdfrwt>
<totfact> 0.53531476E+00</totfact>
</mgrwt>
</event>
<event>
 6    1  0.5040916E-004  0.8148904E+03  0.7818608E-02  0.9538710E-01
          2   -1    0    0  501    0  0.00000000000E+00  0.00000000000E+00  0.77706387413E+03  0.77706387413E+03  0.00000000000E+00 0.  1.
         -2   -1    0    0    0  501 -0.00000000000E+00 -0.00000000000E+00 -0.21363957335E+03  0.21363957335E+03  0.00000000000E+00 0. -1.
         23    2    1    2    0    0  0.20770458689E+03  0.16272749384E+03 -0.83643173326E+02  0.29190608865E+03  0.92690622408E+02 0.  0.
         11    1    3    3    0    0  0.97318254682E+02  0.83298751094E+02 -0.88712756336E+02  0.15581873368E+03  0.00000000000E+00 0.  1.
        -11    1    3    3    0    0  0.11038633220E+03  0.79428742749E+02  0.50695830099E+01  0.13608735497E+03  0.00000000000E+00 0. -1.
         22    1    1    2    0    0 -0.20770458689E+03 -0.16272749384E+03  0.64706747410E+03  0.69879735883E+03  0.00000000000E+00 0.  1.
<mgrwt>
<rscale>  0 0.81489041E+03</rscale>
<asrwt>0</asrwt>
<pdfrwt beam="1">  1        2 0.11954829E+00 0.81489041E+03</pdfrwt>
<pdfrwt beam="2">  1       -2 0.32867627E-01 0.81489041E+03</pdfrwt>
<totfact> 0.31050391E+02</totfact>
</mgrwt>
</event>
<event>
 6    1  0.5040916E-004  0.2856793E+04  0.7818608E-02  0.8285850E-01
         -2   -1    0    0    0  501 -0.00000000000E+00  0.00000000000E+00  0.14079790099E+04  0.14079790099E+04  0.00000000000E+00 0. -1.
          2   -1    0    0  501    0  0.00000000000E+00 -0.00000000000E+00 -0.14491102872E+04  0.14491102872E+04  0.00000000000E+00 0.  1.
         23    2    1    2    0    0  0.94468988391E+03  0.36069757013E+03 -0.10274707366E+04  0.14445004529E+04  0.91344021248E+02 0.  0.
         11    1    3    3    0    0  0.64886762620E+03  0.20493418836E+03 -0.71091227439E+03  0.98408509782E+03  0.00000000000E+00 0.  1.
        -11    1    3    3    0    0  0.29582225771E+03  0.15576338178E+03 -0.31655846216E+03  0.46041535512E+03  0.00000000000E+00 0. -1.
         22    1    1    2    0    0 -0.94468988391E+03 -0.36069757013E+03  0.98633945918E+03  0.14125888441E+04  0.00000000000E+00 0. -1.
<mgrwt>
<rscale>  0 0.28567932E+04</rscale>
<asrwt>0</asrwt>
<pdfrwt beam="1">  1        2 0.22294004E+00 0.28567932E+04</pdfrwt>
<pdfrwt beam="2">  1       -2 0.21661216E+00 0.28567932E+04</pdfrwt>
<totfact> 0.12204132E+00</totfact>
</mgrwt>
</event>
<event>
 6    1  0.5040916E-004  0.2351058E+04  0.7818608E-02  0.8458057E-01
          2   -1    0    0  501    0  0.00000000000E+00  0.00000000000E+00  0.21240427983E+04  0.21240427983E+04  0.00000000000E+00 0.  1.
         -2   -1    0    0    0  501 -0.00000000000E+00 -0.00000000000E+00 -0.65058402152E+03  0.65058402152E+03  0.00000000000E+00 0. -1.
         23    2    1    2    0    0 -0.10166472662E+04  0.56803401149E+03  0.91135929451E+03  0.14814949124E+04  0.89538314687E+02 0.  0.
         13    1    3    3    0    0 -0.34038505156E+03  0.20444950621E+03  0.25995334584E+03  0.47459174658E+03  0.00000000000E+00 0.  1.
        -13    1    3    3    0    0 -0.67626221461E+03  0.36358450528E+03  0.65140594867E+03  0.10069031658E+04  0.00000000000E+00 0. -1.
         22    1    1    2    0    0  0.10166472662E+04 -0.56803401149E+03  0.56209948229E+03  0.12931319074E+04  0.00000000000E+00 0. -1.
<mgrwt>
<rscale>  0 0.23510579E+04</rscale>
<asrwt>0</asrwt>
<pdfrwt beam="1">  1        2 0.32677581E+00 0.23510579E+04</pdfrwt>
<pdfrwt beam="2">  1       -2 0.10008985E+00 0.23510579E+04</pdfrwt>
<totfact> 0.42388252E+00</totfact>
</mgrwt>
</event>
<event>
 6    1  0.5040916E-004  0.6764786E+03  0.7818608E-02  0.9758325E-01
          2   -1    0    0  501    0  0.00000000000E+00  0.00000000000E+00  0.48501564883E+03  0.48501564883E+03  0.00000000000E+00 0.  1.
         -2   -1    0    0    0  501 -0.00000000000E+00 -0.00000000000E+00 -0.23588067296E+03  0.23588067296E+03  0.00000000000E+00 0. -1.
         23    2    1    2    0    0  0.45689420075E+02  0.10765560532E+03  0.45803078795E+03  0.48149140795E+03  0.91457753976E+02 0.  0.
         11    1    3    3    0    0  0.22502756112E+02  0.59526144329E+02  0.93715205814E+02  0.11327963494E+03  0.00000000000E+00 0.  1.
        -11    1    3    3    0    0  0.23186663963E+02  0.48129460986E+02  0.36431558213E+03  0.36821177301E+03  0.00000000000E+00 0. -1.
         22    1    1    2    0    0 -0.45689420075E+02 -0.10765560532E+03 -0.20889581208E+03  0.23940491383E+03  0.00000000000E+00 0. -1.
<mgrwt>
<rscale>  0 0.67647858E+03</rscale>
<asrwt>0</asrwt>
<pdfrwt beam="1">  1        2 0.74617792E-01 0.67647858E+03</pdfrwt>
<pdfrwt beam="2">  1       -2 0.36289334E-01 0.67647858E+03</pdfrwt>
<totfact> 0.45930186E+02</totfact>
</mgrwt>
</event>
<event>
 6    1  0.5040916E-004  0.4624594E+04  0.7818608E-02  0.7889180E-01
         -2   -1    0    0    0  501 -0.00000000000E+00  0.00000000000E+00  0.12160939111E+04  0.12160939111E+04  0.00000000000E+00 0. -1.
          2   -1    0    0  501    0  0.00000000000E+00 -0.00000000000E+00 -0.43966316729E+04  0.43966316729E+04  0.00000000000E+00 0.  1.
         23    2    1    2    0    0  0.14388394646E+03  0.21925815927E+04 -0.72063468849E+03  0.23143563262E+04  0.93884075705E+02 0.  0.
         13    1    3    3    0    0  0.40878432304E+02  0.55320585824E+03 -0.13958398736E+03  0.57200651862E+03  0.00000000000E+00 0.  1.
        -13    1    3    3    0    0  0.10300551415E+03  0.16393757344E+04 -0.58105070113E+03  0.17423498075E+04  0.00000000000E+00 0. -1.
         22    1    1    2    0    0 -0.14388394646E+03 -0.21925815927E+04 -0.24599030733E+04  0.32983692578E+04  0.00000000000E+00 0.  1.
<mgrwt>
<rscale>  0 0.46245938E+04</rscale>
<asrwt>0</asrwt>
<pdfrwt beam="1">  1        2 0.67640485E+00 0.46245938E+04</pdfrwt>
<pdfrwt beam="2">  1       -2 0.18709138E+00 0.46245938E+04</pdfrwt>
<totfact> 0.18659371E-02</totfact>
</mgrwt>
</event>
<event>
 6    1  0.5040916E-004  0.2512645E+04  0.7818608E-02  0.8398495E-01
         -2   -1    0    0    0  501 -0.00000000000E+00  0.00000000000E+00  0.13810978599E+04  0.13810978599E+04  0.00000000000E+00 0. -1.
          2   -1    0    0  501    0  0.00000000000E+00 -0.00000000000E+00 -0.11428196712E+04  0.11428196712E+04  0.00000000000E+00 0.  1.
         23    2    1    2    0    0  0.71333749599E+03  0.77118117747E+03  0.80892181618E+03  0.13284239338E+04  0.82370210635E+02 0.  0.
         13    1    3    3    0    0  0.34375417402E+03  0.41029118512E+03  0.45162128996E+03  0.70033390486E+03  0.00000000000E+00 0.  1.
        -13    1    3    3    0    0  0.36958332196E+03  0.36088999234E+03  0.35730052622E+03  0.62809002896E+03  0.00000000000E+00 0. -1.
         22    1    1    2    0    0 -0.71333749599E+03 -0.77118117747E+03 -0.57064362747E+03  0.11954935973E+04  0.00000000000E+00 0.  1.
<mgrwt>
<rscale>  0 0.25126447E+04</rscale>
<asrwt>0</asrwt>
<pdfrwt beam="1">  1        2 0.17581841E+00 0.25126447E+04</pdfrwt>
<pdfrwt beam="2">  1       -2 0.21247659E+00 0.25126447E+04</pdfrwt>
<totfact> 0.20167056E+00</totfact>
</mgrwt>
</event>
<event>
 6    1  0.5040916E-004  0.1921582E+04  0.7818608E-02  0.8644188E-01
         -2   -1    0    0    0  501 -0.00000000000E+00  0.00000000000E+00  0.87601624463E+03  0.87601624463E+03  0.00000000000E+00 0. -1.
          2   -1    0    0  501    0  0.00000000000E+00 -0.00000000000E+00 -0.10537693493E+04  0.10537693493E+04  0.00000000000E+00 0.  1.
         23    2    1    2    0    0 -0.90106204691E+03 -0.79458106428E+02 -0.40765364176E+03  0.99646857387E+03  0.92421447754E+02 0.  0.
         13    1    3    3    0    0 -0.17978392308E+03 -0.24563614055E+02 -0.12247546035E+03  0.21891977645E+03  0.00000000000E+00 0. -1.
        -13    1    3    3    0    0 -0.72127812383E+03 -0.54894492373E+02 -0.28517818141E+03  0.77754879742E+03  0.00000000000E+00 0.  1.
         22    1    1    2    0    0  0.90106204691E+03  0.79458106428E+02  0.22990053705E+03  0.93331702009E+03  0.00000000000E+00 0. -1.
<mgrwt>
<rscale>  0 0.19215817E+04</rscale>
<asrwt>0</asrwt>
<pdfrwt beam="1">  1        2 0.16211836E+00 0.19215817E+04</pdfrwt>
<pdfrwt beam="2">  1       -2 0.13477173E+00 0.19215817E+04</pdfrwt>
<totfact> 0.86245785E+00</totfact>
</mgrwt>
</event>
<event>
 6    1  0.5040916E-004  0.2162036E+04  0.7818608E-02  0.8534398E-01
         -2   -1    0    0    0  501 -0.00000000000E+00  0.00000000000E+00  0.45525101413E+03  0.45525101413E+03  0.00000000000E+00 0. -1.
          2   -1    0    0  501    0  0.00000000000E+00 -0.00000000000E+00 -0.25669344778E+04  0.25669344778E+04  0.00000000000E+00 0.  1.
         23    2    1    2    0    0  0.99590289214E+03 -0.25894198398E+03 -0.60420167592E+03  0.11969800618E+04  0.93957871246E+02 0.  0.
         11    1    3    3    0    0  0.50454173541E+03 -0.17434890454E+03 -0.33721599547E+03  0.63140678717E+03  0.00000000000E+00 0. -1.
        -11    1    3    3    0    0  0.49136115673E+03 -0.84593079445E+02 -0.26698568046E+03  0.56557327466E+03  0.00000000000E+00 0.  1.
         22    1    1    2    0    0 -0.99590289214E+03  0.25894198398E+03 -0.15074817877E+04  0.18252054301E+04  0.00000000000E+00 0.  1.
<mgrwt>
<rscale>  0 0.21620356E+04</rscale>
<asrwt>0</asrwt>
<pdfrwt beam="1">  1        2 0.39491298E+00 0.21620356E+04</pdfrwt>
<pdfrwt beam="2">  1       -2 0.70038620E-01 0.21620356E+04</pdfrwt>
<totfact> 0.54187668E+00</totfact>
</mgrwt>
</event>
<event>
 6    1  0.5040916E-004  0.4167781E+04  0.7818608E-02  0.7971529E-01
          2   -1    0    0  501    0  0.00000000000E+00  0.00000000000E+00  0.18220084304E+04  0.18220084304E+04  0.00000000000E+00 0.  1.
         -2   -1    0    0    0  501 -0.00000000000E+00 -0.00000000000E+00 -0.23834134443E+04  0.23834134443E+04  0.00000000000E+00 0. -1.
         23    2    1    2    0    0 -0.73862032245E+02  0.15699241921E+04  0.10984050595E+04  0.19195769438E+04  0.90357068088E+02 0.  0.
         11    1    3    3    0    0 -0.27672605522E+02  0.73904177279E+03  0.57125709344E+03  0.93449621820E+03  0.00000000000E+00 0. -1.
        -11    1    3    3    0    0 -0.46189426722E+02  0.83088241931E+03  0.52714796602E+03  0.98508072559E+03  0.00000000000E+00 0.  1.
         22    1    1    2    0    0  0.73862032245E+02 -0.15699241921E+04 -0.16598100733E+04  0.22858449309E+04  0.00000000000E+00 0. -1.
<mgrwt>
<rscale>  0 0.41677809E+04</rscale>
<asrwt>0</asrwt>
<pdfrwt beam="1">  1        2 0.28030899E+00 0.41677809E+04</pdfrwt>
<pdfrwt beam="2">  1       -2 0.36667899E+00 0.41677809E+04</pdfrwt>
<totfact> 0.79585930E-02</totfact>
</mgrwt>
</event>
<event>
 6    1  0.5040916E-004  0.8628488E+03  0.7818608E-02  0.9473252E-01
          1   -1    0    0  501    0  0.00000000000E+00  0.00000000000E+00  0.20114709768E+04  0.20114709768E+04  0.00000000000E+00 0.  1.
         -1   -1    0    0    0  501 -0.00000000000E+00 -0.00000000000E+00 -0.92532792075E+02  0.92532792075E+02  0.00000000000E+00 0. -1.
         23    2    1    2    0    0  0.14711204232E+03 -0.14938136717E+03  0.18759827607E+04  0.18899899508E+04  0.93776063533E+02 0.  0.
         11    1    3    3    0    0  0.51419200526E+02 -0.11202052401E+03  0.85246070050E+03  0.86132559342E+03  0.00000000000E+00 0. -1.
        -11    1    3    3    0    0  0.95692841798E+02 -0.37360843156E+02  0.10235220602E+04  0.10286643574E+04  0.00000000000E+00 0.  1.
         22    1    1    2    0    0 -0.14711204232E+03  0.14938136717E+03  0.42955424054E+02  0.21401381803E+03  0.00000000000E+00 0. -1.
<mgrwt>
<rscale>  0 0.86284883E+03</rscale>
<asrwt>0</asrwt>
<pdfrwt beam="1">  1        1 0.30945704E+00 0.86284883E+03</pdfrwt>
<pdfrwt beam="2">  1       -1 0.14235816E-01 0.86284883E+03</pdfrwt>
<totfact> 0.10690033E+02</totfact>
</mgrwt>
</event>
<event>
 6    1  0.5040916E-004  0.3464818E+04  0.7818608E-02  0.8122178E-01
          2   -1    0    0  501    0  0.00000000000E+00  0.00000000000E+00  0.33826108867E+04  0.33826108867E+04  0.00000000000E+00 0.  1.
         -2   -1    0    0    0  501 -0.00000000000E+00 -0.00000000000E+00 -0.88725599949E+03  0.88725599949E+03  0.00000000000E+00 0. -1.
         23    2    1    2    0    0  0.11151587212E+04  0.12838643067E+04  0.16481325289E+04  0.23699531366E+04  0.91926632072E+02 0.  0.
         11    1    3    3    0    0  0.71708213943E+03  0.83457451265E+03  0.11262749573E+04  0.15745528544E+04  0.00000000000E+00 0.  1.
        -11    1    3    3    0    0  0.39807658173E+03  0.44928979404E+03  0.52185757154E+03  0.79540028220E+03  0.00000000000E+00 0. -1.
         22    1    1    2    0    0 -0.11151587212E+04 -0.12838643067E+04  0.84722235837E+03  0.18999137496E+04  0.00000000000E+00 0. -1.
<mgrwt>
<rscale>  0 0.34648185E+04</rscale>
<asrwt>0</asrwt>
<pdfrwt beam="1">  1        2 0.52040167E+00 0.34648185E+04</pdfrwt>
<pdfrwt beam="2">  1       -2 0.13650092E+00 0.34648185E+04</pdfrwt>
<totfact> 0.30922630E-01</totfact>
</mgrwt>
</event>
<event>
 6    1  0.5040916E-004  0.8342926E+03  0.7818608E-02  0.9511665E-01
          2   -1    0    0  501    0  0.00000000000E+00  0.00000000000E+00  0.11064737421E+04  0.11064737421E+04  0.00000000000E+00 0.  1.
         -2   -1    0    0    0  501 -0.00000000000E+00 -0.00000000000E+00 -0.15726629081E+03  0.15726629081E+03  0.00000000000E+00 0. -1.
         23    2    1    2    0    0  0.13068741294E+03 -0.36469078523E+03  0.26797226374E+03  0.48005645550E+03  0.92555375865E+02 0.  0.
         13    1    3    3    0    0  0.72978386115E+02 -0.89644370642E+02  0.98560584833E+02  0.15190835036E+03  0.00000000000E+00 0.  1.
        -13    1    3    3    0    0  0.57709026824E+02 -0.27504641459E+03  0.16941167890E+03  0.32814810513E+03  0.00000000000E+00 0. -1.
         22    1    1    2    0    0 -0.13068741294E+03  0.36469078523E+03  0.68123518752E+03  0.78368357737E+03  0.00000000000E+00 0. -1.
<mgrwt>
<rscale>  0 0.83429257E+03</rscale>
<asrwt>0</asrwt>
<pdfrwt beam="1">  1        2 0.17022673E+00 0.83429257E+03</pdfrwt>
<pdfrwt beam="2">  1       -2 0.24194815E-01 0.83429257E+03</pdfrwt>
<totfact> 0.32960777E+02</totfact>
</mgrwt>
</event>
<event>
 6    1  0.5040916E-004  0.7107318E+03  0.7818608E-02  0.9699053E-01
         -2   -1    0    0    0  501 -0.00000000000E+00  0.00000000000E+00  0.38475210050E+03  0.38475210050E+03  0.00000000000E+00 0. -1.
          2   -1    0    0  501    0  0.00000000000E+00 -0.00000000000E+00 -0.32822412506E+03  0.32822412506E+03  0.00000000000E+00 0.  1.
         23    2    1    2    0    0  0.31726689900E+03  0.61690015457E+02  0.16140655363E+03  0.37317707993E+03  0.93515315441E+02 0.  0.
         13    1    3    3    0    0  0.21141681556E+03  0.99183390891E+01  0.66420376411E+02  0.22182675618E+03  0.00000000000E+00 0.  1.
        -13    1    3    3    0    0  0.10585008344E+03  0.51771676368E+02  0.94986177220E+02  0.15135032375E+03  0.00000000000E+00 0. -1.
         22    1    1    2    0    0 -0.31726689900E+03 -0.61690015457E+02 -0.10487857819E+03  0.33979914563E+03  0.00000000000E+00 0.  1.
<mgrwt>
<rscale>  0 0.71073180E+03</rscale>
<asrwt>0</asrwt>
<pdfrwt beam="1">  1        2 0.50496019E-01 0.71073180E+03</pdfrwt>
<pdfrwt beam="2">  1       -2 0.59192631E-01 0.71073180E+03</pdfrwt>
<totfact> 0.26719034E+02</totfact>
</mgrwt>
</event>
<event>
 6    1  0.5040916E-004  0.3609590E+04  0.7818608E-02  0.8088298E-01
         -2   -1    0    0    0  501 -0.00000000000E+00  0.00000000000E+00  0.12154201940E+04  0.12154201940E+04  0.00000000000E+00 0. -1.
          2   -1    0    0  501    0  0.00000000000E+00 -0.00000000000E+00 -0.26799668824E+04  0.26799668824E+04  0.00000000000E+00 0.  1.
         23    2    1    2    0    0  0.99283093308E+03  0.12448161536E+04 -0.16470708396E+04  0.22927032075E+04  0.91461079529E+02 0.  0.
         11    1    3    3    0    0  0.11617729707E+03  0.10280016982E+03 -0.15452288823E+03  0.21895744393E+03  0.00000000000E+00 0. -1.
        -11    1    3    3    0    0  0.87665363601E+03  0.11420159838E+04 -0.14925479513E+04  0.20737457636E+04  0.00000000000E+00 0.  1.
         22    1    1    2    0    0 -0.99283093308E+03 -0.12448161536E+04  0.18252415122E+03  0.16026838690E+04  0.00000000000E+00 0. -1.
<mgrwt>
<rscale>  0 0.36095905E+04</rscale>
<asrwt>0</asrwt>
<pdfrwt beam="1">  1        2 0.41230259E+00 0.36095905E+04</pdfrwt>
<pdfrwt beam="2">  1       -2 0.18698773E+00 0.36095905E+04</pdfrwt>
<totfact> 0.36095183E-01</totfact>
</mgrwt>
</event>
<event>
 6    1  0.5040916E-004  0.1840883E+04  0.7818608E-02  0.8684856E-01
          2   -1    0    0  501    0  0.00000000000E+00  0.00000000000E+00  0.47861497579E+03  0.47861497579E+03  0.00000000000E+00 0. -1.
         -2   -1    0    0    0  501 -0.00000000000E+00 -0.00000000000E+00 -0.17701330848E+04  0.17701330848E+04  0.00000000000E+00 0.  1.
         23    2    1    2    0    0 -0.53087408048E+03  0.63869067008E+02 -0.15588160928E+04  0.16509564923E+04  0.99212807248E+02 0.  0.
         11    1    3    3    0    0 -0.17715599857E+03 -0.66436354362E+01 -0.63327843424E+03  0.65762448327E+03  0.00000000000E+00 0.  1.
        -11    1    3    3    0    0 -0.35371808191E+03  0.70512702444E+02 -0.92553765855E+03  0.99333200898E+03  0.00000000000E+00 0. -1.
         22    1    1    2    0    0  0.53087408048E+03 -0.63869067008E+02  0.26729798378E+03  0.59779156834E+03  0.00000000000E+00 0. -1.
<mgrwt>
<rscale>  0 0.18408826E+04</rscale>
<asrwt>0</asrwt>
<pdfrwt beam="1">  1        2 0.73633073E-01 0.18408826E+04</pdfrwt>
<pdfrwt beam="2">  1       -2 0.27232817E+00 0.18408826E+04</pdfrwt>
<totfact> 0.28609868E+00</totfact>
</mgrwt>
</event>
<event>
 6    1  0.5040916E-004  0.1270039E+04  0.7818608E-02  0.9053668E-01
         -2   -1    0    0    0  501 -0.00000000000E+00  0.00000000000E+00  0.27802671691E+03  0.27802671691E+03  0.00000000000E+00 0. -1.
          2   -1    0    0  501    0  0.00000000000E+00 -0.00000000000E+00 -0.14503990355E+04  0.14503990355E+04  0.00000000000E+00 0.  1.
         23    2    1    2    0    0  0.36944252841E+03 -0.29766148385E+03 -0.21911828865E+02  0.48397829301E+03  0.93084472912E+02 0.  0.
         13    1    3    3    0    0  0.24004444472E+03 -0.18348417679E+03 -0.58051343197E+02  0.30766497529E+03  0.00000000000E+00 0. -1.
        -13    1    3    3    0    0  0.12939808369E+03 -0.11417730706E+03  0.36139514333E+02  0.17631331772E+03  0.00000000000E+00 0.  1.
         22    1    1    2    0    0 -0.36944252841E+03  0.29766148385E+03 -0.11504604897E+04  0.12444474594E+04  0.00000000000E+00 0.  1.
<mgrwt>
<rscale>  0 0.12700389E+04</rscale>
<asrwt>0</asrwt>
<pdfrwt beam="1">  1        2 0.22313832E+00 0.12700389E+04</pdfrwt>
<pdfrwt beam="2">  1       -2 0.42773340E-01 0.12700389E+04</pdfrwt>
<totfact> 0.68895506E+01</totfact>
</mgrwt>
</event>
<event>
 6    1  0.5040916E-004  0.1198589E+04  0.7818608E-02  0.9114092E-01
         -1   -1    0    0    0  501 -0.00000000000E+00  0.00000000000E+00  0.54397793115E+03  0.54397793115E+03  0.00000000000E+00 0. -1.
          1   -1    0    0  501    0  0.00000000000E+00 -0.00000000000E+00 -0.66023647051E+03  0.66023647051E+03  0.00000000000E+00 0.  1.
         23    2    1    2    0    0  0.39874381624E+03 -0.42893041792E+03 -0.16897332490E+03  0.61620353185E+03  0.90426067742E+02 0.  0.
         13    1    3    3    0    0  0.77362905659E+02 -0.12665792465E+03 -0.69742411568E+02  0.16398552686E+03  0.00000000000E+00 0. -1.
        -13    1    3    3    0    0  0.32138091058E+03 -0.30227249327E+03 -0.99230913330E+02  0.45221800499E+03  0.00000000000E+00 0.  1.
         22    1    1    2    0    0 -0.39874381624E+03  0.42893041792E+03  0.52714785546E+02  0.58801086981E+03  0.00000000000E+00 0. -1.
<mgrwt>
<rscale>  0 0.11985893E+04</rscale>
<asrwt>0</asrwt>
<pdfrwt beam="1">  1        1 0.10157484E+00 0.11985893E+04</pdfrwt>
<pdfrwt beam="2">  1       -1 0.83688912E-01 0.11985893E+04</pdfrwt>
<totfact> 0.41727314E+01</totfact>
</mgrwt>
</event>
<event>
 6    1  0.5040916E-004  0.3147395E+04  0.7818608E-02  0.8202850E-01
         -2   -1    0    0    0  501 -0.00000000000E+00  0.00000000000E+00  0.19823461810E+04  0.19823461810E+04  0.00000000000E+00 0. -1.
          2   -1    0    0  501    0  0.00000000000E+00 -0.00000000000E+00 -0.12492896429E+04  0.12492896429E+04  0.00000000000E+00 0.  1.
         23    2    1    2    0    0  0.11466465888E+04  0.17200063225E+03 -0.72359449713E+03  0.13698584861E+04  0.92415682552E+02 0.  0.
         11    1    3    3    0    0  0.91916992570E+03  0.14165521352E+03 -0.62223311479E+03  0.11189788206E+04  0.00000000000E+00 0. -1.
        -11    1    3    3    0    0  0.22747666312E+03  0.30345418732E+02 -0.10136138233E+03  0.25087966544E+03  0.00000000000E+00 0.  1.
         22    1    1    2    0    0 -0.11466465888E+04 -0.17200063225E+03  0.14566510353E+04  0.18617773378E+04  0.00000000000E+00 0. -1.
<mgrwt>
<rscale>  0 0.31473955E+04</rscale>
<asrwt>0</asrwt>
<pdfrwt beam="1">  1        2 0.19219841E+00 0.31473955E+04</pdfrwt>
<pdfrwt beam="2">  1       -2 0.30497634E+00 0.31473955E+04</pdfrwt>
<totfact> 0.44356761E-01</totfact>
</mgrwt>
</event>
<event>
 6    1  0.5040916E-004  0.3752102E+04  0.7818608E-02  0.8056512E-01
          2   -1    0    0  501    0  0.00000000000E+00  0.00000000000E+00  0.18339487778E+04  0.18339487778E+04  0.00000000000E+00 0.  1.
         -2   -1    0    0    0  501 -0.00000000000E+00 -0.00000000000E+00 -0.19191197763E+04  0.19191197763E+04  0.00000000000E+00 0. -1.
         23    2    1    2    0    0 -0.11639705273E+04 -0.21183873882E+03  0.14122781053E+04  0.18446511841E+04  0.92225290998E+02 0.  0.
         11    1    3    3    0    0 -0.70839364455E+03 -0.98409985287E+02  0.90444262435E+03  0.11530492364E+04  0.00000000000E+00 0.  1.
        -11    1    3    3    0    0 -0.45557688277E+03 -0.11342875353E+03  0.50783548098E+03  0.69160194764E+03  0.00000000000E+00 0. -1.
         22    1    1    2    0    0  0.11639705273E+04  0.21183873882E+03 -0.14974491038E+04  0.19084173700E+04  0.00000000000E+00 0. -1.
<mgrwt>
<rscale>  0 0.37521020E+04</rscale>
<asrwt>0</asrwt>
<pdfrwt beam="1">  1        2 0.28214596E+00 0.37521020E+04</pdfrwt>
<pdfrwt beam="2">  1       -2 0.29524920E+00 0.37521020E+04</pdfrwt>
<totfact> 0.22602012E-01</totfact>
</mgrwt>
</event>
<event>
 6    1  0.5040916E-004  0.1015517E+04  0.7818608E-02  0.9291688E-01
          2   -1    0    0  501    0  0.00000000000E+00  0.00000000000E+00  0.55702132597E+03  0.55702132597E+03  0.00000000000E+00 0.  1.
         -2   -1    0    0    0  501 -0.00000000000E+00 -0.00000000000E+00 -0.46285229838E+03  0.46285229838E+03  0.00000000000E+00 0. -1.
         23    2    1    2    0    0  0.32596041628E+02 -0.49630435270E+03 -0.31092373414E+02  0.50696921705E+03  0.93115728601E+02 0.  0.
         13    1    3    3    0    0 -0.11291821815E+02 -0.38532164711E+03 -0.38433927731E+02  0.38739830120E+03  0.00000000000E+00 0. -1.
        -13    1    3    3    0    0  0.43887863442E+02 -0.11098270560E+03  0.73415543175E+01  0.11957091586E+03  0.00000000000E+00 0.  1.
         22    1    1    2    0    0 -0.32596041628E+02  0.49630435270E+03  0.12526140100E+03  0.51290440729E+03  0.00000000000E+00 0. -1.
<mgrwt>
<rscale>  0 0.10155168E+04</rscale>
<asrwt>0</asrwt>
<pdfrwt beam="1">  1        2 0.85695589E-01 0.10155168E+04</pdfrwt>
<pdfrwt beam="2">  1       -2 0.71208046E-01 0.10155168E+04</pdfrwt>
<totfact> 0.96935137E+01</totfact>
</mgrwt>
</event>
<event>
 6    1  0.5040916E-004  0.3290362E+04  0.7818608E-02  0.8165352E-01
          2   -1    0    0  501    0  0.00000000000E+00  0.00000000000E+00  0.17334668780E+04  0.17334668780E+04  0.00000000000E+00 0.  1.
         -2   -1    0    0    0  501 -0.00000000000E+00 -0.00000000000E+00 -0.15613919476E+04  0.15613919476E+04  0.00000000000E+00 0. -1.
         23    2    1    2    0    0 -0.15322427194E+04 -0.56015261116E+03 -0.11591375860E+03  0.16382127607E+04  0.93628793779E+02 0.  0.
         13    1    3    3    0    0 -0.24457970372E+03 -0.54424226896E+02 -0.10337485047E+02  0.25077498189E+03  0.00000000000E+00 0.  1.
        -13    1    3    3    0    0 -0.12876630157E+04 -0.50572838426E+03 -0.10557627355E+03  0.13874377789E+04  0.00000000000E+00 0. -1.
         22    1    1    2    0    0  0.15322427194E+04  0.56015261116E+03  0.28798868903E+03  0.16566460648E+04  0.00000000000E+00 0. -1.
<mgrwt>
<rscale>  0 0.32903624E+04</rscale>
<asrwt>0</asrwt>
<pdfrwt beam="1">  1        2 0.26668721E+00 0.32903624E+04</pdfrwt>
<pdfrwt beam="2">  1       -2 0.24021415E+00 0.32903624E+04</pdfrwt>
<totfact> 0.57999061E-01</totfact>
</mgrwt>
</event>
<event>
 6    1  0.5040916E-004  0.2692949E+04  0.7818608E-02  0.8337296E-01
          2   -1    0    0  501    0  0.00000000000E+00  0.00000000000E+00  0.23378400587E+04  0.23378400587E+04  0.00000000000E+00 0.  1.
         -2   -1    0    0    0  501 -0.00000000000E+00 -0.00000000000E+00 -0.77549921366E+03  0.77549921366E+03  0.00000000000E+00 0. -1.
         23    2    1    2    0    0  0.85405374452E+03  0.46392780017E+03 -0.29254811468E+03  0.10192404554E+04  0.92897277857E+02 0.  0.
         11    1    3    3    0    0  0.17474934865E+03  0.13863347529E+03 -0.73520384577E+02  0.23486554084E+03  0.00000000000E+00 0. -1.
        -11    1    3    3    0    0  0.67930439588E+03  0.32529432488E+03 -0.21902773010E+03  0.78437491457E+03  0.00000000000E+00 0.  1.
         22    1    1    2    0    0 -0.85405374452E+03 -0.46392780017E+03  0.18548889597E+04  0.20940988170E+04  0.00000000000E+00 0.  1.
<mgrwt>
<rscale>  0 0.26929487E+04</rscale>
<asrwt>0</asrwt>
<pdfrwt beam="1">  1        2 0.35966770E+00 0.26929487E+04</pdfrwt>
<pdfrwt beam="2">  1       -2 0.11930757E+00 0.26929487E+04</pdfrwt>
<totfact> 0.20398387E+00</totfact>
</mgrwt>
</event>
<event>
 6    1  0.5040916E-004  0.2682501E+04  0.7818608E-02  0.8340705E-01
          2   -1    0    0  501    0  0.00000000000E+00  0.00000000000E+00  0.88210469098E+03  0.88210469098E+03  0.00000000000E+00 0.  1.
         -2   -1    0    0    0  501 -0.00000000000E+00 -0.00000000000E+00 -0.20393864968E+04  0.20393864968E+04  0.00000000000E+00 0. -1.
         23    2    1    2    0    0  0.31950346175E+03 -0.10866629483E+04 -0.13584624637E+04  0.17711032173E+04  0.92019105786E+02 0.  0.
         11    1    3    3    0    0  0.20722441786E+03 -0.81019756935E+03 -0.10431196621E+04  0.13369594946E+04  0.00000000000E+00 0.  1.
        -11    1    3    3    0    0  0.11227904389E+03 -0.27646537898E+03 -0.31534280162E+03  0.43414372275E+03  0.00000000000E+00 0. -1.
         22    1    1    2    0    0 -0.31950346175E+03  0.10866629483E+04  0.20118065792E+03  0.11503879704E+04  0.00000000000E+00 0.  1.
<mgrwt>
<rscale>  0 0.26825006E+04</rscale>
<asrwt>0</asrwt>
<pdfrwt beam="1">  1        2 0.13570842E+00 0.26825006E+04</pdfrwt>
<pdfrwt beam="2">  1       -2 0.31375176E+00 0.26825006E+04</pdfrwt>
<totfact> 0.69330240E-01</totfact>
</mgrwt>
</event>
<event>
 6    1  0.5040916E-004  0.4166892E+04  0.7818608E-02  0.7971700E-01
         -2   -1    0    0    0  501 -0.00000000000E+00  0.00000000000E+00  0.18482485250E+04  0.18482485250E+04  0.00000000000E+00 0. -1.
          2   -1    0    0  501    0  0.00000000000E+00 -0.00000000000E+00 -0.23485735535E+04  0.23485735535E+04  0.00000000000E+00 0.  1.
         23    2    1    2    0    0  0.11691963858E+04 -0.17232204898E+04 -0.26727864203E+03  0.21013938017E+04  0.88932516468E+02 0.  0.
         11    1    3    3    0    0  0.69950793831E+03 -0.95308058624E+03 -0.15703185039E+03  0.11926160160E+04  0.00000000000E+00 0.  1.
        -11    1    3    3    0    0  0.46968844750E+03 -0.77013990356E+03 -0.11024679163E+03  0.90877778573E+03  0.00000000000E+00 0. -1.
         22    1    1    2    0    0 -0.11691963858E+04  0.17232204898E+04 -0.23304638644E+03  0.20954282768E+04  0.00000000000E+00 0.  1.
<mgrwt>
<rscale>  0 0.41668922E+04</rscale>
<asrwt>0</asrwt>
<pdfrwt beam="1">  1        2 0.36131901E+00 0.41668922E+04</pdfrwt>
<pdfrwt beam="2">  1       -2 0.28434593E+00 0.41668922E+04</pdfrwt>
<totfact> 0.13118681E-01</totfact>
</mgrwt>
</event>
<event>
 6    1  0.5040916E-004  0.3207470E+04  0.7818608E-02  0.8186847E-01
          2   -1    0    0  501    0  0.00000000000E+00  0.00000000000E+00  0.25245516947E+04  0.25245516947E+04  0.00000000000E+00 0.  1.
         -2   -1    0    0    0  501 -0.00000000000E+00 -0.00000000000E+00 -0.10187810631E+04  0.10187810631E+04  0.00000000000E+00 0. -1.
         23    2    1    2    0    0 -0.82280497723E+03  0.11433220983E+04 -0.90357182120E+02  0.14145261793E+04  0.92338727650E+02 0.  0.
         11    1    3    3    0    0 -0.52403587669E+03  0.74158574174E+03 -0.14596707425E+02  0.90817183191E+03  0.00000000000E+00 0.  1.
        -11    1    3    3    0    0 -0.29876910054E+03  0.40173635655E+03 -0.75760474695E+02  0.50635434741E+03  0.00000000000E+00 0. -1.
         22    1    1    2    0    0  0.82280497723E+03 -0.11433220983E+04  0.15961278137E+04  0.21288065785E+04  0.00000000000E+00 0.  1.
<mgrwt>
<rscale>  0 0.32074697E+04</rscale>
<asrwt>0</asrwt>
<pdfrwt beam="1">  1        2 0.38839257E+00 0.32074697E+04</pdfrwt>
<pdfrwt beam="2">  1       -2 0.15673555E+00 0.32074697E+04</pdfrwt>
<totfact> 0.75503309E-01</totfact>
</mgrwt>
</event>
<event>
 6    1  0.5040916E-004  0.1282711E+04  0.7818608E-02  0.9043389E-01
         -2   -1    0    0    0  501 -0.00000000000E+00  0.00000000000E+00  0.31345793285E+03  0.31345793285E+03  0.00000000000E+00 0. -1.
          2   -1    0    0  501    0  0.00000000000E+00 -0.00000000000E+00 -0.13122544631E+04  0.13122544631E+04  0.00000000000E+00 0.  1.
         23    2    1    2    0    0  0.41864005150E+03  0.97513864939E+02  0.96198745727E+02  0.44936929082E+03  0.88938823246E+02 0.  0.
         13    1    3    3    0    0  0.33007191924E+03  0.62033826240E+02  0.38951043769E+02  0.33810183567E+03  0.00000000000E+00 0. -1.
        -13    1    3    3    0    0  0.88568132258E+02  0.35480038700E+02  0.57247701957E+02  0.11126745516E+03  0.00000000000E+00 0.  1.
         22    1    1    2    0    0 -0.41864005150E+03 -0.97513864939E+02 -0.10949952760E+04  0.11763431051E+04  0.00000000000E+00 0.  1.
<mgrwt>
<rscale>  0 0.12827105E+04</rscale>
<asrwt>0</asrwt>
<pdfrwt beam="1">  1        2 0.20188530E+00 0.12827105E+04</pdfrwt>
<pdfrwt beam="2">  1       -2 0.48224298E-01 0.12827105E+04</pdfrwt>
<totfact> 0.64982137E+01</totfact>
</mgrwt>
</event>
<event>
 6    1  0.5040916E-004  0.3635470E+04  0.7818608E-02  0.8082415E-01
         -2   -1    0    0    0  501 -0.00000000000E+00  0.00000000000E+00  0.98030401431E+03  0.98030401431E+03  0.00000000000E+00 0. -1.
          2   -1    0    0  501    0  0.00000000000E+00 -0.00000000000E+00 -0.33705459054E+04  0.33705459054E+04  0.00000000000E+00 0.  1.
         23    2    1    2    0    0  0.53208391297E+03  0.25726142253E+03 -0.32516436905E+04  0.33061921814E+04  0.91778648342E+02 0.  0.
         13    1    3    3    0    0  0.27069687707E+03  0.18025751756E+03 -0.18278334907E+04  0.18565410962E+04  0.00000000000E+00 0. -1.
        -13    1    3    3    0    0  0.26138703590E+03  0.77003904977E+02 -0.14238101998E+04  0.14496510852E+04  0.00000000000E+00 0.  1.
         22    1    1    2    0    0 -0.53208391297E+03 -0.25726142253E+03  0.86140179948E+03  0.10446577383E+04  0.00000000000E+00 0. -1.
<mgrwt>
<rscale>  0 0.36354695E+04</rscale>
<asrwt>0</asrwt>
<pdfrwt beam="1">  1        2 0.51854552E+00 0.36354695E+04</pdfrwt>
<pdfrwt beam="2">  1       -2 0.15081600E+00 0.36354695E+04</pdfrwt>
<totfact> 0.23930651E-01</totfact>
</mgrwt>
</event>
<event>
 6    1  0.5040916E-004  0.8819285E+03  0.7818608E-02  0.9448458E-01
         -1   -1    0    0    0  501 -0.00000000000E+00  0.00000000000E+00  0.41664572104E+03  0.41664572104E+03  0.00000000000E+00 0. -1.
          1   -1    0    0  501    0  0.00000000000E+00 -0.00000000000E+00 -0.46670214296E+03  0.46670214296E+03  0.00000000000E+00 0.  1.
         23    2    1    2    0    0  0.40790670633E+03  0.14441718144E+03  0.30920334918E+02  0.44311901611E+03  0.90300564589E+02 0.  0.
         13    1    3    3    0    0  0.11472458331E+03  0.63105727810E+02 -0.26262541952E+02  0.13354319154E+03  0.00000000000E+00 0.  1.
        -13    1    3    3    0    0  0.29318212302E+03  0.81311453631E+02  0.57182876870E+02  0.30957582457E+03  0.00000000000E+00 0. -1.
         22    1    1    2    0    0 -0.40790670633E+03 -0.14441718144E+03 -0.80976756845E+02  0.44022884789E+03  0.00000000000E+00 0. -1.
<mgrwt>
<rscale>  0 0.88192846E+03</rscale>
<asrwt>0</asrwt>
<pdfrwt beam="1">  1        1 0.71800329E-01 0.88192846E+03</pdfrwt>
<pdfrwt beam="2">  1       -1 0.64099342E-01 0.88192846E+03</pdfrwt>
<totfact> 0.12135349E+02</totfact>
</mgrwt>
</event>
<event>
 6    1  0.5040916E-004  0.2565825E+04  0.7818608E-02  0.8379903E-01
          2   -1    0    0  501    0  0.00000000000E+00  0.00000000000E+00  0.21530393854E+04  0.21530393854E+04  0.00000000000E+00 0.  1.
         -2   -1    0    0    0  501 -0.00000000000E+00 -0.00000000000E+00 -0.76443789128E+03  0.76443789128E+03  0.00000000000E+00 0. -1.
         23    2    1    2    0    0  0.75164302903E+03 -0.19829256836E+03  0.18533144564E+04  0.20118033160E+04  0.91054501267E+02 0.  0.
         13    1    3    3    0    0  0.46771593615E+03 -0.16418390814E+03  0.11254500898E+04  0.12297774015E+04  0.00000000000E+00 0.  1.
        -13    1    3    3    0    0  0.28392709288E+03 -0.34108660222E+02  0.72786436657E+03  0.78202591447E+03  0.00000000000E+00 0. -1.
         22    1    1    2    0    0 -0.75164302903E+03  0.19829256836E+03 -0.46471296228E+03  0.90567396069E+03  0.00000000000E+00 0. -1.
<mgrwt>
<rscale>  0 0.25658253E+04</rscale>
<asrwt>0</asrwt>
<pdfrwt beam="1">  1        2 0.33123683E+00 0.25658253E+04</pdfrwt>
<pdfrwt beam="2">  1       -2 0.11760583E+00 0.25658253E+04</pdfrwt>
<totfact> 0.27167046E+00</totfact>
</mgrwt>
</event>
<event>
 6    1  0.5040916E-004  0.2425706E+04  0.7818608E-02  0.8429942E-01
         -2   -1    0    0    0  501 -0.00000000000E+00  0.00000000000E+00  0.55151010570E+03  0.55151010570E+03  0.00000000000E+00 0. -1.
          2   -1    0    0  501    0  0.00000000000E+00 -0.00000000000E+00 -0.26672442012E+04  0.26672442012E+04  0.00000000000E+00 0.  1.
         23    2    1    2    0    0 -0.70656719698E+03  0.49756634331E+03  0.66540831093E+02  0.87160000326E+03  0.91920692091E+02 0.  0.
         13    1    3    3    0    0 -0.59179062091E+03  0.42028261136E+03  0.21793710248E+02  0.72617393110E+03  0.00000000000E+00 0. -1.
        -13    1    3    3    0    0 -0.11477657607E+03  0.77283731954E+02  0.44747120844E+02  0.14542607216E+03  0.00000000000E+00 0.  1.
         22    1    1    2    0    0  0.70656719698E+03 -0.49756634331E+03 -0.21822749266E+04  0.23471543036E+04  0.00000000000E+00 0.  1.
<mgrwt>
<rscale>  0 0.24257058E+04</rscale>
<asrwt>0</asrwt>
<pdfrwt beam="1">  1        2 0.41034526E+00 0.24257058E+04</pdfrwt>
<pdfrwt beam="2">  1       -2 0.84847709E-01 0.24257058E+04</pdfrwt>
<totfact> 0.30150705E+00</totfact>
</mgrwt>
</event>
<event>
 6    1  0.5040916E-004  0.1977845E+04  0.7818608E-02  0.8617049E-01
         -2   -1    0    0    0  501 -0.00000000000E+00  0.00000000000E+00  0.37657612293E+03  0.37657612293E+03  0.00000000000E+00 0. -1.
          2   -1    0    0  501    0  0.00000000000E+00 -0.00000000000E+00 -0.25969998670E+04  0.25969998670E+04  0.00000000000E+00 0.  1.
         23    2    1    2    0    0  0.48978237098E+03  0.22583574621E+02  0.17488663345E+03  0.52859979508E+03  0.91845631517E+02 0.  0.
         13    1    3    3    0    0  0.51921595918E+02 -0.16324666679E+01  0.51252938814E+02  0.72975206798E+02  0.00000000000E+00 0. -1.
        -13    1    3    3    0    0  0.43786077506E+03  0.24216041289E+02  0.12363369463E+03  0.45562458828E+03  0.00000000000E+00 0.  1.
         22    1    1    2    0    0 -0.48978237098E+03 -0.22583574621E+02 -0.23953103775E+04  0.24449761949E+04  0.00000000000E+00 0.  1.
<mgrwt>
<rscale>  0 0.19778454E+04</rscale>
<asrwt>0</asrwt>
<pdfrwt beam="1">  1        2 0.39953844E+00 0.19778454E+04</pdfrwt>
<pdfrwt beam="2">  1       -2 0.57934789E-01 0.19778454E+04</pdfrwt>
<totfact> 0.79375322E+00</totfact>
</mgrwt>
</event>
<event>
 6    1  0.5040916E-004  0.3833480E+04  0.7818608E-02  0.8039008E-01
          2   -1    0    0  501    0  0.00000000000E+00  0.00000000000E+00  0.32303222009E+04  0.32303222009E+04  0.00000000000E+00 0.  1.
         -2   -1    0    0    0  501 -0.00000000000E+00 -0.00000000000E+00 -0.11373146408E+04  0.11373146408E+04  0.00000000000E+00 0. -1.
         23    2    1    2    0    0 -0.96391928752E+03  0.13529332895E+04  0.21340184705E+04  0.27059356731E+04  0.92109478369E+02 0.  0.
         13    1    3    3    0    0 -0.63217330427E+03  0.82593191813E+03  0.13781510975E+04  0.17265882739E+04  0.00000000000E+00 0. -1.
        -13    1    3    3    0    0 -0.33174598326E+03  0.52700137134E+03  0.75586737305E+03  0.97934739926E+03  0.00000000000E+00 0.  1.
         22    1    1    2    0    0  0.96391928752E+03 -0.13529332895E+04 -0.41010910417E+02  0.16617011685E+04  0.00000000000E+00 0.  1.
<mgrwt>
<rscale>  0 0.38334803E+04</rscale>
<asrwt>0</asrwt>
<pdfrwt beam="1">  1        2 0.49697264E+00 0.38334803E+04</pdfrwt>
<pdfrwt beam="2">  1       -2 0.17497148E+00 0.38334803E+04</pdfrwt>
<totfact> 0.19449651E-01</totfact>
</mgrwt>
</event>
<event>
 6    1  0.5040916E-004  0.1994029E+04  0.7818608E-02  0.8609417E-01
         -2   -1    0    0    0  501 -0.00000000000E+00  0.00000000000E+00  0.51428471975E+03  0.51428471975E+03  0.00000000000E+00 0.  1.
          2   -1    0    0  501    0  0.00000000000E+00 -0.00000000000E+00 -0.19328550440E+04  0.19328550440E+04  0.00000000000E+00 0. -1.
         23    2    1    2    0    0  0.65367109450E+02 -0.19300720200E+03 -0.19059475661E+04  0.19188773148E+04  0.89047096896E+02 0.  0.
         13    1    3    3    0    0  0.61007452473E+02 -0.14274464545E+03 -0.10465783728E+04  0.10580284654E+04  0.00000000000E+00 0.  1.
        -13    1    3    3    0    0  0.43596569775E+01 -0.50262556548E+02 -0.85936919328E+03  0.86084884943E+03  0.00000000000E+00 0. -1.
         22    1    1    2    0    0 -0.65367109450E+02  0.19300720200E+03  0.48737724190E+03  0.52826244892E+03  0.00000000000E+00 0.  1.
<mgrwt>
<rscale>  0 0.19940289E+04</rscale>
<asrwt>0</asrwt>
<pdfrwt beam="1">  1        2 0.29736231E+00 0.19940289E+04</pdfrwt>
<pdfrwt beam="2">  1       -2 0.79120726E-01 0.19940289E+04</pdfrwt>
<totfact> 0.95896034E+00</totfact>
</mgrwt>
</event>
<event>
 6    1  0.5040916E-004  0.9870796E+03  0.7818608E-02  0.9322830E-01
         -2   -1    0    0    0  501 -0.00000000000E+00  0.00000000000E+00  0.76446837654E+03  0.76446837654E+03  0.00000000000E+00 0. -1.
          2   -1    0    0  501    0  0.00000000000E+00 -0.00000000000E+00 -0.31862868948E+03  0.31862868948E+03  0.00000000000E+00 0.  1.
         23    2    1    2    0    0 -0.76923415154E+02 -0.13462518990E+03 -0.28470241582E+03  0.33628188297E+03  0.89380566590E+02 0.  0.
         13    1    3    3    0    0  0.19951755983E+02 -0.32897308527E+02 -0.63250795388E+02  0.74033563957E+02  0.00000000000E+00 0. -1.
        -13    1    3    3    0    0 -0.96875171137E+02 -0.10172788137E+03 -0.22145162044E+03  0.26224831901E+03  0.00000000000E+00 0.  1.
         22    1    1    2    0    0  0.76923415154E+02  0.13462518990E+03  0.73054210288E+03  0.74681518305E+03  0.00000000000E+00 0. -1.
<mgrwt>
<rscale>  0 0.98707965E+03</rscale>
<asrwt>0</asrwt>
<pdfrwt beam="1">  1        2 0.49019798E-01 0.98707965E+03</pdfrwt>
<pdfrwt beam="2">  1       -2 0.11761052E+00 0.98707965E+03</pdfrwt>
<totfact> 0.57214523E+01</totfact>
</mgrwt>
</event>
<event>
 6    1  0.5040916E-004  0.1085459E+04  0.7818608E-02  0.9219482E-01
         -2   -1    0    0    0  501 -0.00000000000E+00  0.00000000000E+00  0.13139635399E+04  0.13139635399E+04  0.00000000000E+00 0. -1.
          2   -1    0    0  501    0  0.00000000000E+00 -0.00000000000E+00 -0.22417308969E+03  0.22417308969E+03  0.00000000000E+00 0.  1.
         23    2    1    2    0    0  0.35169789173E+03 -0.12081208887E+03 -0.40000892232E+01  0.38285973118E+03  0.90986840684E+02 0.  0.
         13    1    3    3    0    0  0.21112850693E+03 -0.10359187191E+03  0.30376185729E+02  0.23712704406E+03  0.00000000000E+00 0. -1.
        -13    1    3    3    0    0  0.14056938480E+03 -0.17220216963E+02 -0.34376274952E+02  0.14573268712E+03  0.00000000000E+00 0.  1.
         22    1    1    2    0    0 -0.35169789173E+03  0.12081208887E+03  0.10937905395E+04  0.11552768985E+04  0.00000000000E+00 0. -1.
<mgrwt>
<rscale>  0 0.10854589E+04</rscale>
<asrwt>0</asrwt>
<pdfrwt beam="1">  1        2 0.34488168E-01 0.10854589E+04</pdfrwt>
<pdfrwt beam="2">  1       -2 0.20214823E+00 0.10854589E+04</pdfrwt>
<totfact> 0.19467748E+01</totfact>
</mgrwt>
</event>
<event>
 6    1  0.5040916E-004  0.2291339E+04  0.7818608E-02  0.8481344E-01
          2   -1    0    0  501    0  0.00000000000E+00  0.00000000000E+00  0.53120381854E+03  0.53120381854E+03  0.00000000000E+00 0.  1.
         -2   -1    0    0    0  501 -0.00000000000E+00 -0.00000000000E+00 -0.24709143641E+04  0.24709143641E+04  0.00000000000E+00 0. -1.
         23    2    1    2    0    0  0.96012696293E+03  0.31158601868E+03 -0.26667027760E+03  0.10481495621E+04  0.92600407886E+02 0.  0.
         13    1    3    3    0    0  0.63530165798E+03  0.17050815498E+03 -0.14396700880E+03  0.67335557262E+03  0.00000000000E+00 0. -1.
        -13    1    3    3    0    0  0.32482530494E+03  0.14107786370E+03 -0.12270326880E+03  0.37479398946E+03  0.00000000000E+00 0.  1.
         22    1    1    2    0    0 -0.96012696293E+03 -0.31158601868E+03 -0.16730402680E+04  0.19539686206E+04  0.00000000000E+00 0. -1.
<mgrwt>
<rscale>  0 0.22913395E+04</rscale>
<asrwt>0</asrwt>
<pdfrwt beam="1">  1        2 0.81723664E-01 0.22913395E+04</pdfrwt>
<pdfrwt beam="2">  1       -2 0.38014067E+00 0.22913395E+04</pdfrwt>
<totfact> 0.52062321E-01</totfact>
</mgrwt>
</event>
<event>
 6    1  0.5040916E-004  0.6278823E+03  0.7818608E-02  0.9849190E-01
         -2   -1    0    0    0  501 -0.00000000000E+00  0.00000000000E+00  0.42404447780E+02  0.42404447780E+02  0.00000000000E+00 0. -1.
          2   -1    0    0  501    0  0.00000000000E+00 -0.00000000000E+00 -0.23242622259E+04  0.23242622259E+04  0.00000000000E+00 0.  1.
         23    2    1    2    0    0 -0.30653284622E+03  0.73967196598E+01 -0.11224049701E+04  0.11673552415E+04  0.94383503538E+02 0.  0.
         13    1    3    3    0    0 -0.13563508160E+03  0.30679317182E+02 -0.36581631084E+03  0.39135619216E+03  0.00000000000E+00 0.  1.
        -13    1    3    3    0    0 -0.17089776461E+03 -0.23282597523E+02 -0.75658865926E+03  0.77599904937E+03  0.00000000000E+00 0. -1.
         22    1    1    2    0    0  0.30653284622E+03 -0.73967196598E+01 -0.11594528080E+04  0.11993114321E+04  0.00000000000E+00 0. -1.
<mgrwt>
<rscale>  0 0.62788233E+03</rscale>
<asrwt>0</asrwt>
<pdfrwt beam="1">  1        2 0.35757885E+00 0.62788233E+03</pdfrwt>
<pdfrwt beam="2">  1       -2 0.65237603E-02 0.62788233E+03</pdfrwt>
<totfact> 0.62306746E+02</totfact>
</mgrwt>
</event>
<event>
 6    1  0.5040916E-004  0.3431748E+04  0.7818608E-02  0.8130158E-01
         -2   -1    0    0    0  501 -0.00000000000E+00  0.00000000000E+00  0.10608334015E+04  0.10608334015E+04  0.00000000000E+00 0. -1.
          2   -1    0    0  501    0  0.00000000000E+00 -0.00000000000E+00 -0.27753867913E+04  0.27753867913E+04  0.00000000000E+00 0.  1.
         23    2    1    2    0    0 -0.16448090980E+04  0.41793141308E+03 -0.58451667613E+03  0.17973365254E+04  0.93248086729E+02 0.  0.
         13    1    3    3    0    0 -0.67476463670E+03  0.13091217285E+03 -0.21170485100E+03  0.71921085634E+03  0.00000000000E+00 0. -1.
        -13    1    3    3    0    0 -0.97004446134E+03  0.28701924022E+03 -0.37281182513E+03  0.10781256690E+04  0.00000000000E+00 0.  1.
         22    1    1    2    0    0  0.16448090980E+04 -0.41793141308E+03 -0.11300367136E+04  0.20388836674E+04  0.00000000000E+00 0.  1.
<mgrwt>
<rscale>  0 0.34317477E+04</rscale>
<asrwt>0</asrwt>
<pdfrwt beam="1">  1        2 0.42698258E+00 0.34317477E+04</pdfrwt>
<pdfrwt beam="2">  1       -2 0.16320514E+00 0.34317477E+04</pdfrwt>
<totfact> 0.47157286E-01</totfact>
</mgrwt>
</event>
<event>
 6    1  0.5040916E-004  0.2513307E+04  0.7818608E-02  0.8398260E-01
          2   -1    0    0  501    0  0.00000000000E+00  0.00000000000E+00  0.34068821193E+04  0.34068821193E+04  0.00000000000E+00 0.  1.
         -2   -1    0    0    0  501 -0.00000000000E+00 -0.00000000000E+00 -0.46352578764E+03  0.46352578764E+03  0.00000000000E+00 0. -1.
         23    2    1    2    0    0  0.11688297588E+04  0.42332278634E+03  0.12024914821E+04  0.17312548945E+04  0.76763001699E+02 0.  0.
         11    1    3    3    0    0  0.64585331455E+03  0.23075809824E+03  0.61027271258E+03  0.91804607049E+03  0.00000000000E+00 0. -1.
        -11    1    3    3    0    0  0.52297644426E+03  0.19256468809E+03  0.59221876956E+03  0.81320882397E+03  0.00000000000E+00 0.  1.
         22    1    1    2    0    0 -0.11688297588E+04 -0.42332278634E+03  0.17408648495E+04  0.21391530124E+04  0.00000000000E+00 0. -1.
<mgrwt>
<rscale>  0 0.25133068E+04</rscale>
<asrwt>0</asrwt>
<pdfrwt beam="1">  1        2 0.52413569E+00 0.25133068E+04</pdfrwt>
<pdfrwt beam="2">  1       -2 0.71311662E-01 0.25133068E+04</pdfrwt>
<totfact> 0.15010901E+00</totfact>
</mgrwt>
</event>
<event>
 6    1  0.5040916E-004  0.2442107E+04  0.7818608E-02  0.8423906E-01
          2   -1    0    0  501    0  0.00000000000E+00  0.00000000000E+00  0.15117276898E+04  0.15117276898E+04  0.00000000000E+00 0.  1.
         -2   -1    0    0    0  501 -0.00000000000E+00 -0.00000000000E+00 -0.98626966664E+03  0.98626966664E+03  0.00000000000E+00 0. -1.
         23    2    1    2    0    0  0.55497988818E+03 -0.68169604840E+02  0.13714904665E+04  0.14838865802E+04  0.91013801841E+02 0.  0.
         13    1    3    3    0    0  0.63951273291E+02 -0.31661309713E+02  0.22759117203E+03  0.23851613253E+03  0.00000000000E+00 0. -1.
        -13    1    3    3    0    0  0.49102861489E+03 -0.36508295127E+02  0.11438992944E+04  0.12453704477E+04  0.00000000000E+00 0.  1.
         22    1    1    2    0    0 -0.55497988818E+03  0.68169604840E+02 -0.84603244329E+03  0.10141107762E+04  0.00000000000E+00 0. -1.
<mgrwt>
<rscale>  0 0.24421066E+04</rscale>
<asrwt>0</asrwt>
<pdfrwt beam="1">  1        2 0.23257349E+00 0.24421066E+04</pdfrwt>
<pdfrwt beam="2">  1       -2 0.15173379E+00 0.24421066E+04</pdfrwt>
<totfact> 0.32562019E+00</totfact>
</mgrwt>
</event>
<event>
 6    1  0.5040916E-004  0.1623755E+04  0.7818608E-02  0.8806086E-01
         -2   -1    0    0    0  501 -0.00000000000E+00  0.00000000000E+00  0.51754293202E+03  0.51754293202E+03  0.00000000000E+00 0. -1.
          2   -1    0    0  501    0  0.00000000000E+00 -0.00000000000E+00 -0.12736050125E+04  0.12736050125E+04  0.00000000000E+00 0.  1.
         23    2    1    2    0    0 -0.44040080531E+03  0.67453166947E+03 -0.46383958997E+03  0.93421164207E+03  0.93050440808E+02 0.  0.
         11    1    3    3    0    0 -0.13630685620E+03  0.23199997233E+03 -0.20420104535E+03  0.33778930286E+03  0.00000000000E+00 0.  1.
        -11    1    3    3    0    0 -0.30409394911E+03  0.44253169714E+03 -0.25963854462E+03  0.59642233921E+03  0.00000000000E+00 0. -1.
         22    1    1    2    0    0  0.44040080531E+03 -0.67453166947E+03 -0.29222249047E+03  0.85693630240E+03  0.00000000000E+00 0. -1.
<mgrwt>
<rscale>  0 0.16237552E+04</rscale>
<asrwt>0</asrwt>
<pdfrwt beam="1">  1        2 0.19593923E+00 0.16237552E+04</pdfrwt>
<pdfrwt beam="2">  1       -2 0.79621990E-01 0.16237552E+04</pdfrwt>
<totfact> 0.22910489E+01</totfact>
</mgrwt>
</event>
<event>
 6    1  0.5040916E-004  0.2237359E+04  0.7818608E-02  0.8503037E-01
          2   -1    0    0  501    0  0.00000000000E+00  0.00000000000E+00  0.16117331534E+04  0.16117331534E+04  0.00000000000E+00 0.  1.
         -2   -1    0    0    0  501 -0.00000000000E+00 -0.00000000000E+00 -0.77645870481E+03  0.77645870481E+03  0.00000000000E+00 0. -1.
         23    2    1    2    0    0  0.91817665070E+03 -0.49144012306E+03 -0.12816183950E+02  0.10451283908E+04  0.86990472606E+02 0.  0.
         11    1    3    3    0    0  0.37085374481E+03 -0.23034944296E+03  0.27082347346E+02  0.43740921281E+03  0.00000000000E+00 0. -1.
        -11    1    3    3    0    0  0.54732290589E+03 -0.26109068009E+03 -0.39898531296E+02  0.60771917803E+03  0.00000000000E+00 0.  1.
         22    1    1    2    0    0 -0.91817665070E+03  0.49144012306E+03  0.84809063258E+03  0.13430634674E+04  0.00000000000E+00 0.  1.
<mgrwt>
<rscale>  0 0.22373594E+04</rscale>
<asrwt>0</asrwt>
<pdfrwt beam="1">  1        2 0.24795895E+00 0.22373594E+04</pdfrwt>
<pdfrwt beam="2">  1       -2 0.11945519E+00 0.22373594E+04</pdfrwt>
<totfact> 0.53763925E+00</totfact>
</mgrwt>
</event>
<event>
 6    1  0.5040916E-004  0.8260015E+03  0.7818608E-02  0.9523125E-01
          2   -1    0    0  501    0  0.00000000000E+00  0.00000000000E+00  0.40924565556E+03  0.40924565556E+03  0.00000000000E+00 0.  1.
         -2   -1    0    0    0  501 -0.00000000000E+00 -0.00000000000E+00 -0.41679031058E+03  0.41679031058E+03  0.00000000000E+00 0. -1.
         23    2    1    2    0    0  0.66950218905E+02  0.43196730069E+02  0.39624934111E+03  0.41445622829E+03  0.91717694798E+02 0.  0.
         13    1    3    3    0    0  0.70454751057E+02  0.50185642020E+02  0.19821433005E+03  0.21626694442E+03  0.00000000000E+00 0. -1.
        -13    1    3    3    0    0 -0.35045321514E+01 -0.69889119505E+01  0.19803501107E+03  0.19818928388E+03  0.00000000000E+00 0.  1.
         22    1    1    2    0    0 -0.66950218905E+02 -0.43196730069E+02 -0.40379399613E+03  0.41157973785E+03  0.00000000000E+00 0. -1.
<mgrwt>
<rscale>  0 0.82600151E+03</rscale>
<asrwt>0</asrwt>
<pdfrwt beam="1">  1        2 0.62960870E-01 0.82600151E+03</pdfrwt>
<pdfrwt beam="2">  1       -2 0.64121586E-01 0.82600151E+03</pdfrwt>
<totfact> 0.17539132E+02</totfact>
</mgrwt>
</event>
<event>
 6    1  0.5553138E-004  0.3858862E+04  0.7818608E-02  0.8033640E-01
         -2   -1    0    0    0  501 -0.00000000000E+00  0.00000000000E+00  0.19387055981E+04  0.19387055981E+04  0.00000000000E+00 0. -1.
          2   -1    0    0  501    0  0.00000000000E+00 -0.00000000000E+00 -0.19202007124E+04  0.19202007124E+04  0.00000000000E+00 0.  1.
         23    2    1    2    0    0  0.40491306760E+03  0.14653312420E+04  0.11956733119E+04  0.19361801873E+04  0.89491943504E+02 0.  0.
         13    1    3    3    0    0  0.15141999589E+03  0.70716910779E+03  0.54997451775E+03  0.90856377451E+03  0.00000000000E+00 0.  1.
        -13    1    3    3    0    0  0.25349307171E+03  0.75816213421E+03  0.64569879417E+03  0.10276164128E+04  0.00000000000E+00 0. -1.
         22    1    1    2    0    0 -0.40491306760E+03 -0.14653312420E+04 -0.11771684262E+04  0.19227261232E+04  0.00000000000E+00 0.  1.
<mgrwt>
<rscale>  0 0.38588619E+04</rscale>
<asrwt>0</asrwt>
<pdfrwt beam="1">  1        2 0.29541549E+00 0.38588619E+04</pdfrwt>
<pdfrwt beam="2">  1       -2 0.29826240E+00 0.38588619E+04</pdfrwt>
<totfact> 0.19232844E-01</totfact>
</mgrwt>
</event>
<event>
 6    1  0.5040916E-004  0.3561455E+04  0.7818608E-02  0.8099378E-01
         -2   -1    0    0    0  501 -0.00000000000E+00  0.00000000000E+00  0.69695209637E+03  0.69695209637E+03  0.00000000000E+00 0. -1.
          2   -1    0    0  501    0  0.00000000000E+00 -0.00000000000E+00 -0.45497971328E+04  0.45497971328E+04  0.00000000000E+00 0.  1.
         23    2    1    2    0    0  0.66866411894E+03 -0.16215584959E+04 -0.23705507707E+04  0.29502823886E+04  0.89953078884E+02 0.  0.
         13    1    3    3    0    0  0.39035826258E+03 -0.87870284601E+03 -0.12373693110E+04  0.15670293796E+04  0.00000000000E+00 0. -1.
        -13    1    3    3    0    0  0.27830585636E+03 -0.74285564990E+03 -0.11331814598E+04  0.13832530090E+04  0.00000000000E+00 0.  1.
         22    1    1    2    0    0 -0.66866411894E+03  0.16215584959E+04 -0.14822942657E+04  0.22964668406E+04  0.00000000000E+00 0.  1.
<mgrwt>
<rscale>  0 0.35614551E+04</rscale>
<asrwt>0</asrwt>
<pdfrwt beam="1">  1        2 0.69996879E+00 0.35614551E+04</pdfrwt>
<pdfrwt beam="2">  1       -2 0.10722340E+00 0.35614551E+04</pdfrwt>
<totfact> 0.62440968E-02</totfact>
</mgrwt>
</event>
<event>
 6    1  0.5040916E-004  0.1066908E+04  0.7818608E-02  0.9238059E-01
          2   -1    0    0  501    0  0.00000000000E+00  0.00000000000E+00  0.19838905210E+04  0.19838905210E+04  0.00000000000E+00 0.  1.
         -2   -1    0    0    0  501 -0.00000000000E+00 -0.00000000000E+00 -0.14344208808E+03  0.14344208808E+03  0.00000000000E+00 0. -1.
         23    2    1    2    0    0 -0.23514268610E+03 -0.44682080712E+03  0.60971204279E+03  0.79704956458E+03  0.92727109117E+02 0.  0.
         13    1    3    3    0    0 -0.20683086433E+03 -0.43318265869E+03  0.58695493573E+03  0.75824950959E+03  0.00000000000E+00 0.  1.
        -13    1    3    3    0    0 -0.28311821774E+02 -0.13638148440E+02  0.22757107063E+02  0.38800054986E+02  0.00000000000E+00 0. -1.
         22    1    1    2    0    0  0.23514268610E+03  0.44682080712E+03  0.12307363901E+04  0.13302830445E+04  0.00000000000E+00 0.  1.
<mgrwt>
<rscale>  0 0.10669084E+04</rscale>
<asrwt>0</asrwt>
<pdfrwt beam="1">  1        2 0.30521391E+00 0.10669084E+04</pdfrwt>
<pdfrwt beam="2">  1       -2 0.22068015E-01 0.10669084E+04</pdfrwt>
<totfact> 0.12212481E+02</totfact>
</mgrwt>
</event>
<event>
 6    1  0.5040916E-004  0.2030178E+04  0.7818608E-02  0.8592640E-01
          2   -1    0    0  501    0  0.00000000000E+00  0.00000000000E+00  0.46682168865E+03  0.46682168865E+03  0.00000000000E+00 0.  1.
         -2   -1    0    0    0  501 -0.00000000000E+00 -0.00000000000E+00 -0.22072779521E+04  0.22072779521E+04  0.00000000000E+00 0. -1.
         23    2    1    2    0    0  0.34809799538E+03 -0.85146713606E+03 -0.31366899801E+03  0.97648649312E+03  0.94705505386E+02 0.  0.
         13    1    3    3    0    0  0.93364715177E+02 -0.13345762830E+03 -0.56497388007E+02  0.17239449946E+03  0.00000000000E+00 0. -1.
        -13    1    3    3    0    0  0.25473328021E+03 -0.71800950776E+03 -0.25717161000E+03  0.80409199366E+03  0.00000000000E+00 0.  1.
         22    1    1    2    0    0 -0.34809799538E+03  0.85146713606E+03 -0.14267872654E+04  0.16976131476E+04  0.00000000000E+00 0.  1.
<mgrwt>
<rscale>  0 0.20301775E+04</rscale>
<asrwt>0</asrwt>
<pdfrwt beam="1">  1        2 0.71818722E-01 0.20301775E+04</pdfrwt>
<pdfrwt beam="2">  1       -2 0.33958122E+00 0.20301775E+04</pdfrwt>
<totfact> 0.11201006E+00</totfact>
</mgrwt>
</event>
<event>
 6    1  0.5040916E-004  0.1112360E+04  0.7818608E-02  0.9193228E-01
         -2   -1    0    0    0  501 -0.00000000000E+00  0.00000000000E+00  0.20289520308E+03  0.20289520308E+03  0.00000000000E+00 0. -1.
          2   -1    0    0  501    0  0.00000000000E+00 -0.00000000000E+00 -0.15246119700E+04  0.15246119700E+04  0.00000000000E+00 0.  1.
         23    2    1    2    0    0  0.15438123694E+03  0.42996994247E+03 -0.11472101713E+04  0.12384670217E+04  0.94877125874E+02 0.  0.
         13    1    3    3    0    0  0.13875534485E+03  0.25593261894E+03 -0.74998601495E+03  0.80450828074E+03  0.00000000000E+00 0. -1.
        -13    1    3    3    0    0  0.15625892090E+02  0.17403732353E+03 -0.39722415630E+03  0.43395874094E+03  0.00000000000E+00 0.  1.
         22    1    1    2    0    0 -0.15438123694E+03 -0.42996994247E+03 -0.17450659566E+03  0.48904015140E+03  0.00000000000E+00 0. -1.
<mgrwt>
<rscale>  0 0.11123605E+04</rscale>
<asrwt>0</asrwt>
<pdfrwt beam="1">  1        2 0.23455569E+00 0.11123605E+04</pdfrwt>
<pdfrwt beam="2">  1       -2 0.31214646E-01 0.11123605E+04</pdfrwt>
<totfact> 0.11603280E+02</totfact>
</mgrwt>
</event>
<event>
 6    1  0.5040916E-004  0.1447508E+04  0.7818608E-02  0.8920130E-01
          2   -1    0    0  501    0  0.00000000000E+00  0.00000000000E+00  0.18964257648E+04  0.18964257648E+04  0.00000000000E+00 0.  1.
         -2   -1    0    0    0  501 -0.00000000000E+00 -0.00000000000E+00 -0.27621429397E+03  0.27621429397E+03  0.00000000000E+00 0. -1.
         23    2    1    2    0    0  0.97447709003E+02  0.29304667606E+03 -0.16422195261E+03  0.36168035380E+03  0.92040307838E+02 0.  0.
         13    1    3    3    0    0  0.31106498069E+02  0.10646744329E+03 -0.11034899930E+03  0.15646032197E+03  0.00000000000E+00 0.  1.
        -13    1    3    3    0    0  0.66341210934E+02  0.18657923277E+03 -0.53872953314E+02  0.20522003184E+03  0.00000000000E+00 0. -1.
         22    1    1    2    0    0 -0.97447709003E+02 -0.29304667606E+03  0.17844334234E+04  0.18109597049E+04  0.00000000000E+00 0.  1.
<mgrwt>
<rscale>  0 0.14475081E+04</rscale>
<asrwt>0</asrwt>
<pdfrwt beam="1">  1        2 0.29175780E+00 0.14475081E+04</pdfrwt>
<pdfrwt beam="2">  1       -2 0.42494508E-01 0.14475081E+04</pdfrwt>
<totfact> 0.38848527E+01</totfact>
</mgrwt>
</event>
<event>
 6    1  0.5040916E-004  0.1145474E+04  0.7818608E-02  0.9161969E-01
          2   -1    0    0  501    0  0.00000000000E+00  0.00000000000E+00  0.45422657333E+03  0.45422657333E+03  0.00000000000E+00 0.  1.
         -2   -1    0    0    0  501 -0.00000000000E+00 -0.00000000000E+00 -0.72216758482E+03  0.72216758482E+03  0.00000000000E+00 0. -1.
         23    2    1    2    0    0 -0.11787095893E+03  0.48295833200E+03 -0.41876393245E+03  0.65688490231E+03  0.94827371287E+02 0.  0.
         13    1    3    3    0    0 -0.42920796037E+02  0.16574422108E+03 -0.87984783927E+02  0.19249587984E+03  0.00000000000E+00 0.  1.
        -13    1    3    3    0    0 -0.74950162894E+02  0.31721411093E+03 -0.33077914853E+03  0.46438902247E+03  0.00000000000E+00 0. -1.
         22    1    1    2    0    0  0.11787095893E+03 -0.48295833200E+03  0.15082292097E+03  0.51950925584E+03  0.00000000000E+00 0.  1.
<mgrwt>
<rscale>  0 0.11454741E+04</rscale>
<asrwt>0</asrwt>
<pdfrwt beam="1">  1        2 0.69881012E-01 0.11454741E+04</pdfrwt>
<pdfrwt beam="2">  1       -2 0.11110270E+00 0.11454741E+04</pdfrwt>
<totfact> 0.43688412E+01</totfact>
</mgrwt>
</event>
<event>
 6    1  0.5040916E-004  0.9659388E+03  0.7818608E-02  0.9346712E-01
          2   -1    0    0  501    0  0.00000000000E+00  0.00000000000E+00  0.86814554775E+03  0.86814554775E+03  0.00000000000E+00 0.  1.
         -2   -1    0    0    0  501 -0.00000000000E+00 -0.00000000000E+00 -0.26868699679E+03  0.26868699679E+03  0.00000000000E+00 0. -1.
         23    2    1    2    0    0 -0.20655021082E+03 -0.40304374107E+03  0.49168579241E+03  0.67129821252E+03  0.61474587222E+02 0.  0.
         11    1    3    3    0    0 -0.37148508647E+02 -0.32140935429E+02  0.58523172965E+02  0.76406892351E+02  0.00000000000E+00 0.  1.
        -11    1    3    3    0    0 -0.16940170217E+03 -0.37090280564E+03  0.43316261944E+03  0.59489132017E+03  0.00000000000E+00 0. -1.
         22    1    1    2    0    0  0.20655021082E+03  0.40304374107E+03  0.10777275856E+03  0.46553433202E+03  0.00000000000E+00 0. -1.
<mgrwt>
<rscale>  0 0.96593876E+03</rscale>
<asrwt>0</asrwt>
<pdfrwt beam="1">  1        2 0.13356085E+00 0.96593876E+03</pdfrwt>
<pdfrwt beam="2">  1       -2 0.41336461E-01 0.96593876E+03</pdfrwt>
<totfact> 0.17082275E+02</totfact>
</mgrwt>
</event>
<event>
 6    1  0.5040916E-004  0.2687495E+04  0.7818608E-02  0.8339074E-01
          2   -1    0    0  501    0  0.00000000000E+00  0.00000000000E+00  0.17934970491E+04  0.17934970491E+04  0.00000000000E+00 0.  1.
         -2   -1    0    0    0  501 -0.00000000000E+00 -0.00000000000E+00 -0.10067805661E+04  0.10067805661E+04  0.00000000000E+00 0. -1.
         23    2    1    2    0    0 -0.53289219486E+03  0.10514949271E+04 -0.27492942959E+03  0.12138641392E+04  0.90908107816E+02 0.  0.
         11    1    3    3    0    0 -0.37473745219E+03  0.66102020938E+03 -0.15082199680E+03  0.77467615814E+03  0.00000000000E+00 0.  1.
        -11    1    3    3    0    0 -0.15815474268E+03  0.39047471776E+03 -0.12410743279E+03  0.43918798107E+03  0.00000000000E+00 0. -1.
         22    1    1    2    0    0  0.53289219486E+03 -0.10514949271E+04  0.10616459126E+04  0.15864134760E+04  0.00000000000E+00 0.  1.
<mgrwt>
<rscale>  0 0.26874955E+04</rscale>
<asrwt>0</asrwt>
<pdfrwt beam="1">  1        2 0.27592262E+00 0.26874955E+04</pdfrwt>
<pdfrwt beam="2">  1       -2 0.15488932E+00 0.26874955E+04</pdfrwt>
<totfact> 0.21019756E+00</totfact>
</mgrwt>
</event>
<event>
 6    1  0.5305310E-004  0.2245847E+04  0.7818608E-02  0.8499584E-01
         -2   -1    0    0    0  501 -0.00000000000E+00  0.00000000000E+00  0.62048264081E+03  0.62048264081E+03  0.00000000000E+00 0. -1.
          2   -1    0    0  501    0  0.00000000000E+00 -0.00000000000E+00 -0.20322205136E+04  0.20322205136E+04  0.00000000000E+00 0.  1.
         23    2    1    2    0    0  0.23137784024E+03 -0.23326570610E+03 -0.19729954152E+04  0.20023504629E+04  0.93530066531E+02 0.  0.
         11    1    3    3    0    0  0.95819159755E+02 -0.13666183511E+03 -0.76914363765E+03  0.78704491859E+03  0.00000000000E+00 0.  1.
        -11    1    3    3    0    0  0.13555868049E+03 -0.96603870994E+02 -0.12038517775E+04  0.12153055443E+04  0.00000000000E+00 0. -1.
         22    1    1    2    0    0 -0.23137784024E+03  0.23326570610E+03  0.56125754234E+03  0.65035269157E+03  0.00000000000E+00 0. -1.
<mgrwt>
<rscale>  0 0.22458473E+04</rscale>
<asrwt>0</asrwt>
<pdfrwt beam="1">  1        2 0.31264932E+00 0.22458473E+04</pdfrwt>
<pdfrwt beam="2">  1       -2 0.95458866E-01 0.22458473E+04</pdfrwt>
<totfact> 0.53793565E+00</totfact>
</mgrwt>
</event>
<event>
 6    1  0.5040916E-004  0.2614152E+04  0.7818608E-02  0.8363410E-01
         -2   -1    0    0    0  501 -0.00000000000E+00  0.00000000000E+00  0.60280109352E+03  0.60280109352E+03  0.00000000000E+00 0. -1.
          2   -1    0    0  501    0  0.00000000000E+00 -0.00000000000E+00 -0.28341819392E+04  0.28341819392E+04  0.00000000000E+00 0.  1.
         23    2    1    2    0    0 -0.44502637124E+03 -0.28901810207E+03  0.45120013095E+03  0.70242262370E+03  0.90752684176E+02 0.  0.
         13    1    3    3    0    0 -0.24234448095E+03 -0.11743647084E+03  0.18723420587E+03  0.32799210353E+03  0.00000000000E+00 0. -1.
        -13    1    3    3    0    0 -0.20268189029E+03 -0.17158163123E+03  0.26396592509E+03  0.37443052017E+03  0.00000000000E+00 0.  1.
         22    1    1    2    0    0  0.44502637124E+03  0.28901810207E+03 -0.26825809766E+04  0.27345604090E+04  0.00000000000E+00 0.  1.
<mgrwt>
<rscale>  0 0.26141522E+04</rscale>
<asrwt>0</asrwt>
<pdfrwt beam="1">  1        2 0.43602800E+00 0.26141522E+04</pdfrwt>
<pdfrwt beam="2">  1       -2 0.92738628E-01 0.26141522E+04</pdfrwt>
<totfact> 0.19198211E+00</totfact>
</mgrwt>
</event>
<event>
 6    1  0.5040916E-004  0.2926330E+04  0.7818608E-02  0.8265086E-01
          2   -1    0    0  501    0  0.00000000000E+00  0.00000000000E+00  0.30261727900E+04  0.30261727900E+04  0.00000000000E+00 0.  1.
         -2   -1    0    0    0  501 -0.00000000000E+00 -0.00000000000E+00 -0.70744549686E+03  0.70744549686E+03  0.00000000000E+00 0. -1.
         23    2    1    2    0    0 -0.13541712647E+04  0.41848005320E+03  0.70431962850E+03  0.15853125645E+04  0.90798783078E+02 0.  0.
         13    1    3    3    0    0 -0.14408588578E+03  0.56420818513E+02  0.48791638957E+02  0.16224880670E+03  0.00000000000E+00 0. -1.
        -13    1    3    3    0    0 -0.12100853789E+04  0.36205923468E+03  0.65552798955E+03  0.14230637578E+04  0.00000000000E+00 0.  1.
         22    1    1    2    0    0  0.13541712647E+04 -0.41848005320E+03  0.16144076646E+04  0.21483057224E+04  0.00000000000E+00 0. -1.
<mgrwt>
<rscale>  0 0.29263303E+04</rscale>
<asrwt>0</asrwt>
<pdfrwt beam="1">  1        2 0.46556504E+00 0.29263303E+04</pdfrwt>
<pdfrwt beam="2">  1       -2 0.10883777E+00 0.29263303E+04</pdfrwt>
<totfact> 0.97271946E-01</totfact>
</mgrwt>
</event>
<event>
 6    1  0.5040916E-004  0.1937526E+04  0.7818608E-02  0.8636400E-01
         -1   -1    0    0    0  501 -0.00000000000E+00  0.00000000000E+00  0.10395693305E+04  0.10395693305E+04  0.00000000000E+00 0.  1.
          1   -1    0    0  501    0  0.00000000000E+00 -0.00000000000E+00 -0.90277892738E+03  0.90277892738E+03  0.00000000000E+00 0. -1.
         23    2    1    2    0    0 -0.14732905453E+03 -0.88526405605E+03 -0.29157244708E+03  0.94791724936E+03  0.90190467832E+02 0.  0.
         11    1    3    3    0    0 -0.11713582087E+03 -0.43073689118E+03 -0.13923939878E+03  0.46759242950E+03  0.00000000000E+00 0. -1.
        -11    1    3    3    0    0 -0.30193233658E+02 -0.45452716488E+03 -0.15233304830E+03  0.48032481986E+03  0.00000000000E+00 0.  1.
         22    1    1    2    0    0  0.14732905453E+03  0.88526405605E+03  0.42836285018E+03  0.99443100850E+03  0.00000000000E+00 0.  1.
<mgrwt>
<rscale>  0 0.19375255E+04</rscale>
<asrwt>0</asrwt>
<pdfrwt beam="1">  1        1 0.13888907E+00 0.19375255E+04</pdfrwt>
<pdfrwt beam="2">  1       -1 0.15993374E+00 0.19375255E+04</pdfrwt>
<totfact> 0.49394482E+00</totfact>
</mgrwt>
</event>
<event>
 6    1  0.5040916E-004  0.9792943E+03  0.7818608E-02  0.9331551E-01
          2   -1    0    0  501    0  0.00000000000E+00  0.00000000000E+00  0.54783876778E+03  0.54783876778E+03  0.00000000000E+00 0.  1.
         -2   -1    0    0    0  501 -0.00000000000E+00 -0.00000000000E+00 -0.43763669727E+03  0.43763669727E+03  0.00000000000E+00 0. -1.
         23    2    1    2    0    0  0.21851867863E+03  0.19333638397E+03  0.44593895619E+03  0.54067368146E+03  0.91307759219E+02 0.  0.
         11    1    3    3    0    0  0.82555089491E+02  0.12943583301E+03  0.19471677943E+03  0.24795887131E+03  0.00000000000E+00 0.  1.
        -11    1    3    3    0    0  0.13596358914E+03  0.63900550961E+02  0.25122217676E+03  0.29271481015E+03  0.00000000000E+00 0. -1.
         22    1    1    2    0    0 -0.21851867863E+03 -0.19333638397E+03 -0.33573688569E+03  0.44480178359E+03  0.00000000000E+00 0. -1.
<mgrwt>
<rscale>  0 0.97929434E+03</rscale>
<asrwt>0</asrwt>
<pdfrwt beam="1">  1        2 0.84282887E-01 0.97929434E+03</pdfrwt>
<pdfrwt beam="2">  1       -2 0.67328723E-01 0.97929434E+03</pdfrwt>
<totfact> 0.11193209E+02</totfact>
</mgrwt>
</event>
<event>
 6    1  0.5040916E-004  0.1880898E+04  0.7818608E-02  0.8664424E-01
         -2   -1    0    0    0  501 -0.00000000000E+00  0.00000000000E+00  0.48164840528E+03  0.48164840528E+03  0.00000000000E+00 0. -1.
          2   -1    0    0  501    0  0.00000000000E+00 -0.00000000000E+00 -0.18362861628E+04  0.18362861628E+04  0.00000000000E+00 0.  1.
         23    2    1    2    0    0 -0.43884948979E+03 -0.76734987484E+03 -0.29139422592E+03  0.93521929999E+03  0.91158318605E+02 0.  0.
         13    1    3    3    0    0 -0.99399853943E+02 -0.13316361556E+03 -0.86243119319E+02  0.18721846892E+03  0.00000000000E+00 0. -1.
        -13    1    3    3    0    0 -0.33944963585E+03 -0.63418625928E+03 -0.20515110660E+03  0.74800083107E+03  0.00000000000E+00 0.  1.
         22    1    1    2    0    0  0.43884948979E+03  0.76734987484E+03 -0.10632435316E+04  0.13827152681E+04  0.00000000000E+00 0.  1.
<mgrwt>
<rscale>  0 0.18808980E+04</rscale>
<asrwt>0</asrwt>
<pdfrwt beam="1">  1        2 0.28250556E+00 0.18808980E+04</pdfrwt>
<pdfrwt beam="2">  1       -2 0.74099754E-01 0.18808980E+04</pdfrwt>
<totfact> 0.12671875E+01</totfact>
</mgrwt>
</event>
<event>
 6    1  0.5040916E-004  0.3489286E+04  0.7818608E-02  0.8116334E-01
          2   -1    0    0  501    0  0.00000000000E+00  0.00000000000E+00  0.26771989070E+04  0.26771989070E+04  0.00000000000E+00 0.  1.
         -2   -1    0    0    0  501 -0.00000000000E+00 -0.00000000000E+00 -0.11369265826E+04  0.11369265826E+04  0.00000000000E+00 0. -1.
         23    2    1    2    0    0  0.53376097594E+03  0.59034237944E+03  0.24660925236E+04  0.25932455013E+04  0.99523819061E+02 0.  0.
         11    1    3    3    0    0  0.60625791404E+02  0.96795982817E+02  0.45487244461E+03  0.46899241970E+03  0.00000000000E+00 0. -1.
        -11    1    3    3    0    0  0.47313518453E+03  0.49354639663E+03  0.20112200790E+04  0.21242530816E+04  0.00000000000E+00 0.  1.
         22    1    1    2    0    0 -0.53376097594E+03 -0.59034237944E+03 -0.92582019923E+03  0.12208799882E+04  0.00000000000E+00 0. -1.
<mgrwt>
<rscale>  0 0.34892857E+04</rscale>
<asrwt>0</asrwt>
<pdfrwt beam="1">  1        2 0.41187675E+00 0.34892857E+04</pdfrwt>
<pdfrwt beam="2">  1       -2 0.17491178E+00 0.34892857E+04</pdfrwt>
<totfact> 0.44323166E-01</totfact>
</mgrwt>
</event>
<event>
 6    1  0.5040916E-004  0.1498583E+04  0.7818608E-02  0.8885395E-01
          2   -1    0    0  501    0  0.00000000000E+00  0.00000000000E+00  0.32107335699E+04  0.32107335699E+04  0.00000000000E+00 0.  1.
         -2   -1    0    0    0  501 -0.00000000000E+00 -0.00000000000E+00 -0.17486287181E+03  0.17486287181E+03  0.00000000000E+00 0. -1.
         23    2    1    2    0    0  0.18097376633E+03 -0.71347172116E+03  0.12427277370E+04  0.14472582154E+04  0.91600832440E+02 0.  0.
         11    1    3    3    0    0  0.31044923435E+02 -0.23016114275E+03  0.32813382982E+03  0.40200715065E+03  0.00000000000E+00 0.  1.
        -11    1    3    3    0    0  0.14992884289E+03 -0.48331057841E+03  0.91459390722E+03  0.10452510647E+04  0.00000000000E+00 0. -1.
         22    1    1    2    0    0 -0.18097376633E+03  0.71347172116E+03  0.17931429610E+04  0.19383382264E+04  0.00000000000E+00 0. -1.
<mgrwt>
<rscale>  0 0.14985835E+04</rscale>
<asrwt>0</asrwt>
<pdfrwt beam="1">  1        2 0.49395897E+00 0.14985835E+04</pdfrwt>
<pdfrwt beam="2">  1       -2 0.26901983E-01 0.14985835E+04</pdfrwt>
<totfact> 0.15627043E+01</totfact>
</mgrwt>
</event>
<event>
 6    1  0.5040916E-004  0.2237050E+04  0.7818608E-02  0.8503163E-01
         -2   -1    0    0    0  501 -0.00000000000E+00  0.00000000000E+00  0.46559574733E+03  0.46559574733E+03  0.00000000000E+00 0. -1.
          2   -1    0    0  501    0  0.00000000000E+00 -0.00000000000E+00 -0.26870918861E+04  0.26870918861E+04  0.00000000000E+00 0.  1.
         23    2    1    2    0    0 -0.75639479573E+03  0.48217804392E+03 -0.17507992137E+03  0.91830895293E+03  0.89496374832E+02 0.  0.
         11    1    3    3    0    0 -0.21604969448E+03  0.15909351773E+03 -0.15092719130E+02  0.26873036307E+03  0.00000000000E+00 0.  1.
        -11    1    3    3    0    0 -0.54034510126E+03  0.32308452620E+03 -0.15998720224E+03  0.64957858986E+03  0.00000000000E+00 0. -1.
         22    1    1    2    0    0  0.75639479573E+03 -0.48217804392E+03 -0.20464162174E+04  0.22343786805E+04  0.00000000000E+00 0.  1.
<mgrwt>
<rscale>  0 0.22370503E+04</rscale>
<asrwt>0</asrwt>
<pdfrwt beam="1">  1        2 0.41339876E+00 0.22370503E+04</pdfrwt>
<pdfrwt beam="2">  1       -2 0.71630113E-01 0.22370503E+04</pdfrwt>
<totfact> 0.43547544E+00</totfact>
</mgrwt>
</event>
<event>
 6    1  0.5040916E-004  0.2386661E+04  0.7818608E-02  0.8444514E-01
          2   -1    0    0  501    0  0.00000000000E+00  0.00000000000E+00  0.33023053828E+04  0.33023053828E+04  0.00000000000E+00 0.  1.
         -2   -1    0    0    0  501 -0.00000000000E+00 -0.00000000000E+00 -0.43122531964E+03  0.43122531964E+03  0.00000000000E+00 0. -1.
         23    2    1    2    0    0  0.10682225008E+04 -0.51664170429E+03  0.12678193555E+04  0.17389222550E+04  0.92014830617E+02 0.  0.
         11    1    3    3    0    0  0.45901358080E+03 -0.18407170444E+03  0.57138991718E+03  0.75568663955E+03  0.00000000000E+00 0.  1.
        -11    1    3    3    0    0  0.60920891997E+03 -0.33256999985E+03  0.69642943828E+03  0.98323561544E+03  0.00000000000E+00 0. -1.
         22    1    1    2    0    0 -0.10682225008E+04  0.51664170429E+03  0.16032607077E+04  0.19946084474E+04  0.00000000000E+00 0.  1.
<mgrwt>
<rscale>  0 0.23866610E+04</rscale>
<asrwt>0</asrwt>
<pdfrwt beam="1">  1        2 0.50804697E+00 0.23866610E+04</pdfrwt>
<pdfrwt beam="2">  1       -2 0.66342359E-01 0.23866610E+04</pdfrwt>
<totfact> 0.20899690E+00</totfact>
</mgrwt>
</event>
<event>
 6    1  0.5040916E-004  0.2048352E+04  0.7818608E-02  0.8584342E-01
          2   -1    0    0  501    0  0.00000000000E+00  0.00000000000E+00  0.16828351796E+04  0.16828351796E+04  0.00000000000E+00 0. -1.
         -2   -1    0    0    0  501 -0.00000000000E+00 -0.00000000000E+00 -0.62331485963E+03  0.62331485963E+03  0.00000000000E+00 0.  1.
         23    2    1    2    0    0 -0.69146815112E+03 -0.15160990663E+03  0.13609364485E+04  0.15367571290E+04  0.91436802783E+02 0.  0.
         11    1    3    3    0    0 -0.40886779615E+03 -0.44558526700E+02  0.76281058077E+03  0.86662467030E+03  0.00000000000E+00 0. -1.
        -11    1    3    3    0    0 -0.28260035497E+03 -0.10705137993E+03  0.59812586772E+03  0.67013245870E+03  0.00000000000E+00 0.  1.
         22    1    1    2    0    0  0.69146815112E+03  0.15160990663E+03 -0.30141612851E+03  0.76939291024E+03  0.00000000000E+00 0.  1.
<mgrwt>
<rscale>  0 0.20483517E+04</rscale>
<asrwt>0</asrwt>
<pdfrwt beam="1">  1        2 0.25889772E+00 0.20483517E+04</pdfrwt>
<pdfrwt beam="2">  1       -2 0.95894595E-01 0.20483517E+04</pdfrwt>
<totfact> 0.84593109E+00</totfact>
</mgrwt>
</event>
<event>
 6    1  0.5040916E-004  0.2682982E+04  0.7818608E-02  0.8340548E-01
         -2   -1    0    0    0  501 -0.00000000000E+00  0.00000000000E+00  0.10490389204E+04  0.10490389204E+04  0.00000000000E+00 0. -1.
          2   -1    0    0  501    0  0.00000000000E+00 -0.00000000000E+00 -0.17154727094E+04  0.17154727094E+04  0.00000000000E+00 0.  1.
         23    2    1    2    0    0  0.55743261165E+03 -0.62698592379E+03 -0.14101103189E+04  0.16433973420E+04  0.92202207705E+02 0.  0.
         11    1    3    3    0    0  0.26726368982E+03 -0.36974671232E+03 -0.76025935486E+03  0.88664355737E+03  0.00000000000E+00 0.  1.
        -11    1    3    3    0    0  0.29016892183E+03 -0.25723921147E+03 -0.64985096407E+03  0.75675378467E+03  0.00000000000E+00 0. -1.
         22    1    1    2    0    0 -0.55743261165E+03  0.62698592379E+03  0.74367652991E+03  0.11211142878E+04  0.00000000000E+00 0. -1.
<mgrwt>
<rscale>  0 0.26829817E+04</rscale>
<asrwt>0</asrwt>
<pdfrwt beam="1">  1        2 0.26391888E+00 0.26829817E+04</pdfrwt>
<pdfrwt beam="2">  1       -2 0.16139060E+00 0.26829817E+04</pdfrwt>
<totfact> 0.20782401E+00</totfact>
</mgrwt>
</event>
<event>
 6    1  0.5040916E-004  0.3668774E+04  0.7818608E-02  0.8074917E-01
         -2   -1    0    0    0  501 -0.00000000000E+00  0.00000000000E+00  0.10031480011E+04  0.10031480011E+04  0.00000000000E+00 0.  1.
          2   -1    0    0  501    0  0.00000000000E+00 -0.00000000000E+00 -0.33544159846E+04  0.33544159846E+04  0.00000000000E+00 0. -1.
         23    2    1    2    0    0  0.75942627893E+03  0.32360646566E+03  0.76783746431E+03  0.11310692604E+04  0.91070755628E+02 0.  0.
         11    1    3    3    0    0  0.36171246052E+03  0.18633458017E+03  0.42462301791E+03  0.58809964054E+03  0.00000000000E+00 0. -1.
        -11    1    3    3    0    0  0.39771381841E+03  0.13727188548E+03  0.34321444640E+03  0.54296961989E+03  0.00000000000E+00 0.  1.
         22    1    1    2    0    0 -0.75942627893E+03 -0.32360646566E+03 -0.31191054478E+04  0.32264947253E+04  0.00000000000E+00 0. -1.
<mgrwt>
<rscale>  0 0.36687740E+04</rscale>
<asrwt>0</asrwt>
<pdfrwt beam="1">  1        2 0.51606401E+00 0.36687740E+04</pdfrwt>
<pdfrwt beam="2">  1       -2 0.15433046E+00 0.36687740E+04</pdfrwt>
<totfact> 0.23015602E-01</totfact>
</mgrwt>
</event>
<event>
 6    1  0.5040916E-004  0.2578736E+04  0.7818608E-02  0.8375460E-01
         -2   -1    0    0    0  501 -0.00000000000E+00  0.00000000000E+00  0.12688291967E+04  0.12688291967E+04  0.00000000000E+00 0. -1.
          2   -1    0    0  501    0  0.00000000000E+00 -0.00000000000E+00 -0.13102389077E+04  0.13102389077E+04  0.00000000000E+00 0.  1.
         23    2    1    2    0    0 -0.60373914280E+03  0.51363932134E+03 -0.10357669044E+04  0.13074264358E+04  0.90689028532E+02 0.  0.
         13    1    3    3    0    0 -0.53154140785E+03  0.40999099629E+03 -0.85987928556E+03  0.10908809610E+04  0.00000000000E+00 0.  1.
        -13    1    3    3    0    0 -0.72197734944E+02  0.10364832506E+03 -0.17588761885E+03  0.21654547486E+03  0.00000000000E+00 0. -1.
         22    1    1    2    0    0  0.60373914280E+03 -0.51363932134E+03  0.99435719340E+03  0.12716416685E+04  0.00000000000E+00 0. -1.
<mgrwt>
<rscale>  0 0.25787356E+04</rscale>
<asrwt>0</asrwt>
<pdfrwt beam="1">  1        2 0.20157522E+00 0.25787356E+04</pdfrwt>
<pdfrwt beam="2">  1       -2 0.19520449E+00 0.25787356E+04</pdfrwt>
<totfact> 0.20672650E+00</totfact>
</mgrwt>
</event>
<event>
 6    1  0.5040916E-004  0.3352922E+04  0.7818608E-02  0.8149558E-01
         -2   -1    0    0    0  501 -0.00000000000E+00  0.00000000000E+00  0.15989596601E+04  0.15989596601E+04  0.00000000000E+00 0. -1.
          2   -1    0    0  501    0  0.00000000000E+00 -0.00000000000E+00 -0.17577187580E+04  0.17577187580E+04  0.00000000000E+00 0.  1.
         23    2    1    2    0    0  0.75385586504E+03 -0.20624411293E+03 -0.15628419230E+04  0.17497297943E+04  0.90797452484E+02 0.  0.
         13    1    3    3    0    0  0.17613953318E+03 -0.48521006361E+02 -0.45655397733E+03  0.49175294348E+03  0.00000000000E+00 0.  1.
        -13    1    3    3    0    0  0.57771633186E+03 -0.15772310657E+03 -0.11062879457E+04  0.12579768508E+04  0.00000000000E+00 0. -1.
         22    1    1    2    0    0 -0.75385586504E+03  0.20624411293E+03  0.14040828251E+04  0.16069486237E+04  0.00000000000E+00 0. -1.
<mgrwt>
<rscale>  0 0.33529219E+04</rscale>
<asrwt>0</asrwt>
<pdfrwt beam="1">  1        2 0.27041827E+00 0.33529219E+04</pdfrwt>
<pdfrwt beam="2">  1       -2 0.24599380E+00 0.33529219E+04</pdfrwt>
<totfact> 0.51525085E-01</totfact>
</mgrwt>
</event>
<event>
 6    1  0.5040916E-004  0.2135723E+04  0.7818608E-02  0.8545668E-01
          2   -1    0    0  501    0  0.00000000000E+00  0.00000000000E+00  0.15465676150E+04  0.15465676150E+04  0.00000000000E+00 0.  1.
         -2   -1    0    0    0  501 -0.00000000000E+00 -0.00000000000E+00 -0.73732836715E+03  0.73732836715E+03  0.00000000000E+00 0. -1.
         23    2    1    2    0    0  0.50661267536E+03  0.74242525650E+03  0.10181155156E+04  0.13611387229E+04  0.91037110248E+02 0.  0.
         11    1    3    3    0    0  0.18766232306E+03  0.21026972173E+03  0.28666017997E+03  0.40200069919E+03  0.00000000000E+00 0. -1.
        -11    1    3    3    0    0  0.31895035229E+03  0.53215553478E+03  0.73145533566E+03  0.95913802369E+03  0.00000000000E+00 0.  1.
         22    1    1    2    0    0 -0.50661267536E+03 -0.74242525650E+03 -0.20887626776E+03  0.92275725928E+03  0.00000000000E+00 0. -1.
<mgrwt>
<rscale>  0 0.21357230E+04</rscale>
<asrwt>0</asrwt>
<pdfrwt beam="1">  1        2 0.23793348E+00 0.21357230E+04</pdfrwt>
<pdfrwt beam="2">  1       -2 0.11343513E+00 0.21357230E+04</pdfrwt>
<totfact> 0.66952214E+00</totfact>
</mgrwt>
</event>
<event>
 6    1  0.5040916E-004  0.2282201E+04  0.7818608E-02  0.8484972E-01
          2   -1    0    0  501    0  0.00000000000E+00  0.00000000000E+00  0.22211587385E+04  0.22211587385E+04  0.00000000000E+00 0.  1.
         -2   -1    0    0    0  501 -0.00000000000E+00 -0.00000000000E+00 -0.58623042300E+03  0.58623042300E+03  0.00000000000E+00 0. -1.
         23    2    1    2    0    0 -0.79973315902E+03  0.55243800130E+03  0.15499241700E+04  0.18316911674E+04  0.89814972894E+02 0.  0.
         13    1    3    3    0    0 -0.27267722904E+03  0.22527570561E+03  0.62134660228E+03  0.71496406549E+03  0.00000000000E+00 0. -1.
        -13    1    3    3    0    0 -0.52705592997E+03  0.32716229569E+03  0.92857756768E+03  0.11167271020E+04  0.00000000000E+00 0.  1.
         22    1    1    2    0    0  0.79973315902E+03 -0.55243800130E+03  0.85004145570E+02  0.97569799409E+03  0.00000000000E+00 0. -1.
<mgrwt>
<rscale>  0 0.22822014E+04</rscale>
<asrwt>0</asrwt>
<pdfrwt beam="1">  1        2 0.34171673E+00 0.22822014E+04</pdfrwt>
<pdfrwt beam="2">  1       -2 0.90189297E-01 0.22822014E+04</pdfrwt>
<totfact> 0.47966039E+00</totfact>
</mgrwt>
</event>
<event>
 6    1  0.5040916E-004  0.1278411E+04  0.7818608E-02  0.9046863E-01
         -2   -1    0    0    0  501 -0.00000000000E+00  0.00000000000E+00  0.10004278316E+04  0.10004278316E+04  0.00000000000E+00 0. -1.
          2   -1    0    0  501    0  0.00000000000E+00 -0.00000000000E+00 -0.40840872127E+03  0.40840872127E+03  0.00000000000E+00 0.  1.
         23    2    1    2    0    0  0.53655123576E+03  0.28520275894E+03  0.91482142085E+02  0.62158494196E+03  0.93653699553E+02 0.  0.
         13    1    3    3    0    0  0.31435173243E+03  0.18044316429E+03  0.99261102804E+02  0.37580515398E+03  0.00000000000E+00 0.  1.
        -13    1    3    3    0    0  0.22219950333E+03  0.10475959465E+03 -0.77789607188E+01  0.24577978798E+03  0.00000000000E+00 0. -1.
         22    1    1    2    0    0 -0.53655123576E+03 -0.28520275894E+03  0.50053696825E+03  0.78725161092E+03  0.00000000000E+00 0.  1.
<mgrwt>
<rscale>  0 0.12784107E+04</rscale>
<asrwt>0</asrwt>
<pdfrwt beam="1">  1        2 0.62832111E-01 0.12784107E+04</pdfrwt>
<pdfrwt beam="2">  1       -2 0.15391197E+00 0.12784107E+04</pdfrwt>
<totfact> 0.21305843E+01</totfact>
</mgrwt>
</event>
<event>
 6    1  0.5040916E-004  0.3058081E+04  0.7818608E-02  0.8227337E-01
         -2   -1    0    0    0  501 -0.00000000000E+00  0.00000000000E+00  0.14093084435E+04  0.14093084435E+04  0.00000000000E+00 0.  1.
          2   -1    0    0  501    0  0.00000000000E+00 -0.00000000000E+00 -0.16589443891E+04  0.16589443891E+04  0.00000000000E+00 0. -1.
         23    2    1    2    0    0 -0.67660317663E+03 -0.13694066010E+04 -0.98865236503E+02  0.15333918929E+04  0.91924233297E+02 0.  0.
         13    1    3    3    0    0 -0.41331289544E+03 -0.81133496814E+03 -0.15099149498E+02  0.91067006340E+03  0.00000000000E+00 0. -1.
        -13    1    3    3    0    0 -0.26329028119E+03 -0.55807163286E+03 -0.83766087005E+02  0.62272182947E+03  0.00000000000E+00 0.  1.
         22    1    1    2    0    0  0.67660317663E+03  0.13694066010E+04 -0.15077070912E+03  0.15348609397E+04  0.00000000000E+00 0. -1.
<mgrwt>
<rscale>  0 0.30580807E+04</rscale>
<asrwt>0</asrwt>
<pdfrwt beam="1">  1        2 0.25522221E+00 0.30580807E+04</pdfrwt>
<pdfrwt beam="2">  1       -2 0.21681668E+00 0.30580807E+04</pdfrwt>
<totfact> 0.91202369E-01</totfact>
</mgrwt>
</event>
<event>
 6    1  0.5040916E-004  0.2662013E+04  0.7818608E-02  0.8347437E-01
          1   -1    0    0  501    0  0.00000000000E+00  0.00000000000E+00  0.21782270702E+04  0.21782270702E+04  0.00000000000E+00 0. -1.
         -1   -1    0    0    0  501 -0.00000000000E+00 -0.00000000000E+00 -0.81331174863E+03  0.81331174863E+03  0.00000000000E+00 0.  1.
         23    2    1    2    0    0  0.16936351200E+03 -0.53907452780E+02  0.21639627029E+04  0.21729627807E+04  0.86270816827E+02 0.  0.
         11    1    3    3    0    0  0.11123426396E+03 -0.14297966677E+02  0.88662880552E+03  0.89369353366E+03  0.00000000000E+00 0.  1.
        -11    1    3    3    0    0  0.58129248044E+02 -0.39609486103E+02  0.12773338974E+04  0.12792692470E+04  0.00000000000E+00 0. -1.
         22    1    1    2    0    0 -0.16936351200E+03  0.53907452780E+02 -0.79904738134E+03  0.81857603818E+03  0.00000000000E+00 0.  1.
<mgrwt>
<rscale>  0 0.26620125E+04</rscale>
<asrwt>0</asrwt>
<pdfrwt beam="1">  1        1 0.33511185E+00 0.26620125E+04</pdfrwt>
<pdfrwt beam="2">  1       -1 0.12512489E+00 0.26620125E+04</pdfrwt>
<totfact> 0.11021356E+00</totfact>
</mgrwt>
</event>
<event>
 6    1  0.5040916E-004  0.4422528E+04  0.7818608E-02  0.7924342E-01
         -2   -1    0    0    0  501 -0.00000000000E+00  0.00000000000E+00  0.15091208209E+04  0.15091208209E+04  0.00000000000E+00 0. -1.
          2   -1    0    0  501    0  0.00000000000E+00 -0.00000000000E+00 -0.32400910433E+04  0.32400910433E+04  0.00000000000E+00 0.  1.
         23    2    1    2    0    0  0.52545863265E+03  0.17287107521E+04 -0.22337068056E+04  0.28737674605E+04  0.67421692238E+02 0.  0.
         13    1    3    3    0    0  0.52141092173E+03  0.16785433989E+04 -0.21756218627E+04  0.27969103992E+04  0.00000000000E+00 0.  1.
        -13    1    3    3    0    0  0.40477109169E+01  0.50167353184E+02 -0.58084942851E+02  0.76857061323E+02  0.00000000000E+00 0. -1.
         22    1    1    2    0    0 -0.52545863265E+03 -0.17287107521E+04  0.50273658318E+03  0.18754444036E+04  0.00000000000E+00 0. -1.
<mgrwt>
<rscale>  0 0.44225282E+04</rscale>
<asrwt>0</asrwt>
<pdfrwt beam="1">  1        2 0.49847554E+00 0.44225282E+04</pdfrwt>
<pdfrwt beam="2">  1       -2 0.23217244E+00 0.44225282E+04</pdfrwt>
<totfact> 0.77033054E-02</totfact>
</mgrwt>
</event>
<event>
 6    1  0.5040916E-004  0.2262641E+04  0.7818608E-02  0.8492799E-01
          2   -1    0    0  501    0  0.00000000000E+00  0.00000000000E+00  0.92516782897E+03  0.92516782897E+03  0.00000000000E+00 0.  1.
         -2   -1    0    0    0  501 -0.00000000000E+00 -0.00000000000E+00 -0.13834093331E+04  0.13834093331E+04  0.00000000000E+00 0. -1.
         23    2    1    2    0    0 -0.23430450688E+03  0.10357800608E+04 -0.62202265930E+03  0.12340711346E+04  0.90996923922E+02 0.  0.
         11    1    3    3    0    0 -0.70483410683E+02  0.48991483475E+03 -0.31534882786E+03  0.58688102689E+03  0.00000000000E+00 0.  1.
        -11    1    3    3    0    0 -0.16382109620E+03  0.54586522607E+03 -0.30667383144E+03  0.64719010769E+03  0.00000000000E+00 0. -1.
         22    1    1    2    0    0  0.23430450688E+03 -0.10357800608E+04  0.16378115516E+03  0.10745060275E+04  0.00000000000E+00 0.  1.
<mgrwt>
<rscale>  0 0.22626408E+04</rscale>
<asrwt>0</asrwt>
<pdfrwt beam="1">  1        2 0.14233351E+00 0.22626408E+04</pdfrwt>
<pdfrwt beam="2">  1       -2 0.21283220E+00 0.22626408E+04</pdfrwt>
<totfact> 0.28150851E+00</totfact>
</mgrwt>
</event>
<event>
 6    1  0.5040916E-004  0.1132220E+04  0.7818608E-02  0.9174345E-01
         -2   -1    0    0    0  501 -0.00000000000E+00  0.00000000000E+00  0.53900023517E+03  0.53900023517E+03  0.00000000000E+00 0. -1.
          2   -1    0    0  501    0  0.00000000000E+00 -0.00000000000E+00 -0.59458345765E+03  0.59458345765E+03  0.00000000000E+00 0.  1.
         23    2    1    2    0    0  0.27623778889E+03  0.48628091333E+03 -0.88320150464E+02  0.57336217490E+03  0.90373070971E+02 0.  0.
         11    1    3    3    0    0  0.12016989420E+03  0.24725733404E+03 -0.12516193337E+01  0.27491554932E+03  0.00000000000E+00 0. -1.
        -11    1    3    3    0    0  0.15606789469E+03  0.23902357929E+03 -0.87068531131E+02  0.29844662558E+03  0.00000000000E+00 0.  1.
         22    1    1    2    0    0 -0.27623778889E+03 -0.48628091333E+03  0.32736927985E+02  0.56022151791E+03  0.00000000000E+00 0. -1.
<mgrwt>
<rscale>  0 0.11322202E+04</rscale>
<asrwt>0</asrwt>
<pdfrwt beam="1">  1        2 0.91474378E-01 0.11322202E+04</pdfrwt>
<pdfrwt beam="2">  1       -2 0.82923113E-01 0.11322202E+04</pdfrwt>
<totfact> 0.63371307E+01</totfact>
</mgrwt>
</event>
<event>
 6    1  0.5040916E-004  0.2682317E+04  0.7818608E-02  0.8340765E-01
          2   -1    0    0  501    0  0.00000000000E+00  0.00000000000E+00  0.25701817951E+04  0.25701817951E+04  0.00000000000E+00 0.  1.
         -2   -1    0    0    0  501 -0.00000000000E+00 -0.00000000000E+00 -0.69983596157E+03  0.69983596157E+03  0.00000000000E+00 0. -1.
         23    2    1    2    0    0  0.96179943093E+02 -0.12620015289E+04  0.40114445527E+03  0.13308294908E+04  0.91059426915E+02 0.  0.
         13    1    3    3    0    0  0.10684868051E+03 -0.10829249942E+04  0.32260790168E+03  0.11349973753E+04  0.00000000000E+00 0.  1.
        -13    1    3    3    0    0 -0.10668737417E+02 -0.17907653471E+03  0.78536553594E+02  0.19583211557E+03  0.00000000000E+00 0. -1.
         22    1    1    2    0    0 -0.96179943093E+02  0.12620015289E+04  0.14692013782E+04  0.19391882658E+04  0.00000000000E+00 0.  1.
<mgrwt>
<rscale>  0 0.26823166E+04</rscale>
<asrwt>0</asrwt>
<pdfrwt beam="1">  1        2 0.39541258E+00 0.26823166E+04</pdfrwt>
<pdfrwt beam="2">  1       -2 0.10766707E+00 0.26823166E+04</pdfrwt>
<totfact> 0.19256601E+00</totfact>
</mgrwt>
</event>
<event>
 6    1  0.5040916E-004  0.1582563E+04  0.7818608E-02  0.8831332E-01
          2   -1    0    0  501    0  0.00000000000E+00  0.00000000000E+00  0.53436985268E+03  0.53436985268E+03  0.00000000000E+00 0.  1.
         -2   -1    0    0    0  501 -0.00000000000E+00 -0.00000000000E+00 -0.11717100189E+04  0.11717100189E+04  0.00000000000E+00 0. -1.
         23    2    1    2    0    0 -0.24133808967E+03  0.44385704119E+03  0.33303985395E+03  0.61205494953E+03  0.91883460881E+02 0.  0.
         11    1    3    3    0    0 -0.19219665788E+03  0.41136029255E+03  0.30358667878E+03  0.54618835316E+03  0.00000000000E+00 0. -1.
        -11    1    3    3    0    0 -0.49141431785E+02  0.32496748633E+02  0.29453175173E+02  0.65866596370E+02  0.00000000000E+00 0.  1.
         22    1    1    2    0    0  0.24133808967E+03 -0.44385704119E+03 -0.97038002017E+03  0.10940249221E+04  0.00000000000E+00 0. -1.
<mgrwt>
<rscale>  0 0.15825631E+04</rscale>
<asrwt>0</asrwt>
<pdfrwt beam="1">  1        2 0.82210746E-01 0.15825631E+04</pdfrwt>
<pdfrwt beam="2">  1       -2 0.18026308E+00 0.15825631E+04</pdfrwt>
<totfact> 0.98662544E+00</totfact>
</mgrwt>
</event>
<event>
 6    1  0.5040916E-004  0.1630650E+04  0.7818608E-02  0.8801937E-01
         -2   -1    0    0    0  501 -0.00000000000E+00  0.00000000000E+00  0.87674698908E+03  0.87674698908E+03  0.00000000000E+00 0. -1.
          2   -1    0    0  501    0  0.00000000000E+00 -0.00000000000E+00 -0.75820578420E+03  0.75820578420E+03  0.00000000000E+00 0.  1.
         23    2    1    2    0    0 -0.18817975836E+03 -0.34561343150E+03  0.77229681486E+03  0.87189532913E+03  0.94333606003E+02 0.  0.
         11    1    3    3    0    0 -0.60719131855E+02 -0.20832482753E+03  0.43233459351E+03  0.48373468708E+03  0.00000000000E+00 0. -1.
        -11    1    3    3    0    0 -0.12746062651E+03 -0.13728860397E+03  0.33996222135E+03  0.38816064205E+03  0.00000000000E+00 0.  1.
         22    1    1    2    0    0  0.18817975836E+03  0.34561343150E+03 -0.65375560998E+03  0.76305744415E+03  0.00000000000E+00 0.  1.
<mgrwt>
<rscale>  0 0.16306497E+04</rscale>
<asrwt>0</asrwt>
<pdfrwt beam="1">  1        2 0.11664704E+00 0.16306497E+04</pdfrwt>
<pdfrwt beam="2">  1       -2 0.13488415E+00 0.16306497E+04</pdfrwt>
<totfact> 0.13980737E+01</totfact>
</mgrwt>
</event>
<event>
 6    1  0.5040916E-004  0.2971194E+04  0.7818608E-02  0.8252005E-01
         -1   -1    0    0    0  501 -0.00000000000E+00  0.00000000000E+00  0.10736840104E+04  0.10736840104E+04  0.00000000000E+00 0. -1.
          1   -1    0    0  501    0  0.00000000000E+00 -0.00000000000E+00 -0.20555388015E+04  0.20555388015E+04  0.00000000000E+00 0.  1.
         23    2    1    2    0    0  0.13811052622E+04 -0.48090785426E+03 -0.22810143727E+03  0.14839665316E+04  0.10678151363E+03 0.  0.
         11    1    3    3    0    0  0.59890334824E+03 -0.25396824485E+03 -0.13290198719E+03  0.66396387562E+03  0.00000000000E+00 0.  1.
        -11    1    3    3    0    0  0.78220191395E+03 -0.22693960941E+03 -0.95199450088E+02  0.82000265598E+03  0.00000000000E+00 0. -1.
         22    1    1    2    0    0 -0.13811052622E+04  0.48090785426E+03 -0.75375335383E+03  0.16452562803E+04  0.00000000000E+00 0.  1.
<mgrwt>
<rscale>  0 0.29711945E+04</rscale>
<asrwt>0</asrwt>
<pdfrwt beam="1">  1        1 0.31623674E+00 0.29711945E+04</pdfrwt>
<pdfrwt beam="2">  1       -1 0.16518216E+00 0.29711945E+04</pdfrwt>
<totfact> 0.62265981E-01</totfact>
</mgrwt>
</event>
<event>
 6    1  0.5040916E-004  0.2999466E+04  0.7818608E-02  0.8243883E-01
          1   -1    0    0  501    0  0.00000000000E+00  0.00000000000E+00  0.21688181215E+04  0.21688181215E+04  0.00000000000E+00 0.  1.
         -1   -1    0    0    0  501 -0.00000000000E+00 -0.00000000000E+00 -0.10370622295E+04  0.10370622295E+04  0.00000000000E+00 0. -1.
         23    2    1    2    0    0 -0.14425737237E+04  0.39139000037E+03  0.45541487808E+03  0.15652578326E+04  0.91783935227E+02 0.  0.
         11    1    3    3    0    0 -0.70983613427E+03  0.16849466302E+03  0.26352856788E+03  0.77569652253E+03  0.00000000000E+00 0.  1.
        -11    1    3    3    0    0 -0.73273758939E+03  0.22289533736E+03  0.19188631021E+03  0.78956131007E+03  0.00000000000E+00 0. -1.
         22    1    1    2    0    0  0.14425737237E+04 -0.39139000037E+03  0.67634101389E+03  0.16406225183E+04  0.00000000000E+00 0.  1.
<mgrwt>
<rscale>  0 0.29994662E+04</rscale>
<asrwt>0</asrwt>
<pdfrwt beam="1">  1        1 0.33366433E+00 0.29994662E+04</pdfrwt>
<pdfrwt beam="2">  1       -1 0.15954804E+00 0.29994662E+04</pdfrwt>
<totfact> 0.57348520E-01</totfact>
</mgrwt>
</event>
<event>
 6    1  0.5040916E-004  0.1479195E+04  0.7818608E-02  0.8898407E-01
         -2   -1    0    0    0  501 -0.00000000000E+00  0.00000000000E+00  0.17505397357E+03  0.17505397357E+03  0.00000000000E+00 0. -1.
          2   -1    0    0  501    0  0.00000000000E+00 -0.00000000000E+00 -0.31247745309E+04  0.31247745309E+04  0.00000000000E+00 0.  1.
         23    2    1    2    0    0  0.71545892243E+03 -0.83851668319E+02 -0.18246386023E+04  0.19638936342E+04  0.93057002075E+02 0.  0.
         13    1    3    3    0    0  0.27834519696E+03 -0.52497361553E+02 -0.60824936642E+03  0.67096893623E+03  0.00000000000E+00 0. -1.
        -13    1    3    3    0    0  0.43711372548E+03 -0.31354306766E+02 -0.12163892359E+04  0.12929246980E+04  0.00000000000E+00 0.  1.
         22    1    1    2    0    0 -0.71545892243E+03  0.83851668319E+02 -0.11250819551E+04  0.13359348703E+04  0.00000000000E+00 0.  1.
<mgrwt>
<rscale>  0 0.14791946E+04</rscale>
<asrwt>0</asrwt>
<pdfrwt beam="1">  1        2 0.48073453E+00 0.14791946E+04</pdfrwt>
<pdfrwt beam="2">  1       -2 0.26931381E-01 0.14791946E+04</pdfrwt>
<totfact> 0.17744954E+01</totfact>
</mgrwt>
</event>
<event>
 6    1  0.5040916E-004  0.1696016E+04  0.7818608E-02  0.8763640E-01
         -2   -1    0    0    0  501 -0.00000000000E+00  0.00000000000E+00  0.60208696599E+03  0.60208696599E+03  0.00000000000E+00 0. -1.
          2   -1    0    0  501    0  0.00000000000E+00 -0.00000000000E+00 -0.11943750882E+04  0.11943750882E+04  0.00000000000E+00 0.  1.
         23    2    1    2    0    0 -0.42693848592E+03 -0.42633669768E+03  0.33032657515E+03  0.69407494871E+03  0.92654938514E+02 0.  0.
         11    1    3    3    0    0 -0.27155900301E+03 -0.23700145487E+03  0.15235357368E+03  0.39131265395E+03  0.00000000000E+00 0.  1.
        -11    1    3    3    0    0 -0.15537948291E+03 -0.18933524281E+03  0.17797300147E+03  0.30276229476E+03  0.00000000000E+00 0. -1.
         22    1    1    2    0    0  0.42693848592E+03  0.42633669768E+03 -0.92261469739E+03  0.11023871055E+04  0.00000000000E+00 0.  1.
<mgrwt>
<rscale>  0 0.16960161E+04</rscale>
<asrwt>0</asrwt>
<pdfrwt beam="1">  1        2 0.18375001E+00 0.16960161E+04</pdfrwt>
<pdfrwt beam="2">  1       -2 0.92628765E-01 0.16960161E+04</pdfrwt>
<totfact> 0.17965084E+01</totfact>
</mgrwt>
</event>
<event>
 6    1  0.5040916E-004  0.3572053E+04  0.7818608E-02  0.8096923E-01
          2   -1    0    0  501    0  0.00000000000E+00  0.00000000000E+00  0.34001311794E+04  0.34001311794E+04  0.00000000000E+00 0.  1.
         -2   -1    0    0    0  501 -0.00000000000E+00 -0.00000000000E+00 -0.93816715183E+03  0.93816715183E+03  0.00000000000E+00 0. -1.
         23    2    1    2    0    0 -0.85851269379E+03 -0.84150436134E+03 -0.37043011480E+03  0.12613468832E+04  0.92756964082E+02 0.  0.
         13    1    3    3    0    0 -0.14620966705E+03 -0.10863057601E+03 -0.79539592286E+02  0.19875717729E+03  0.00000000000E+00 0. -1.
        -13    1    3    3    0    0 -0.71230302673E+03 -0.73287378533E+03 -0.29089052251E+03  0.10625897060E+04  0.00000000000E+00 0.  1.
         22    1    1    2    0    0  0.85851269379E+03  0.84150436134E+03  0.28323941424E+04  0.30769514480E+04  0.00000000000E+00 0.  1.
<mgrwt>
<rscale>  0 0.35720534E+04</rscale>
<asrwt>0</asrwt>
<pdfrwt beam="1">  1        2 0.52309710E+00 0.35720534E+04</pdfrwt>
<pdfrwt beam="2">  1       -2 0.14433341E+00 0.35720534E+04</pdfrwt>
<totfact> 0.25788425E-01</totfact>
</mgrwt>
</event>
<event>
 6    1  0.5040916E-004  0.2035391E+04  0.7818608E-02  0.8590251E-01
         -2   -1    0    0    0  501 -0.00000000000E+00  0.00000000000E+00  0.38099550301E+03  0.38099550301E+03  0.00000000000E+00 0. -1.
          2   -1    0    0  501    0  0.00000000000E+00 -0.00000000000E+00 -0.27184162830E+04  0.27184162830E+04  0.00000000000E+00 0.  1.
         23    2    1    2    0    0  0.17868719532E+02  0.61149752664E+03 -0.24056024042E+04  0.24838654839E+04  0.91740388459E+02 0.  0.
         13    1    3    3    0    0 -0.28026890726E+02  0.14534732618E+03 -0.67095369356E+03  0.68708821176E+03  0.00000000000E+00 0. -1.
        -13    1    3    3    0    0  0.45895610258E+02  0.46615020045E+03 -0.17346487106E+04  0.17967772721E+04  0.00000000000E+00 0.  1.
         22    1    1    2    0    0 -0.17868719532E+02 -0.61149752664E+03  0.68181624145E+02  0.61554630215E+03  0.00000000000E+00 0. -1.
<mgrwt>
<rscale>  0 0.20353912E+04</rscale>
<asrwt>0</asrwt>
<pdfrwt beam="1">  1        2 0.41821789E+00 0.20353912E+04</pdfrwt>
<pdfrwt beam="2">  1       -2 0.58614692E-01 0.20353912E+04</pdfrwt>
<totfact> 0.65332664E+00</totfact>
</mgrwt>
</event>
<event>
 6    1  0.5040916E-004  0.1694161E+04  0.7818608E-02  0.8764702E-01
         -2   -1    0    0    0  501 -0.00000000000E+00  0.00000000000E+00  0.57976468437E+03  0.57976468437E+03  0.00000000000E+00 0. -1.
          2   -1    0    0  501    0  0.00000000000E+00 -0.00000000000E+00 -0.12376488389E+04  0.12376488389E+04  0.00000000000E+00 0.  1.
         23    2    1    2    0    0 -0.40819781661E+03 -0.22727611117E+03 -0.10847336019E+04  0.11845783639E+04  0.91098983952E+02 0.  0.
         13    1    3    3    0    0 -0.18792730010E+03 -0.99922163573E+02 -0.60829469586E+03  0.64445600774E+03  0.00000000000E+00 0.  1.
        -13    1    3    3    0    0 -0.22027051651E+03 -0.12735394760E+03 -0.47643890604E+03  0.54012235614E+03  0.00000000000E+00 0. -1.
         22    1    1    2    0    0  0.40819781661E+03  0.22727611117E+03  0.42684944740E+03  0.63283515937E+03  0.00000000000E+00 0. -1.
<mgrwt>
<rscale>  0 0.16941607E+04</rscale>
<asrwt>0</asrwt>
<pdfrwt beam="1">  1        2 0.19040751E+00 0.16941607E+04</pdfrwt>
<pdfrwt beam="2">  1       -2 0.89194568E-01 0.16941607E+04</pdfrwt>
<totfact> 0.18478860E+01</totfact>
</mgrwt>
</event>
<event>
 6    1  0.5040916E-004  0.1583419E+04  0.7818608E-02  0.8830800E-01
         -2   -1    0    0    0  501 -0.00000000000E+00  0.00000000000E+00  0.35012260718E+03  0.35012260718E+03  0.00000000000E+00 0. -1.
          2   -1    0    0  501    0  0.00000000000E+00 -0.00000000000E+00 -0.17902409507E+04  0.17902409507E+04  0.00000000000E+00 0.  1.
         23    2    1    2    0    0 -0.42666863099E+03  0.42791776229E+02 -0.16179124942E+04  0.16761566894E+04  0.89348483752E+02 0.  0.
         13    1    3    3    0    0 -0.16619552101E+03  0.54414119677E+02 -0.56517888891E+03  0.59161560501E+03  0.00000000000E+00 0.  1.
        -13    1    3    3    0    0 -0.26047310998E+03 -0.11622343447E+02 -0.10527336053E+04  0.10845410843E+04  0.00000000000E+00 0. -1.
         22    1    1    2    0    0  0.42666863099E+03 -0.42791776229E+02  0.17779415068E+03  0.46420686854E+03  0.00000000000E+00 0. -1.
<mgrwt>
<rscale>  0 0.15834189E+04</rscale>
<asrwt>0</asrwt>
<pdfrwt beam="1">  1        2 0.27542169E+00 0.15834189E+04</pdfrwt>
<pdfrwt beam="2">  1       -2 0.53865016E-01 0.15834189E+04</pdfrwt>
<totfact> 0.27233733E+01</totfact>
</mgrwt>
</event>
<event>
 6    1  0.5040916E-004  0.1099395E+04  0.7818608E-02  0.9205781E-01
         -2   -1    0    0    0  501 -0.00000000000E+00  0.00000000000E+00  0.31920494366E+03  0.31920494366E+03  0.00000000000E+00 0. -1.
          2   -1    0    0  501    0  0.00000000000E+00 -0.00000000000E+00 -0.94662563036E+03  0.94662563036E+03  0.00000000000E+00 0.  1.
         23    2    1    2    0    0  0.44681051085E+03  0.28235255886E+03 -0.15588246519E+03  0.55751504091E+03  0.84623151588E+02 0.  0.
         13    1    3    3    0    0  0.19428104897E+03  0.74614719398E+02 -0.53849474028E+02  0.21497034259E+03  0.00000000000E+00 0.  1.
        -13    1    3    3    0    0  0.25252946189E+03  0.20773783946E+03 -0.10203299116E+03  0.34254469833E+03  0.00000000000E+00 0. -1.
         22    1    1    2    0    0 -0.44681051085E+03 -0.28235255886E+03 -0.47153822150E+03  0.70831553311E+03  0.00000000000E+00 0. -1.
<mgrwt>
<rscale>  0 0.10993954E+04</rscale>
<asrwt>0</asrwt>
<pdfrwt beam="1">  1        2 0.14563471E+00 0.10993954E+04</pdfrwt>
<pdfrwt beam="2">  1       -2 0.49108453E-01 0.10993954E+04</pdfrwt>
<totfact> 0.10634862E+02</totfact>
</mgrwt>
</event>
<event>
 6    1  0.5040916E-004  0.1366496E+04  0.7818608E-02  0.8978434E-01
         -3   -1    0    0    0  501 -0.00000000000E+00  0.00000000000E+00  0.30137099673E+03  0.30137099673E+03  0.00000000000E+00 0.  1.
          3   -1    0    0  501    0  0.00000000000E+00 -0.00000000000E+00 -0.15490134751E+04  0.15490134751E+04  0.00000000000E+00 0. -1.
         23    2    1    2    0    0 -0.61097284800E+02 -0.27405941698E+03 -0.14655096123E+04  0.14949867646E+04  0.91790851232E+02 0.  0.
         11    1    3    3    0    0 -0.70709657159E+02 -0.25155418150E+03 -0.11878711053E+04  0.12162718137E+04  0.00000000000E+00 0.  1.
        -11    1    3    3    0    0  0.96123723583E+01 -0.22505235483E+02 -0.27763850695E+03  0.27871495092E+03  0.00000000000E+00 0. -1.
         22    1    1    2    0    0  0.61097284800E+02  0.27405941698E+03  0.21786713394E+03  0.35539770722E+03  0.00000000000E+00 0.  1.
<mgrwt>
<rscale>  0 0.13664959E+04</rscale>
<asrwt>0</asrwt>
<pdfrwt beam="1">  1        3 0.23830977E+00 0.13664959E+04</pdfrwt>
<pdfrwt beam="2">  1       -3 0.46364768E-01 0.13664959E+04</pdfrwt>
<totfact> 0.10239819E+00</totfact>
</mgrwt>
</event>
<event>
 6    1  0.5040916E-004  0.4961350E+04  0.7818608E-02  0.7834497E-01
          2   -1    0    0  501    0  0.00000000000E+00  0.00000000000E+00  0.25716869268E+04  0.25716869268E+04  0.00000000000E+00 0.  1.
         -2   -1    0    0    0  501 -0.00000000000E+00 -0.00000000000E+00 -0.23928836862E+04  0.23928836862E+04  0.00000000000E+00 0. -1.
         23    2    1    2    0    0 -0.93498883818E+03 -0.11092776627E+04  0.21019151671E+04  0.25556163706E+04  0.91796532453E+02 0.  0.
         13    1    3    3    0    0 -0.46476877735E+03 -0.56091944236E+03  0.97538494145E+03  0.12173809680E+04  0.00000000000E+00 0.  1.
        -13    1    3    3    0    0 -0.47022006082E+03 -0.54835822031E+03  0.11265302257E+04  0.13382354026E+04  0.00000000000E+00 0. -1.
         22    1    1    2    0    0  0.93498883818E+03  0.11092776627E+04 -0.19231119265E+04  0.24089542425E+04  0.00000000000E+00 0. -1.
<mgrwt>
<rscale>  0 0.49613497E+04</rscale>
<asrwt>0</asrwt>
<pdfrwt beam="1">  1        2 0.39564414E+00 0.49613497E+04</pdfrwt>
<pdfrwt beam="2">  1       -2 0.36813595E+00 0.49613497E+04</pdfrwt>
<totfact> 0.27558712E-02</totfact>
</mgrwt>
</event>
<event>
 6    1  0.5040916E-004  0.1173530E+04  0.7818608E-02  0.9136346E-01
         -2   -1    0    0    0  501 -0.00000000000E+00  0.00000000000E+00  0.12867448275E+03  0.12867448275E+03  0.00000000000E+00 0. -1.
          2   -1    0    0  501    0  0.00000000000E+00 -0.00000000000E+00 -0.26756926431E+04  0.26756926431E+04  0.00000000000E+00 0.  1.
         23    2    1    2    0    0 -0.11199029505E+03  0.49113440531E+03 -0.57946992551E+03  0.77335730640E+03  0.92419145933E+02 0.  0.
         13    1    3    3    0    0 -0.33861250840E+02  0.16231429209E+03 -0.25947961699E+03  0.30793211161E+03  0.00000000000E+00 0. -1.
        -13    1    3    3    0    0 -0.78129044211E+02  0.32882011322E+03 -0.31999030852E+03  0.46542519480E+03  0.00000000000E+00 0.  1.
         22    1    1    2    0    0  0.11199029505E+03 -0.49113440531E+03 -0.19675482348E+04  0.20310098194E+04  0.00000000000E+00 0.  1.
<mgrwt>
<rscale>  0 0.11735303E+04</rscale>
<asrwt>0</asrwt>
<pdfrwt beam="1">  1        2 0.41164498E+00 0.11735303E+04</pdfrwt>
<pdfrwt beam="2">  1       -2 0.19796076E-01 0.11735303E+04</pdfrwt>
<totfact> 0.59629881E+01</totfact>
</mgrwt>
</event>
<event>
 6    1  0.5040916E-004  0.3050610E+04  0.7818608E-02  0.8229425E-01
         -2   -1    0    0    0  501 -0.00000000000E+00  0.00000000000E+00  0.13512906780E+04  0.13512906780E+04  0.00000000000E+00 0. -1.
          2   -1    0    0  501    0  0.00000000000E+00 -0.00000000000E+00 -0.17217279709E+04  0.17217279709E+04  0.00000000000E+00 0.  1.
         23    2    1    2    0    0 -0.24996209890E+03  0.10877133160E+04 -0.12302918917E+04  0.16641356730E+04  0.10063841423E+03 0.  0.
         13    1    3    3    0    0 -0.15530878015E+03  0.46860401781E+03 -0.51490331878E+03  0.71332739355E+03  0.00000000000E+00 0.  1.
        -13    1    3    3    0    0 -0.94653318748E+02  0.61910929823E+03 -0.71538857296E+03  0.95080827943E+03  0.00000000000E+00 0. -1.
         22    1    1    2    0    0  0.24996209890E+03 -0.10877133160E+04  0.85985459876E+03  0.14088829759E+04  0.00000000000E+00 0. -1.
<mgrwt>
<rscale>  0 0.30506097E+04</rscale>
<asrwt>0</asrwt>
<pdfrwt beam="1">  1        2 0.26488123E+00 0.30506097E+04</pdfrwt>
<pdfrwt beam="2">  1       -2 0.20789087E+00 0.30506097E+04</pdfrwt>
<totfact> 0.96073758E-01</totfact>
</mgrwt>
</event>
<event>
 6    1  0.5457456E-004  0.3472229E+04  0.7818608E-02  0.8120403E-01
          2   -1    0    0  501    0  0.00000000000E+00  0.00000000000E+00  0.18304410303E+04  0.18304410303E+04  0.00000000000E+00 0.  1.
         -2   -1    0    0    0  501 -0.00000000000E+00 -0.00000000000E+00 -0.16466485499E+04  0.16466485499E+04  0.00000000000E+00 0. -1.
         23    2    1    2    0    0 -0.72427960923E+03 -0.12086283922E+04  0.11054891846E+04  0.17933769095E+04  0.93439068068E+02 0.  0.
         11    1    3    3    0    0 -0.18473924932E+03 -0.23567533723E+03  0.24460445827E+03  0.38665591399E+03  0.00000000000E+00 0. -1.
        -11    1    3    3    0    0 -0.53954035992E+03 -0.97295305501E+03  0.86088472629E+03  0.14067209955E+04  0.00000000000E+00 0.  1.
         22    1    1    2    0    0  0.72427960923E+03  0.12086283922E+04 -0.92169670417E+03  0.16837126707E+04  0.00000000000E+00 0. -1.
<mgrwt>
<rscale>  0 0.34722287E+04</rscale>
<asrwt>0</asrwt>
<pdfrwt beam="1">  1        2 0.28160631E+00 0.34722287E+04</pdfrwt>
<pdfrwt beam="2">  1       -2 0.25333055E+00 0.34722287E+04</pdfrwt>
<totfact> 0.41903272E-01</totfact>
</mgrwt>
</event>
<event>
 6    1  0.5040916E-004  0.1716336E+04  0.7818608E-02  0.8752102E-01
         -2   -1    0    0    0  501 -0.00000000000E+00  0.00000000000E+00  0.11511854092E+04  0.11511854092E+04  0.00000000000E+00 0. -1.
          2   -1    0    0  501    0  0.00000000000E+00 -0.00000000000E+00 -0.63973365415E+03  0.63973365415E+03  0.00000000000E+00 0.  1.
         23    2    1    2    0    0 -0.58972421644E+03 -0.26412416437E+03  0.84206041098E+03  0.10650827808E+04  0.88314033524E+02 0.  0.
         11    1    3    3    0    0 -0.37946379886E+03 -0.16046920637E+03  0.46672593295E+03  0.62255621218E+03  0.00000000000E+00 0.  1.
        -11    1    3    3    0    0 -0.21026041759E+03 -0.10365495800E+03  0.37533447803E+03  0.44252656860E+03  0.00000000000E+00 0. -1.
         22    1    1    2    0    0  0.58972421644E+03  0.26412416437E+03 -0.33060865595E+03  0.72583628254E+03  0.00000000000E+00 0.  1.
<mgrwt>
<rscale>  0 0.17163357E+04</rscale>
<asrwt>0</asrwt>
<pdfrwt beam="1">  1        2 0.98420562E-01 0.17163357E+04</pdfrwt>
<pdfrwt beam="2">  1       -2 0.17710545E+00 0.17163357E+04</pdfrwt>
<totfact> 0.82696028E+00</totfact>
</mgrwt>
</event>
<event>
 6    1  0.5040916E-004  0.2131269E+04  0.7818608E-02  0.8547593E-01
         -2   -1    0    0    0  501 -0.00000000000E+00  0.00000000000E+00  0.56163360440E+03  0.56163360440E+03  0.00000000000E+00 0. -1.
          2   -1    0    0  501    0  0.00000000000E+00 -0.00000000000E+00 -0.20219175658E+04  0.20219175658E+04  0.00000000000E+00 0.  1.
         23    2    1    2    0    0  0.42559654086E+03 -0.95642002580E+03 -0.50266260617E+03  0.11647804553E+04  0.90399845937E+02 0.  0.
         13    1    3    3    0    0  0.83775831664E+02 -0.28042720678E+03 -0.12314983562E+03  0.31752746383E+03  0.00000000000E+00 0. -1.
        -13    1    3    3    0    0  0.34182070920E+03 -0.67599281902E+03 -0.37951277055E+03  0.84725299150E+03  0.00000000000E+00 0.  1.
         22    1    1    2    0    0 -0.42559654086E+03  0.95642002580E+03 -0.95762135524E+03  0.14187707149E+04  0.00000000000E+00 0.  1.
<mgrwt>
<rscale>  0 0.21312690E+04</rscale>
<asrwt>0</asrwt>
<pdfrwt beam="1">  1        2 0.31106425E+00 0.21312690E+04</pdfrwt>
<pdfrwt beam="2">  1       -2 0.86405169E-01 0.21312690E+04</pdfrwt>
<totfact> 0.69296556E+00</totfact>
</mgrwt>
</event>
<event>
 6    1  0.5040916E-004  0.1480410E+04  0.7818608E-02  0.8897585E-01
         -2   -1    0    0    0  501 -0.00000000000E+00  0.00000000000E+00  0.32583493599E+03  0.32583493599E+03  0.00000000000E+00 0. -1.
          2   -1    0    0  501    0  0.00000000000E+00 -0.00000000000E+00 -0.16815371530E+04  0.16815371530E+04  0.00000000000E+00 0.  1.
         23    2    1    2    0    0  0.21105348979E+03 -0.25830812476E+03 -0.15723783993E+04  0.16096093068E+04  0.84862401401E+02 0.  0.
         13    1    3    3    0    0  0.97031318129E+02 -0.17766835434E+03 -0.84147861366E+03  0.86548678677E+03  0.00000000000E+00 0. -1.
        -13    1    3    3    0    0  0.11402217166E+03 -0.80639770418E+02 -0.73089978563E+03  0.74412252005E+03  0.00000000000E+00 0.  1.
         22    1    1    2    0    0 -0.21105348979E+03  0.25830812476E+03  0.21667618232E+03  0.39776278214E+03  0.00000000000E+00 0. -1.
<mgrwt>
<rscale>  0 0.14804101E+04</rscale>
<asrwt>0</asrwt>
<pdfrwt beam="1">  1        2 0.25869803E+00 0.14804101E+04</pdfrwt>
<pdfrwt beam="2">  1       -2 0.50128451E-01 0.14804101E+04</pdfrwt>
<totfact> 0.36572598E+01</totfact>
</mgrwt>
</event>
<event>
 6    1  0.5040916E-004  0.1404884E+04  0.7818608E-02  0.8950291E-01
          4   -1    0    0  501    0  0.00000000000E+00  0.00000000000E+00  0.21288876865E+03  0.21288876865E+03  0.00000000000E+00 0.  1.
         -4   -1    0    0    0  501 -0.00000000000E+00 -0.00000000000E+00 -0.23177588659E+04  0.23177588659E+04  0.00000000000E+00 0. -1.
         23    2    1    2    0    0 -0.66789933932E+03  0.20260343807E+03 -0.11496028467E+04  0.13475697840E+04  0.84970211932E+02 0.  0.
         11    1    3    3    0    0 -0.49036574296E+03  0.16794837894E+03 -0.78703105226E+03  0.94238160905E+03  0.00000000000E+00 0. -1.
        -11    1    3    3    0    0 -0.17753359636E+03  0.34655059131E+02 -0.36257179448E+03  0.40518817494E+03  0.00000000000E+00 0.  1.
         22    1    1    2    0    0  0.66789933932E+03 -0.20260343807E+03 -0.95526725052E+03  0.11830778506E+04  0.00000000000E+00 0.  1.
<mgrwt>
<rscale>  0 0.14048841E+04</rscale>
<asrwt>0</asrwt>
<pdfrwt beam="1">  1        4 0.32752118E-01 0.14048841E+04</pdfrwt>
<pdfrwt beam="2">  1       -4 0.35657828E+00 0.14048841E+04</pdfrwt>
<totfact> 0.24033461E-01</totfact>
</mgrwt>
</event>
<event>
 6    1  0.5040916E-004  0.1695398E+04  0.7818608E-02  0.8763994E-01
          1   -1    0    0  501    0  0.00000000000E+00  0.00000000000E+00  0.87725985605E+03  0.87725985605E+03  0.00000000000E+00 0. -1.
         -1   -1    0    0    0  501 -0.00000000000E+00 -0.00000000000E+00 -0.81913381663E+03  0.81913381663E+03  0.00000000000E+00 0.  1.
         23    2    1    2    0    0  0.26337843569E+03 -0.74605037471E+03  0.32733661110E+03  0.86067021728E+03  0.87433425855E+02 0.  0.
         11    1    3    3    0    0  0.14968701007E+03 -0.31006113728E+03  0.11922115610E+03  0.36435942955E+03  0.00000000000E+00 0.  1.
        -11    1    3    3    0    0  0.11369142562E+03 -0.43598923743E+03  0.20811545501E+03  0.49631078774E+03  0.00000000000E+00 0. -1.
         22    1    1    2    0    0 -0.26337843569E+03  0.74605037471E+03 -0.26921057169E+03  0.83572345540E+03  0.00000000000E+00 0.  1.
<mgrwt>
<rscale>  0 0.16953976E+04</rscale>
<asrwt>0</asrwt>
<pdfrwt beam="1">  1        1 0.13496306E+00 0.16953976E+04</pdfrwt>
<pdfrwt beam="2">  1       -1 0.12602059E+00 0.16953976E+04</pdfrwt>
<totfact> 0.99216518E+00</totfact>
</mgrwt>
</event>
<event>
 6    1  0.5040916E-004  0.2710491E+04  0.7818608E-02  0.8331609E-01
          2   -1    0    0  501    0  0.00000000000E+00  0.00000000000E+00  0.25554487391E+04  0.25554487391E+04  0.00000000000E+00 0.  1.
         -2   -1    0    0    0  501 -0.00000000000E+00 -0.00000000000E+00 -0.71873491260E+03  0.71873491260E+03  0.00000000000E+00 0. -1.
         23    2    1    2    0    0 -0.96027874836E+02  0.11060155301E+04 -0.16412992243E+02  0.11139589615E+04  0.90241210635E+02 0.  0.
         13    1    3    3    0    0 -0.10534264865E+03  0.81143621426E+03  0.73210782816E+01  0.81827831550E+03  0.00000000000E+00 0. -1.
        -13    1    3    3    0    0  0.93147738157E+01  0.29457931586E+03 -0.23734070525E+02  0.29568064605E+03  0.00000000000E+00 0.  1.
         22    1    1    2    0    0  0.96027874836E+02 -0.11060155301E+04  0.18531268188E+04  0.21602246902E+04  0.00000000000E+00 0.  1.
<mgrwt>
<rscale>  0 0.27104909E+04</rscale>
<asrwt>0</asrwt>
<pdfrwt beam="1">  1        2 0.39314595E+00 0.27104909E+04</pdfrwt>
<pdfrwt beam="2">  1       -2 0.11057460E+00 0.27104909E+04</pdfrwt>
<totfact> 0.18373372E+00</totfact>
</mgrwt>
</event>
<event>
 6    1  0.5757162E-004  0.4739563E+04  0.7818608E-02  0.7869988E-01
          2   -1    0    0  501    0  0.00000000000E+00  0.00000000000E+00  0.25425801655E+04  0.25425801655E+04  0.00000000000E+00 0.  1.
         -2   -1    0    0    0  501 -0.00000000000E+00 -0.00000000000E+00 -0.22087267138E+04  0.22087267138E+04  0.00000000000E+00 0. -1.
         23    2    1    2    0    0 -0.20540856131E+04 -0.11763118810E+04  0.72493302661E+02  0.23698605804E+04  0.89479295007E+02 0.  0.
         11    1    3    3    0    0 -0.10719549724E+04 -0.56349434197E+03  0.27615566370E+02  0.12113529444E+04  0.00000000000E+00 0. -1.
        -11    1    3    3    0    0 -0.98213064069E+03 -0.61281753903E+03  0.44877736291E+02  0.11585076360E+04  0.00000000000E+00 0.  1.
         22    1    1    2    0    0  0.20540856131E+04  0.11763118810E+04  0.26136014903E+03  0.23814462990E+04  0.00000000000E+00 0. -1.
<mgrwt>
<rscale>  0 0.47395632E+04</rscale>
<asrwt>0</asrwt>
<pdfrwt beam="1">  1        2 0.39116618E+00 0.47395632E+04</pdfrwt>
<pdfrwt beam="2">  1       -2 0.33980411E+00 0.47395632E+04</pdfrwt>
<totfact> 0.44066968E-02</totfact>
</mgrwt>
</event>
<event>
 6    1  0.5040916E-004  0.1083163E+04  0.7818608E-02  0.9221759E-01
          2   -1    0    0  501    0  0.00000000000E+00  0.00000000000E+00  0.13932651860E+04  0.13932651860E+04  0.00000000000E+00 0.  1.
         -2   -1    0    0    0  501 -0.00000000000E+00 -0.00000000000E+00 -0.21052031852E+03  0.21052031852E+03  0.00000000000E+00 0. -1.
         23    2    1    2    0    0  0.16716643632E+03 -0.36827103118E+03  0.11205212387E+04  0.11945912355E+04  0.88950569599E+02 0.  0.
         13    1    3    3    0    0  0.11981223389E+02 -0.10678386149E+03  0.35448240438E+03  0.37041074202E+03  0.00000000000E+00 0. -1.
        -13    1    3    3    0    0  0.15518521294E+03 -0.26148716969E+03  0.76603883428E+03  0.82418049349E+03  0.00000000000E+00 0.  1.
         22    1    1    2    0    0 -0.16716643632E+03  0.36827103118E+03  0.62223628861E+02  0.40919426905E+03  0.00000000000E+00 0. -1.
<mgrwt>
<rscale>  0 0.10831632E+04</rscale>
<asrwt>0</asrwt>
<pdfrwt beam="1">  1        2 0.21434848E+00 0.10831632E+04</pdfrwt>
<pdfrwt beam="2">  1       -2 0.32387742E-01 0.10831632E+04</pdfrwt>
<totfact> 0.12871638E+02</totfact>
</mgrwt>
</event>
<event>
 6    1  0.5040916E-004  0.1262522E+04  0.7818608E-02  0.9059825E-01
          2   -1    0    0  501    0  0.00000000000E+00  0.00000000000E+00  0.64632306607E+03  0.64632306607E+03  0.00000000000E+00 0.  1.
         -2   -1    0    0    0  501 -0.00000000000E+00 -0.00000000000E+00 -0.61655017088E+03  0.61655017088E+03  0.00000000000E+00 0. -1.
         23    2    1    2    0    0 -0.14566854151E+03  0.10582425677E+03  0.61688683418E+03  0.64877155591E+03  0.89090225446E+02 0.  0.
         11    1    3    3    0    0 -0.14596880126E+03  0.85402108487E+02  0.45159111445E+03  0.48221877372E+03  0.00000000000E+00 0. -1.
        -11    1    3    3    0    0  0.30025974588E+00  0.20422148288E+02  0.16529571973E+03  0.16655278220E+03  0.00000000000E+00 0.  1.
         22    1    1    2    0    0  0.14566854151E+03 -0.10582425677E+03 -0.58711393899E+03  0.61410168104E+03  0.00000000000E+00 0. -1.
<mgrwt>
<rscale>  0 0.12625222E+04</rscale>
<asrwt>0</asrwt>
<pdfrwt beam="1">  1        2 0.99434318E-01 0.12625222E+04</pdfrwt>
<pdfrwt beam="2">  1       -2 0.94853872E-01 0.12625222E+04</pdfrwt>
<totfact> 0.41633314E+01</totfact>
</mgrwt>
</event>
<event>
 6    1  0.5040916E-004  0.7174688E+03  0.7818608E-02  0.9687816E-01
          2   -1    0    0  501    0  0.00000000000E+00  0.00000000000E+00  0.77126531276E+03  0.77126531276E+03  0.00000000000E+00 0.  1.
         -2   -1    0    0    0  501 -0.00000000000E+00 -0.00000000000E+00 -0.16685617720E+03  0.16685617720E+03  0.00000000000E+00 0. -1.
         23    2    1    2    0    0 -0.61564793761E+02  0.24779108481E+03 -0.10410419215E+02  0.27239351964E+03  0.94335609237E+02 0.  0.
         13    1    3    3    0    0 -0.59965313897E+02  0.62518989535E+02 -0.91504255076E+01  0.87110235967E+02  0.00000000000E+00 0. -1.
        -13    1    3    3    0    0 -0.15994798643E+01  0.18527209528E+03 -0.12599937070E+01  0.18528328367E+03  0.00000000000E+00 0.  1.
         22    1    1    2    0    0  0.61564793761E+02 -0.24779108481E+03  0.61481955477E+03  0.66572797032E+03  0.00000000000E+00 0. -1.
<mgrwt>
<rscale>  0 0.71746883E+03</rscale>
<asrwt>0</asrwt>
<pdfrwt beam="1">  1        2 0.11865620E+00 0.71746883E+03</pdfrwt>
<pdfrwt beam="2">  1       -2 0.25670181E-01 0.71746883E+03</pdfrwt>
<totfact> 0.49678850E+02</totfact>
</mgrwt>
</event>
<event>
 6    1  0.5040916E-004  0.2864810E+04  0.7818608E-02  0.8283425E-01
          2   -1    0    0  501    0  0.00000000000E+00  0.00000000000E+00  0.13716151775E+04  0.13716151775E+04  0.00000000000E+00 0.  1.
         -2   -1    0    0    0  501 -0.00000000000E+00 -0.00000000000E+00 -0.14958885041E+04  0.14958885041E+04  0.00000000000E+00 0. -1.
         23    2    1    2    0    0  0.38459804027E+03  0.10654892473E+04 -0.93733339938E+03  0.14731401456E+04  0.91460363973E+02 0.  0.
         13    1    3    3    0    0  0.44551470484E+02  0.20549714159E+03 -0.20291834718E+03  0.29221527055E+03  0.00000000000E+00 0.  1.
        -13    1    3    3    0    0  0.34004656979E+03  0.85999210574E+03 -0.73441505220E+03  0.11809248750E+04  0.00000000000E+00 0. -1.
         22    1    1    2    0    0 -0.38459804027E+03 -0.10654892473E+04  0.81306007269E+03  0.13943635360E+04  0.00000000000E+00 0. -1.
<mgrwt>
<rscale>  0 0.28648095E+04</rscale>
<asrwt>0</asrwt>
<pdfrwt beam="1">  1        2 0.21101772E+00 0.28648095E+04</pdfrwt>
<pdfrwt beam="2">  1       -2 0.23013669E+00 0.28648095E+04</pdfrwt>
<totfact> 0.11096998E+00</totfact>
</mgrwt>
</event>
<event>
 6    1  0.5040916E-004  0.1313841E+04  0.7818608E-02  0.9018660E-01
         -2   -1    0    0    0  501 -0.00000000000E+00  0.00000000000E+00  0.69471207265E+03  0.69471207265E+03  0.00000000000E+00 0. -1.
          2   -1    0    0  501    0  0.00000000000E+00 -0.00000000000E+00 -0.62118488843E+03  0.62118488843E+03  0.00000000000E+00 0.  1.
         23    2    1    2    0    0  0.24605591256E+02 -0.21417582922E+03  0.65508097824E+03  0.69566995725E+03  0.91372208116E+02 0.  0.
         11    1    3    3    0    0  0.31725490515E+02 -0.60509955984E+02  0.31636849559E+03  0.32366183977E+03  0.00000000000E+00 0. -1.
        -11    1    3    3    0    0 -0.71198992589E+01 -0.15366587324E+03  0.33871248265E+03  0.37200811748E+03  0.00000000000E+00 0.  1.
         22    1    1    2    0    0 -0.24605591256E+02  0.21417582922E+03 -0.58155379402E+03  0.62022700384E+03  0.00000000000E+00 0.  1.
<mgrwt>
<rscale>  0 0.13138411E+04</rscale>
<asrwt>0</asrwt>
<pdfrwt beam="1">  1        2 0.95566906E-01 0.13138411E+04</pdfrwt>
<pdfrwt beam="2">  1       -2 0.10687878E+00 0.13138411E+04</pdfrwt>
<totfact> 0.32796863E+01</totfact>
</mgrwt>
</event>
<event>
 6    1  0.5040916E-004  0.2641217E+04  0.7818608E-02  0.8354334E-01
         -2   -1    0    0    0  501 -0.00000000000E+00  0.00000000000E+00  0.57587906111E+03  0.57587906111E+03  0.00000000000E+00 0. -1.
          2   -1    0    0  501    0  0.00000000000E+00 -0.00000000000E+00 -0.30284245301E+04  0.30284245301E+04  0.00000000000E+00 0.  1.
         23    2    1    2    0    0 -0.19688102350E+03 -0.11961344355E+04 -0.51828453868E+03  0.13215716595E+04  0.91831709911E+02 0.  0.
         11    1    3    3    0    0 -0.13945853566E+02 -0.20564737468E+03 -0.11955312095E+03  0.23828193023E+03  0.00000000000E+00 0.  1.
        -11    1    3    3    0    0 -0.18293516994E+03 -0.99048706087E+03 -0.39873141773E+03  0.10832897293E+04  0.00000000000E+00 0. -1.
         22    1    1    2    0    0  0.19688102350E+03  0.11961344355E+04 -0.19342609303E+04  0.22827319316E+04  0.00000000000E+00 0.  1.
<mgrwt>
<rscale>  0 0.26412166E+04</rscale>
<asrwt>0</asrwt>
<pdfrwt beam="1">  1        2 0.46591146E+00 0.26412166E+04</pdfrwt>
<pdfrwt beam="2">  1       -2 0.88596780E-01 0.26412166E+04</pdfrwt>
<totfact> 0.16138706E+00</totfact>
</mgrwt>
</event>
<event>
 6    1  0.5040916E-004  0.2163076E+04  0.7818608E-02  0.8533956E-01
         -2   -1    0    0    0  501 -0.00000000000E+00  0.00000000000E+00  0.78098604099E+03  0.78098604099E+03  0.00000000000E+00 0. -1.
          2   -1    0    0  501    0  0.00000000000E+00 -0.00000000000E+00 -0.14977527003E+04  0.14977527003E+04  0.00000000000E+00 0.  1.
         23    2    1    2    0    0 -0.52570663227E+03 -0.12056536473E+03  0.62640882867E+03  0.83131901575E+03  0.88316560912E+02 0.  0.
         13    1    3    3    0    0 -0.18307982760E+03 -0.34584623511E+02  0.15575376193E+03  0.24284471132E+03  0.00000000000E+00 0. -1.
        -13    1    3    3    0    0 -0.34262680467E+03 -0.85980741215E+02  0.47065506674E+03  0.58847430444E+03  0.00000000000E+00 0.  1.
         22    1    1    2    0    0  0.52570663227E+03  0.12056536473E+03 -0.13431754880E+04  0.14474197256E+04  0.00000000000E+00 0.  1.
<mgrwt>
<rscale>  0 0.21630755E+04</rscale>
<asrwt>0</asrwt>
<pdfrwt beam="1">  1        2 0.23042349E+00 0.21630755E+04</pdfrwt>
<pdfrwt beam="2">  1       -2 0.12015170E+00 0.21630755E+04</pdfrwt>
<totfact> 0.61794041E+00</totfact>
</mgrwt>
</event>
<event>
 6    1  0.5040916E-004  0.1521861E+04  0.7818608E-02  0.8870045E-01
          2   -1    0    0  501    0  0.00000000000E+00  0.00000000000E+00  0.16510797020E+04  0.16510797020E+04  0.00000000000E+00 0.  1.
         -2   -1    0    0    0  501 -0.00000000000E+00 -0.00000000000E+00 -0.35068862428E+03  0.35068862428E+03  0.00000000000E+00 0. -1.
         23    2    1    2    0    0 -0.61846086222E+03 -0.55768516350E+01  0.12286771484E+04  0.13791385590E+04  0.99250645107E+02 0.  0.
         13    1    3    3    0    0 -0.57600210533E+03 -0.51241940930E+01  0.10737807719E+04  0.12185277300E+04  0.00000000000E+00 0.  1.
        -13    1    3    3    0    0 -0.42458756898E+02 -0.45265754199E+00  0.15489637652E+03  0.16061082901E+03  0.00000000000E+00 0. -1.
         22    1    1    2    0    0  0.61846086222E+03  0.55768516350E+01  0.71713929263E+02  0.62262976722E+03  0.00000000000E+00 0. -1.
<mgrwt>
<rscale>  0 0.15218605E+04</rscale>
<asrwt>0</asrwt>
<pdfrwt beam="1">  1        2 0.25401226E+00 0.15218605E+04</pdfrwt>
<pdfrwt beam="2">  1       -2 0.53952097E-01 0.15218605E+04</pdfrwt>
<totfact> 0.32588166E+01</totfact>
</mgrwt>
</event>
<event>
 6    1  0.5040916E-004  0.7449438E+03  0.7818608E-02  0.9643316E-01
         -2   -1    0    0    0  501 -0.00000000000E+00  0.00000000000E+00  0.28233391699E+03  0.28233391699E+03  0.00000000000E+00 0. -1.
          2   -1    0    0  501    0  0.00000000000E+00 -0.00000000000E+00 -0.49138739755E+03  0.49138739755E+03  0.00000000000E+00 0.  1.
         23    2    1    2    0    0  0.10026479818E+03 -0.15953027399E+03  0.22258121386E+03  0.30275268767E+03  0.81325611319E+02 0.  0.
         11    1    3    3    0    0  0.90457565825E+02 -0.68440578504E+02  0.12934712567E+03  0.17203884131E+03  0.00000000000E+00 0.  1.
        -11    1    3    3    0    0  0.98072323578E+01 -0.91089695482E+02  0.93234088194E+02  0.13071384636E+03  0.00000000000E+00 0. -1.
         22    1    1    2    0    0 -0.10026479818E+03  0.15953027399E+03 -0.43163469442E+03  0.47096862687E+03  0.00000000000E+00 0.  1.
<mgrwt>
<rscale>  0 0.74494383E+03</rscale>
<asrwt>0</asrwt>
<pdfrwt beam="1">  1        2 0.75598061E-01 0.74494383E+03</pdfrwt>
<pdfrwt beam="2">  1       -2 0.43435987E-01 0.74494383E+03</pdfrwt>
<totfact> 0.31827128E+02</totfact>
</mgrwt>
</event>
<event>
 6    1  0.5040916E-004  0.2052613E+04  0.7818608E-02  0.8582410E-01
         -2   -1    0    0    0  501 -0.00000000000E+00  0.00000000000E+00  0.50105837820E+03  0.50105837820E+03  0.00000000000E+00 0. -1.
          2   -1    0    0  501    0  0.00000000000E+00 -0.00000000000E+00 -0.21021598883E+04  0.21021598883E+04  0.00000000000E+00 0.  1.
         23    2    1    2    0    0 -0.94539128389E+03  0.31890996553E+03 -0.50710208561E+03  0.11225755052E+04  0.86919467800E+02 0.  0.
         11    1    3    3    0    0 -0.12359025328E+03  0.58401929386E+02 -0.98864874355E+02  0.16869973160E+03  0.00000000000E+00 0. -1.
        -11    1    3    3    0    0 -0.82180103061E+03  0.26050803614E+03 -0.40823721125E+03  0.95387577360E+03  0.00000000000E+00 0.  1.
         22    1    1    2    0    0  0.94539128389E+03 -0.31890996553E+03 -0.10939994245E+04  0.14806427613E+04  0.00000000000E+00 0. -1.
<mgrwt>
<rscale>  0 0.20526128E+04</rscale>
<asrwt>0</asrwt>
<pdfrwt beam="1">  1        2 0.32340921E+00 0.20526128E+04</pdfrwt>
<pdfrwt beam="2">  1       -2 0.77085905E-01 0.20526128E+04</pdfrwt>
<totfact> 0.81424695E+00</totfact>
</mgrwt>
</event>
<event>
 6    1  0.5040916E-004  0.1398237E+04  0.7818608E-02  0.8955096E-01
         -2   -1    0    0    0  501 -0.00000000000E+00  0.00000000000E+00  0.37472344807E+03  0.37472344807E+03  0.00000000000E+00 0. -1.
          2   -1    0    0  501    0  0.00000000000E+00 -0.00000000000E+00 -0.13043397428E+04  0.13043397428E+04  0.00000000000E+00 0.  1.
         23    2    1    2    0    0  0.58211125230E+03  0.25994353678E+03 -0.13084863003E+03  0.65707790011E+03  0.90586149383E+02 0.  0.
         13    1    3    3    0    0  0.35677704255E+03  0.20381477977E+03 -0.67743535309E+02  0.41643668080E+03  0.00000000000E+00 0. -1.
        -13    1    3    3    0    0  0.22533420975E+03  0.56128757009E+02 -0.63105094721E+02  0.24064121930E+03  0.00000000000E+00 0.  1.
         22    1    1    2    0    0 -0.58211125230E+03 -0.25994353678E+03 -0.79876766467E+03  0.10219852907E+04  0.00000000000E+00 0. -1.
<mgrwt>
<rscale>  0 0.13982370E+04</rscale>
<asrwt>0</asrwt>
<pdfrwt beam="1">  1        2 0.20066765E+00 0.13982370E+04</pdfrwt>
<pdfrwt beam="2">  1       -2 0.57649761E-01 0.13982370E+04</pdfrwt>
<totfact> 0.45073530E+01</totfact>
</mgrwt>
</event>
<event>
 6    1  0.5211101E-004  0.4367174E+04  0.7818608E-02  0.7934312E-01
         -2   -1    0    0    0  501 -0.00000000000E+00  0.00000000000E+00  0.17285634595E+04  0.17285634595E+04  0.00000000000E+00 0. -1.
          2   -1    0    0  501    0  0.00000000000E+00 -0.00000000000E+00 -0.27583905993E+04  0.27583905993E+04  0.00000000000E+00 0.  1.
         23    2    1    2    0    0 -0.13935816677E+03  0.11849027287E+04  0.13626036701E+04  0.18135404442E+04  0.93941501923E+02 0.  0.
         11    1    3    3    0    0 -0.14870260786E+03  0.97856117972E+03  0.11090012531E+04  0.14864650105E+04  0.00000000000E+00 0. -1.
        -11    1    3    3    0    0  0.93444410932E+01  0.20634154902E+03  0.25360241700E+03  0.32707543371E+03  0.00000000000E+00 0.  1.
         22    1    1    2    0    0  0.13935816677E+03 -0.11849027287E+04 -0.23924308098E+04  0.26734136147E+04  0.00000000000E+00 0. -1.
<mgrwt>
<rscale>  0 0.43671745E+04</rscale>
<asrwt>0</asrwt>
<pdfrwt beam="1">  1        2 0.42436778E+00 0.43671745E+04</pdfrwt>
<pdfrwt beam="2">  1       -2 0.26593284E+00 0.43671745E+04</pdfrwt>
<totfact> 0.96285325E-02</totfact>
</mgrwt>
</event>
<event>
 6    1  0.5040916E-004  0.2521572E+04  0.7818608E-02  0.8395341E-01
         -2   -1    0    0    0  501 -0.00000000000E+00  0.00000000000E+00  0.70277716547E+03  0.70277716547E+03  0.00000000000E+00 0. -1.
          2   -1    0    0  501    0  0.00000000000E+00 -0.00000000000E+00 -0.22618561007E+04  0.22618561007E+04  0.00000000000E+00 0.  1.
         23    2    1    2    0    0 -0.49639604395E+03  0.10126031149E+04 -0.14390622010E+04  0.18305353351E+04  0.90473719707E+02 0.  0.
         13    1    3    3    0    0 -0.32641551087E+03  0.64305601975E+03 -0.98728384956E+03  0.12226191271E+04  0.00000000000E+00 0. -1.
        -13    1    3    3    0    0 -0.16998053308E+03  0.36954709516E+03 -0.45177835145E+03  0.60791620805E+03  0.00000000000E+00 0.  1.
         22    1    1    2    0    0  0.49639604395E+03 -0.10126031149E+04 -0.12001673424E+03  0.11340979311E+04  0.00000000000E+00 0. -1.
<mgrwt>
<rscale>  0 0.25215716E+04</rscale>
<asrwt>0</asrwt>
<pdfrwt beam="1">  1        2 0.34797786E+00 0.25215716E+04</pdfrwt>
<pdfrwt beam="2">  1       -2 0.10811956E+00 0.25215716E+04</pdfrwt>
<totfact> 0.29055931E+00</totfact>
</mgrwt>
</event>
<event>
 6    1  0.5040916E-004  0.3396969E+04  0.7818608E-02  0.8138651E-01
          2   -1    0    0  501    0  0.00000000000E+00  0.00000000000E+00  0.18208800577E+04  0.18208800577E+04  0.00000000000E+00 0.  1.
         -2   -1    0    0    0  501 -0.00000000000E+00 -0.00000000000E+00 -0.15843161073E+04  0.15843161073E+04  0.00000000000E+00 0. -1.
         23    2    1    2    0    0  0.95682918454E+03  0.46128021759E+03  0.14453312425E+04  0.17960287113E+04  0.91843366292E+02 0.  0.
         11    1    3    3    0    0  0.65427525588E+03  0.32001625125E+03  0.10605637567E+04  0.12865776282E+04  0.00000000000E+00 0. -1.
        -11    1    3    3    0    0  0.30255392866E+03  0.14126396635E+03  0.38476748580E+03  0.50945108309E+03  0.00000000000E+00 0.  1.
         22    1    1    2    0    0 -0.95682918454E+03 -0.46128021759E+03 -0.12087672920E+04  0.16091674536E+04  0.00000000000E+00 0. -1.
<mgrwt>
<rscale>  0 0.33969690E+04</rscale>
<asrwt>0</asrwt>
<pdfrwt beam="1">  1        2 0.28013539E+00 0.33969690E+04</pdfrwt>
<pdfrwt beam="2">  1       -2 0.24374094E+00 0.33969690E+04</pdfrwt>
<totfact> 0.48897521E-01</totfact>
</mgrwt>
</event>
<event>
 6    1  0.5040916E-004  0.5069692E+03  0.7818608E-02  0.1011976E+00
         -2   -1    0    0    0  501 -0.00000000000E+00  0.00000000000E+00  0.26210801025E+02  0.26210801025E+02  0.00000000000E+00 0. -1.
          2   -1    0    0  501    0  0.00000000000E+00 -0.00000000000E+00 -0.24514491766E+04  0.24514491766E+04  0.00000000000E+00 0.  1.
         23    2    1    2    0    0  0.10333454197E+02  0.19657789999E+03 -0.19717130402E+04  0.19832564169E+04  0.83090620332E+02 0.  0.
         13    1    3    3    0    0  0.24881861443E+02  0.15206024049E+02 -0.18246796170E+03  0.18478335218E+03  0.00000000000E+00 0. -1.
        -13    1    3    3    0    0 -0.14548407246E+02  0.18137187594E+03 -0.17892450785E+04  0.17984730647E+04  0.00000000000E+00 0.  1.
         22    1    1    2    0    0 -0.10333454197E+02 -0.19657789999E+03 -0.45352533535E+03  0.49440356071E+03  0.00000000000E+00 0. -1.
<mgrwt>
<rscale>  0 0.50696922E+03</rscale>
<asrwt>0</asrwt>
<pdfrwt beam="1">  1        2 0.37714590E+00 0.50696922E+03</pdfrwt>
<pdfrwt beam="2">  1       -2 0.40324323E-02 0.50696922E+03</pdfrwt>
<totfact> 0.11286227E+03</totfact>
</mgrwt>
</event>
<event>
 6    1  0.5040916E-004  0.3490482E+04  0.7818608E-02  0.8116049E-01
         -2   -1    0    0    0  501 -0.00000000000E+00  0.00000000000E+00  0.20627398973E+04  0.20627398973E+04  0.00000000000E+00 0. -1.
          2   -1    0    0  501    0  0.00000000000E+00 -0.00000000000E+00 -0.14766116847E+04  0.14766116847E+04  0.00000000000E+00 0.  1.
         23    2    1    2    0    0 -0.12697103926E+04 -0.17525611020E+03 -0.90670130529E+03  0.15717593594E+04  0.73763415529E+02 0.  0.
         11    1    3    3    0    0 -0.96833726046E+03 -0.10207475126E+03 -0.69268432512E+03  0.11949509944E+04  0.00000000000E+00 0. -1.
        -11    1    3    3    0    0 -0.30137313217E+03 -0.73181358938E+02 -0.21401698018E+03  0.37680836495E+03  0.00000000000E+00 0.  1.
         22    1    1    2    0    0  0.12697103926E+04  0.17525611020E+03  0.14928295179E+04  0.19675922227E+04  0.00000000000E+00 0. -1.
<mgrwt>
<rscale>  0 0.34904818E+04</rscale>
<asrwt>0</asrwt>
<pdfrwt beam="1">  1        2 0.22717103E+00 0.34904818E+04</pdfrwt>
<pdfrwt beam="2">  1       -2 0.31734460E+00 0.34904818E+04</pdfrwt>
<totfact> 0.26754645E-01</totfact>
</mgrwt>
</event>
<event>
 6    1  0.5163256E-004  0.2276920E+04  0.7818608E-02  0.8487077E-01
          2   -1    0    0  501    0  0.00000000000E+00  0.00000000000E+00  0.85741414823E+03  0.85741414823E+03  0.00000000000E+00 0.  1.
         -2   -1    0    0    0  501 -0.00000000000E+00 -0.00000000000E+00 -0.15116285461E+04  0.15116285461E+04  0.00000000000E+00 0. -1.
         23    2    1    2    0    0  0.82650263337E+02  0.51211242396E+03 -0.13799014805E+04  0.14770158210E+04  0.91419029044E+02 0.  0.
         13    1    3    3    0    0  0.90111706977E+02  0.29746543481E+03 -0.76769420003E+03  0.82822713636E+03  0.00000000000E+00 0. -1.
        -13    1    3    3    0    0 -0.74614436405E+01  0.21464698915E+03 -0.61220728044E+03  0.64878868464E+03  0.00000000000E+00 0.  1.
         22    1    1    2    0    0 -0.82650263337E+02 -0.51211242396E+03  0.72568708263E+03  0.89202687331E+03  0.00000000000E+00 0.  1.
<mgrwt>
<rscale>  0 0.22769205E+04</rscale>
<asrwt>0</asrwt>
<pdfrwt beam="1">  1        2 0.13190987E+00 0.22769205E+04</pdfrwt>
<pdfrwt beam="2">  1       -2 0.23255824E+00 0.22769205E+04</pdfrwt>
<totfact> 0.23469211E+00</totfact>
</mgrwt>
</event>
<event>
 6    1  0.5040916E-004  0.1701986E+04  0.7818608E-02  0.8760232E-01
         -2   -1    0    0    0  501 -0.00000000000E+00  0.00000000000E+00  0.99356210705E+03  0.99356210705E+03  0.00000000000E+00 0. -1.
          2   -1    0    0  501    0  0.00000000000E+00 -0.00000000000E+00 -0.72888154948E+03  0.72888154948E+03  0.00000000000E+00 0.  1.
         23    2    1    2    0    0  0.48254358368E+03  0.44433991838E+03  0.67750787081E+03  0.94738710133E+03  0.90769662008E+02 0.  0.
         13    1    3    3    0    0  0.26608892157E+03  0.19894020108E+03  0.38447738366E+03  0.50813716291E+03  0.00000000000E+00 0.  1.
        -13    1    3    3    0    0  0.21645466211E+03  0.24539971730E+03  0.29303048715E+03  0.43924993842E+03  0.00000000000E+00 0. -1.
         22    1    1    2    0    0 -0.48254358368E+03 -0.44433991838E+03 -0.41282731324E+03  0.77505655521E+03  0.00000000000E+00 0.  1.
<mgrwt>
<rscale>  0 0.17019860E+04</rscale>
<asrwt>0</asrwt>
<pdfrwt beam="1">  1        2 0.11213562E+00 0.17019860E+04</pdfrwt>
<pdfrwt beam="2">  1       -2 0.15285571E+00 0.17019860E+04</pdfrwt>
<totfact> 0.10543101E+01</totfact>
</mgrwt>
</event>
<event>
 6    1  0.5040916E-004  0.4198219E+04  0.7818608E-02  0.7965711E-01
          2   -1    0    0  501    0  0.00000000000E+00  0.00000000000E+00  0.38122464576E+04  0.38122464576E+04  0.00000000000E+00 0.  1.
         -2   -1    0    0    0  501 -0.00000000000E+00 -0.00000000000E+00 -0.11558172105E+04  0.11558172105E+04  0.00000000000E+00 0. -1.
         23    2    1    2    0    0 -0.23417882568E+03  0.70251010472E+03  0.36517818925E+04  0.37274641927E+04  0.10058900315E+03 0.  0.
         13    1    3    3    0    0 -0.23485970164E+03  0.68859439466E+03  0.36248498191E+04  0.36971418056E+04  0.00000000000E+00 0. -1.
        -13    1    3    3    0    0  0.68087596951E+00  0.13915710064E+02  0.26932073434E+02  0.30322387078E+02  0.00000000000E+00 0.  1.
         22    1    1    2    0    0  0.23417882568E+03 -0.70251010472E+03 -0.99535264541E+03  0.12405994754E+04  0.00000000000E+00 0. -1.
<mgrwt>
<rscale>  0 0.41982187E+04</rscale>
<asrwt>0</asrwt>
<pdfrwt beam="1">  1        2 0.58649945E+00 0.41982187E+04</pdfrwt>
<pdfrwt beam="2">  1       -2 0.17781803E+00 0.41982187E+04</pdfrwt>
<totfact> 0.69858090E-02</totfact>
</mgrwt>
</event>
<event>
 6    1  0.5040916E-004  0.2432547E+04  0.7818608E-02  0.8427418E-01
          2   -1    0    0  501    0  0.00000000000E+00  0.00000000000E+00  0.10282453289E+04  0.10282453289E+04  0.00000000000E+00 0. -1.
         -2   -1    0    0    0  501 -0.00000000000E+00 -0.00000000000E+00 -0.14386854140E+04  0.14386854140E+04  0.00000000000E+00 0.  1.
         23    2    1    2    0    0 -0.68435084203E+03  0.57511066535E+03  0.62868948468E+03  0.10962088108E+04  0.85644242428E+02 0.  0.
         13    1    3    3    0    0 -0.63306899647E+03  0.55766725296E+03  0.58543042765E+03  0.10268874841E+04  0.00000000000E+00 0. -1.
        -13    1    3    3    0    0 -0.51281845552E+02  0.17443412389E+02  0.43259057030E+02  0.69321326691E+02  0.00000000000E+00 0.  1.
         22    1    1    2    0    0  0.68435084203E+03 -0.57511066535E+03 -0.10391295698E+04  0.13707219321E+04  0.00000000000E+00 0.  1.
<mgrwt>
<rscale>  0 0.24325473E+04</rscale>
<asrwt>0</asrwt>
<pdfrwt beam="1">  1        2 0.15819159E+00 0.24325473E+04</pdfrwt>
<pdfrwt beam="2">  1       -2 0.22133622E+00 0.24325473E+04</pdfrwt>
<totfact> 0.21000215E+00</totfact>
</mgrwt>
</event>
<event>
 6    1  0.5040916E-004  0.1408021E+04  0.7818608E-02  0.8948033E-01
          1   -1    0    0  501    0  0.00000000000E+00  0.00000000000E+00  0.19620266871E+04  0.19620266871E+04  0.00000000000E+00 0.  1.
         -1   -1    0    0    0  501 -0.00000000000E+00 -0.00000000000E+00 -0.25261167563E+03  0.25261167563E+03  0.00000000000E+00 0. -1.
         23    2    1    2    0    0  0.73564214571E+02  0.51386580797E+03  0.11708071910E+03  0.53982545948E+03  0.90740672561E+02 0.  0.
         13    1    3    3    0    0 -0.69617782056E+01  0.26335398634E+03  0.48141445016E+02  0.26780848979E+03  0.00000000000E+00 0.  1.
        -13    1    3    3    0    0  0.80525992776E+02  0.25051182163E+03  0.68939274088E+02  0.27201696969E+03  0.00000000000E+00 0. -1.
         22    1    1    2    0    0 -0.73564214571E+02 -0.51386580797E+03  0.15923342923E+04  0.16748129032E+04  0.00000000000E+00 0.  1.
<mgrwt>
<rscale>  0 0.14080211E+04</rscale>
<asrwt>0</asrwt>
<pdfrwt beam="1">  1        1 0.30185025E+00 0.14080211E+04</pdfrwt>
<pdfrwt beam="2">  1       -1 0.38863336E-01 0.14080211E+04</pdfrwt>
<totfact> 0.19799840E+01</totfact>
</mgrwt>
</event>
<event>
 6    1  0.5040916E-004  0.2871679E+04  0.7818608E-02  0.8281354E-01
         -2   -1    0    0    0  501 -0.00000000000E+00  0.00000000000E+00  0.12020770957E+04  0.12020770957E+04  0.00000000000E+00 0. -1.
          2   -1    0    0  501    0  0.00000000000E+00 -0.00000000000E+00 -0.17150611424E+04  0.17150611424E+04  0.00000000000E+00 0.  1.
         23    2    1    2    0    0  0.93964111638E+03 -0.92505107650E+03  0.31697054771E+03  0.13591043647E+04  0.89718584635E+02 0.  0.
         13    1    3    3    0    0  0.36393542028E+03 -0.34319550937E+03  0.77012303733E+02  0.50612552071E+03  0.00000000000E+00 0. -1.
        -13    1    3    3    0    0  0.57570569610E+03 -0.58185556713E+03  0.23995824397E+03  0.85297884403E+03  0.00000000000E+00 0.  1.
         22    1    1    2    0    0 -0.93964111638E+03  0.92505107650E+03 -0.82995459446E+03  0.15580338734E+04  0.00000000000E+00 0.  1.
<mgrwt>
<rscale>  0 0.28716795E+04</rscale>
<asrwt>0</asrwt>
<pdfrwt beam="1">  1        2 0.26385556E+00 0.28716795E+04</pdfrwt>
<pdfrwt beam="2">  1       -2 0.18493494E+00 0.28716795E+04</pdfrwt>
<totfact> 0.13958949E+00</totfact>
</mgrwt>
</event>
<event>
 6    1  0.5040916E-004  0.2949435E+04  0.7818608E-02  0.8258319E-01
          2   -1    0    0  501    0  0.00000000000E+00  0.00000000000E+00  0.16366178491E+04  0.16366178491E+04  0.00000000000E+00 0. -1.
         -2   -1    0    0    0  501 -0.00000000000E+00 -0.00000000000E+00 -0.13288331579E+04  0.13288331579E+04  0.00000000000E+00 0.  1.
         23    2    1    2    0    0 -0.10180239282E+04 -0.90725551883E+03  0.71457151646E+03  0.15424398279E+04  0.94988819131E+02 0.  0.
         11    1    3    3    0    0 -0.83117353709E+02 -0.96372649364E+02  0.42602889041E+02  0.13420576809E+03  0.00000000000E+00 0.  1.
        -11    1    3    3    0    0 -0.93490657446E+03 -0.81088286947E+03  0.67196862742E+03  0.14082340598E+04  0.00000000000E+00 0. -1.
         22    1    1    2    0    0  0.10180239282E+04  0.90725551883E+03 -0.40678682524E+03  0.14230111791E+04  0.00000000000E+00 0.  1.
<mgrwt>
<rscale>  0 0.29494352E+04</rscale>
<asrwt>0</asrwt>
<pdfrwt beam="1">  1        2 0.25178736E+00 0.29494352E+04</pdfrwt>
<pdfrwt beam="2">  1       -2 0.20443587E+00 0.29494352E+04</pdfrwt>
<totfact> 0.11377460E+00</totfact>
</mgrwt>
</event>
<event>
 6    1  0.5040916E-004  0.8773224E+03  0.7818608E-02  0.9454382E-01
          2   -1    0    0  501    0  0.00000000000E+00  0.00000000000E+00  0.11315320719E+03  0.11315320719E+03  0.00000000000E+00 0. -1.
         -2   -1    0    0    0  501 -0.00000000000E+00 -0.00000000000E+00 -0.17005584989E+04  0.17005584989E+04  0.00000000000E+00 0.  1.
         23    2    1    2    0    0 -0.24512084373E+03 -0.23044349245E+03 -0.13685913226E+04  0.14123789460E+04  0.92647976513E+02 0.  0.
         11    1    3    3    0    0 -0.21248041654E+03 -0.17507953655E+03 -0.95759665850E+03  0.99638954827E+03  0.00000000000E+00 0.  1.
        -11    1    3    3    0    0 -0.32640427186E+02 -0.55363955896E+02 -0.41099466414E+03  0.41598939777E+03  0.00000000000E+00 0. -1.
         22    1    1    2    0    0  0.24512084373E+03  0.23044349245E+03 -0.21881396909E+03  0.40133276008E+03  0.00000000000E+00 0. -1.
<mgrwt>
<rscale>  0 0.87732240E+03</rscale>
<asrwt>0</asrwt>
<pdfrwt beam="1">  1        2 0.17408187E-01 0.87732240E+03</pdfrwt>
<pdfrwt beam="2">  1       -2 0.26162436E+00 0.87732240E+03</pdfrwt>
<totfact> 0.18620300E+01</totfact>
</mgrwt>
</event>
<event>
 6    1  0.5040916E-004  0.5891566E+04  0.7818608E-02  0.7703994E-01
          2   -1    0    0  501    0  0.00000000000E+00  0.00000000000E+00  0.40709172347E+04  0.40709172347E+04  0.00000000000E+00 0.  1.
         -2   -1    0    0    0  501 -0.00000000000E+00 -0.00000000000E+00 -0.21316171349E+04  0.21316171349E+04  0.00000000000E+00 0. -1.
         23    2    1    2    0    0 -0.18134161187E+04 -0.50693577909E+03  0.33539606190E+04  0.38473854808E+04  0.88663971920E+02 0.  0.
         13    1    3    3    0    0 -0.15444092123E+04 -0.46394652031E+03  0.28747847611E+04  0.32961847053E+04  0.00000000000E+00 0.  1.
        -13    1    3    3    0    0 -0.26900690634E+03 -0.42989258783E+02  0.47917585794E+03  0.55120077545E+03  0.00000000000E+00 0. -1.
         22    1    1    2    0    0  0.18134161187E+04  0.50693577909E+03 -0.14146605193E+04  0.23551488888E+04  0.00000000000E+00 0. -1.
<mgrwt>
<rscale>  0 0.58915658E+04</rscale>
<asrwt>0</asrwt>
<pdfrwt beam="1">  1        2 0.62629496E+00 0.58915658E+04</pdfrwt>
<pdfrwt beam="2">  1       -2 0.32794110E+00 0.58915658E+04</pdfrwt>
<totfact> 0.43164275E-03</totfact>
</mgrwt>
</event>
<event>
 6    1  0.5040916E-004  0.5762486E+04  0.7818608E-02  0.7720569E-01
         -2   -1    0    0    0  501 -0.00000000000E+00  0.00000000000E+00  0.22556624312E+04  0.22556624312E+04  0.00000000000E+00 0.  1.
          2   -1    0    0  501    0  0.00000000000E+00 -0.00000000000E+00 -0.36803211219E+04  0.36803211219E+04  0.00000000000E+00 0. -1.
         23    2    1    2    0    0 -0.63844553710E+02  0.17887583805E+04  0.16123852917E+04  0.24107362112E+04  0.90166959742E+02 0.  0.
         11    1    3    3    0    0  0.21672752183E+01  0.85703859533E+03  0.81318461881E+03  0.11814351761E+04  0.00000000000E+00 0. -1.
        -11    1    3    3    0    0 -0.66011828928E+02  0.93171978512E+03  0.79920067285E+03  0.12293010352E+04  0.00000000000E+00 0.  1.
         22    1    1    2    0    0  0.63844553710E+02 -0.17887583805E+04 -0.30370439824E+04  0.35252473419E+04  0.00000000000E+00 0. -1.
<mgrwt>
<rscale>  0 0.57624863E+04</rscale>
<asrwt>0</asrwt>
<pdfrwt beam="1">  1        2 0.56620324E+00 0.57624863E+04</pdfrwt>
<pdfrwt beam="2">  1       -2 0.34702499E+00 0.57624863E+04</pdfrwt>
<totfact> 0.67013940E-03</totfact>
</mgrwt>
</event>
<event>
 6    1  0.5040916E-004  0.4096093E+04  0.7818608E-02  0.7985437E-01
         -2   -1    0    0    0  501 -0.00000000000E+00  0.00000000000E+00  0.36173945417E+04  0.36173945417E+04  0.00000000000E+00 0. -1.
          2   -1    0    0  501    0  0.00000000000E+00 -0.00000000000E+00 -0.11595348433E+04  0.11595348433E+04  0.00000000000E+00 0.  1.
         23    2    1    2    0    0  0.67258926224E+02  0.62611512805E+03  0.35010576104E+04  0.35584033080E+04  0.91026337721E+02 0.  0.
         13    1    3    3    0    0 -0.94676404369E+01  0.31742614909E+03  0.16710041529E+04  0.17009126595E+04  0.00000000000E+00 0. -1.
        -13    1    3    3    0    0  0.76726566661E+02  0.30868897896E+03  0.18300534575E+04  0.18574906484E+04  0.00000000000E+00 0.  1.
         22    1    1    2    0    0 -0.67258926224E+02 -0.62611512805E+03 -0.10431979120E+04  0.12185260770E+04  0.00000000000E+00 0.  1.
<mgrwt>
<rscale>  0 0.40960933E+04</rscale>
<asrwt>0</asrwt>
<pdfrwt beam="1">  1        2 0.17838998E+00 0.40960933E+04</pdfrwt>
<pdfrwt beam="2">  1       -2 0.55652223E+00 0.40960933E+04</pdfrwt>
<totfact> 0.12427387E-02</totfact>
</mgrwt>
</event>
<event>
 6    1  0.5040916E-004  0.2141093E+04  0.7818608E-02  0.8543354E-01
         -2   -1    0    0    0  501 -0.00000000000E+00  0.00000000000E+00  0.48685274637E+03  0.48685274637E+03  0.00000000000E+00 0. -1.
          2   -1    0    0  501    0  0.00000000000E+00 -0.00000000000E+00 -0.23540384038E+04  0.23540384038E+04  0.00000000000E+00 0.  1.
         23    2    1    2    0    0  0.23791273781E+03 -0.76794833444E+03 -0.12466000723E+01  0.80912450979E+03  0.91289666176E+02 0.  0.
         13    1    3    3    0    0  0.16732696714E+03 -0.64869218572E+03  0.10894153404E+02  0.67001384189E+03  0.00000000000E+00 0. -1.
        -13    1    3    3    0    0  0.70585770672E+02 -0.11925614872E+03 -0.12140753476E+02  0.13911066790E+03  0.00000000000E+00 0.  1.
         22    1    1    2    0    0 -0.23791273781E+03  0.76794833444E+03 -0.18659390574E+04  0.20317666404E+04  0.00000000000E+00 0.  1.
<mgrwt>
<rscale>  0 0.21410932E+04</rscale>
<asrwt>0</asrwt>
<pdfrwt beam="1">  1        2 0.36215976E+00 0.21410932E+04</pdfrwt>
<pdfrwt beam="2">  1       -2 0.74900422E-01 0.21410932E+04</pdfrwt>
<totfact> 0.62128406E+00</totfact>
</mgrwt>
</event>
<event>
 6    1  0.5040916E-004  0.2833794E+04  0.7818608E-02  0.8292853E-01
          2   -1    0    0  501    0  0.00000000000E+00  0.00000000000E+00  0.12548671287E+04  0.12548671287E+04  0.00000000000E+00 0.  1.
         -2   -1    0    0    0  501 -0.00000000000E+00 -0.00000000000E+00 -0.15998484645E+04  0.15998484645E+04  0.00000000000E+00 0. -1.
         23    2    1    2    0    0  0.54065333905E+03 -0.10549829245E+04 -0.95157853239E+03  0.15230793204E+04  0.94730718938E+02 0.  0.
         13    1    3    3    0    0  0.45448691807E+03 -0.81161834641E+03 -0.72062909906E+03  0.11766855983E+04  0.00000000000E+00 0. -1.
        -13    1    3    3    0    0  0.86166420981E+02 -0.24336457805E+03 -0.23094943333E+03  0.34639372210E+03  0.00000000000E+00 0.  1.
         22    1    1    2    0    0 -0.54065333905E+03  0.10549829245E+04  0.60659719657E+03  0.13316362727E+04  0.00000000000E+00 0.  1.
<mgrwt>
<rscale>  0 0.28337941E+04</rscale>
<asrwt>0</asrwt>
<pdfrwt beam="1">  1        2 0.19305648E+00 0.28337941E+04</pdfrwt>
<pdfrwt beam="2">  1       -2 0.24613053E+00 0.28337941E+04</pdfrwt>
<totfact> 0.10351139E+00</totfact>
</mgrwt>
</event>
<event>
 6    1  0.5040916E-004  0.2033368E+04  0.7818608E-02  0.8591177E-01
         -2   -1    0    0    0  501 -0.00000000000E+00  0.00000000000E+00  0.37098861361E+03  0.37098861361E+03  0.00000000000E+00 0. -1.
          2   -1    0    0  501    0  0.00000000000E+00 -0.00000000000E+00 -0.27861956235E+04  0.27861956235E+04  0.00000000000E+00 0.  1.
         23    2    1    2    0    0  0.74817021684E+03  0.42116422814E+03 -0.37105405875E+03  0.94004660762E+03  0.94172870577E+02 0.  0.
         13    1    3    3    0    0  0.43242343108E+03  0.20029016966E+03 -0.23546736479E+03  0.53155531763E+03  0.00000000000E+00 0.  1.
        -13    1    3    3    0    0  0.31574678576E+03  0.22087405847E+03 -0.13558669396E+03  0.40849129000E+03  0.00000000000E+00 0. -1.
         22    1    1    2    0    0 -0.74817021684E+03 -0.42116422814E+03 -0.20441529511E+04  0.22171376295E+04  0.00000000000E+00 0.  1.
<mgrwt>
<rscale>  0 0.20333685E+04</rscale>
<asrwt>0</asrwt>
<pdfrwt beam="1">  1        2 0.42864547E+00 0.20333685E+04</pdfrwt>
<pdfrwt beam="2">  1       -2 0.57075173E-01 0.20333685E+04</pdfrwt>
<totfact> 0.62930728E+00</totfact>
</mgrwt>
</event>
<event>
 6    1  0.5040916E-004  0.2508724E+04  0.7818608E-02  0.8399884E-01
          2   -1    0    0  501    0  0.00000000000E+00  0.00000000000E+00  0.74984324639E+03  0.74984324639E+03  0.00000000000E+00 0.  1.
         -2   -1    0    0    0  501 -0.00000000000E+00 -0.00000000000E+00 -0.20983364938E+04  0.20983364938E+04  0.00000000000E+00 0. -1.
         23    2    1    2    0    0  0.11995402539E+03 -0.10387139930E+04  0.10811205359E+03  0.10551335248E+04  0.91119764943E+02 0.  0.
         13    1    3    3    0    0  0.86091403209E+02 -0.38357426753E+03  0.55458683883E+02  0.39700958935E+03  0.00000000000E+00 0. -1.
        -13    1    3    3    0    0  0.33862622182E+02 -0.65513972550E+03  0.52653369703E+02  0.65812393548E+03  0.00000000000E+00 0.  1.
         22    1    1    2    0    0 -0.11995402539E+03  0.10387139930E+04 -0.14566053010E+04  0.17930462154E+04  0.00000000000E+00 0.  1.
<mgrwt>
<rscale>  0 0.25087235E+04</rscale>
<asrwt>0</asrwt>
<pdfrwt beam="1">  1        2 0.11536050E+00 0.25087235E+04</pdfrwt>
<pdfrwt beam="2">  1       -2 0.32282099E+00 0.25087235E+04</pdfrwt>
<totfact> 0.76919539E-01</totfact>
</mgrwt>
</event>
<event>
 6    1  0.5040916E-004  0.2447461E+04  0.7818608E-02  0.8421946E-01
         -2   -1    0    0    0  501 -0.00000000000E+00  0.00000000000E+00  0.83613428776E+03  0.83613428776E+03  0.00000000000E+00 0. -1.
          2   -1    0    0  501    0  0.00000000000E+00 -0.00000000000E+00 -0.17909997458E+04  0.17909997458E+04  0.00000000000E+00 0.  1.
         23    2    1    2    0    0  0.41633472914E+03  0.67029212676E+03  0.52353210234E+03  0.95134004609E+03  0.91301036282E+02 0.  0.
         13    1    3    3    0    0  0.92306400559E+02  0.22803915077E+03  0.16778654792E+03  0.29778289328E+03  0.00000000000E+00 0.  1.
        -13    1    3    3    0    0  0.32402832858E+03  0.44225297599E+03  0.35574555442E+03  0.65355715281E+03  0.00000000000E+00 0. -1.
         22    1    1    2    0    0 -0.41633472914E+03 -0.67029212676E+03 -0.14783975604E+04  0.16757939875E+04  0.00000000000E+00 0.  1.
<mgrwt>
<rscale>  0 0.24474610E+04</rscale>
<asrwt>0</asrwt>
<pdfrwt beam="1">  1        2 0.27553842E+00 0.24474610E+04</pdfrwt>
<pdfrwt beam="2">  1       -2 0.12863605E+00 0.24474610E+04</pdfrwt>
<totfact> 0.34878814E+00</totfact>
</mgrwt>
</event>
<event>
 6    1  0.5040916E-004  0.7902041E+03  0.7818608E-02  0.9574306E-01
          2   -1    0    0  501    0  0.00000000000E+00  0.00000000000E+00  0.12784539056E+04  0.12784539056E+04  0.00000000000E+00 0.  1.
         -2   -1    0    0    0  501 -0.00000000000E+00 -0.00000000000E+00 -0.12210500029E+03  0.12210500029E+03  0.00000000000E+00 0. -1.
         23    2    1    2    0    0  0.38312398570E+03 -0.70625744441E+02  0.57310159772E+03  0.69916785519E+03  0.92834606809E+02 0.  0.
         13    1    3    3    0    0  0.24790929436E+03 -0.13604572768E+01  0.37446648791E+03  0.44909466668E+03  0.00000000000E+00 0.  1.
        -13    1    3    3    0    0  0.13521469134E+03 -0.69265287164E+02  0.19863510981E+03  0.25007318850E+03  0.00000000000E+00 0. -1.
         22    1    1    2    0    0 -0.38312398570E+03  0.70625744441E+02  0.58324730763E+03  0.70139105074E+03  0.00000000000E+00 0.  1.
<mgrwt>
<rscale>  0 0.79020406E+03</rscale>
<asrwt>0</asrwt>
<pdfrwt beam="1">  1        2 0.19668521E+00 0.79020406E+03</pdfrwt>
<pdfrwt beam="2">  1       -2 0.18785386E-01 0.79020406E+03</pdfrwt>
<totfact> 0.40813187E+02</totfact>
</mgrwt>
</event>
<event>
 6    1  0.5040916E-004  0.1229152E+04  0.7818608E-02  0.9087716E-01
         -1   -1    0    0    0  501 -0.00000000000E+00  0.00000000000E+00  0.12004218742E+04  0.12004218742E+04  0.00000000000E+00 0.  1.
          1   -1    0    0  501    0  0.00000000000E+00 -0.00000000000E+00 -0.31464250097E+03  0.31464250097E+03  0.00000000000E+00 0. -1.
         23    2    1    2    0    0  0.65555198605E+02 -0.60569680976E+02  0.11906209080E+04  0.11974253794E+04  0.91012210854E+02 0.  0.
         11    1    3    3    0    0  0.42758061074E+02 -0.71038568093E+02  0.54068149653E+03  0.54700202069E+03  0.00000000000E+00 0. -1.
        -11    1    3    3    0    0  0.22797137531E+02  0.10468887117E+02  0.64993941142E+03  0.65042335874E+03  0.00000000000E+00 0.  1.
         22    1    1    2    0    0 -0.65555198605E+02  0.60569680976E+02 -0.30484153472E+03  0.31763899573E+03  0.00000000000E+00 0. -1.
<mgrwt>
<rscale>  0 0.12291521E+04</rscale>
<asrwt>0</asrwt>
<pdfrwt beam="1">  1        1 0.48406539E-01 0.12291521E+04</pdfrwt>
<pdfrwt beam="2">  1       -1 0.18468029E+00 0.12291521E+04</pdfrwt>
<totfact> 0.15676263E+01</totfact>
</mgrwt>
</event>
<event>
 6    1  0.5040916E-004  0.4254037E+04  0.7818608E-02  0.7955172E-01
         -2   -1    0    0    0  501 -0.00000000000E+00  0.00000000000E+00  0.19146074173E+04  0.19146074173E+04  0.00000000000E+00 0. -1.
          2   -1    0    0  501    0  0.00000000000E+00 -0.00000000000E+00 -0.23629947559E+04  0.23629947559E+04  0.00000000000E+00 0.  1.
         23    2    1    2    0    0  0.19882045383E+03  0.12622465458E+04  0.14843625446E+04  0.19606390690E+04  0.89316738389E+02 0.  0.
         11    1    3    3    0    0  0.60740123833E+02  0.28077784129E+03  0.28380848685E+03  0.40382275321E+03  0.00000000000E+00 0.  1.
        -11    1    3    3    0    0  0.13808033000E+03  0.98146870448E+03  0.12005540578E+04  0.15568163158E+04  0.00000000000E+00 0. -1.
         22    1    1    2    0    0 -0.19882045383E+03 -0.12622465458E+04 -0.19327498832E+04  0.23169631042E+04  0.00000000000E+00 0.  1.
<mgrwt>
<rscale>  0 0.42540368E+04</rscale>
<asrwt>0</asrwt>
<pdfrwt beam="1">  1        2 0.36353765E+00 0.42540368E+04</pdfrwt>
<pdfrwt beam="2">  1       -2 0.29455499E+00 0.42540368E+04</pdfrwt>
<totfact> 0.11071954E-01</totfact>
</mgrwt>
</event>
<event>
 6    1  0.5040916E-004  0.1503131E+04  0.7818608E-02  0.8882374E-01
          2   -1    0    0  501    0  0.00000000000E+00  0.00000000000E+00  0.14948594996E+04  0.14948594996E+04  0.00000000000E+00 0.  1.
         -2   -1    0    0    0  501 -0.00000000000E+00 -0.00000000000E+00 -0.37786183447E+03  0.37786183447E+03  0.00000000000E+00 0. -1.
         23    2    1    2    0    0 -0.10577159695E+03  0.67617604024E+03  0.93912440357E+03  0.11655858695E+04  0.90741972588E+02 0.  0.
         13    1    3    3    0    0 -0.66824339655E+02  0.26227218392E+03  0.31017913621E+03  0.41165918837E+03  0.00000000000E+00 0. -1.
        -13    1    3    3    0    0 -0.38947257293E+02  0.41390385632E+03  0.62894526736E+03  0.75392668109E+03  0.00000000000E+00 0.  1.
         22    1    1    2    0    0  0.10577159695E+03 -0.67617604024E+03  0.17787326156E+03  0.70713546460E+03  0.00000000000E+00 0. -1.
<mgrwt>
<rscale>  0 0.15031305E+04</rscale>
<asrwt>0</asrwt>
<pdfrwt beam="1">  1        2 0.22997838E+00 0.15031305E+04</pdfrwt>
<pdfrwt beam="2">  1       -2 0.58132591E-01 0.15031305E+04</pdfrwt>
<totfact> 0.34171753E+01</totfact>
</mgrwt>
</event>
<event>
 6    1  0.5040916E-004  0.6115420E+04  0.7818608E-02  0.7676254E-01
         -2   -1    0    0    0  501 -0.00000000000E+00  0.00000000000E+00  0.29073989067E+04  0.29073989067E+04  0.00000000000E+00 0. -1.
          2   -1    0    0  501    0  0.00000000000E+00 -0.00000000000E+00 -0.32157923431E+04  0.32157923431E+04  0.00000000000E+00 0.  1.
         23    2    1    2    0    0 -0.14564993863E+04 -0.12758144766E+04 -0.25228827810E+04  0.31815835095E+04  0.91886126068E+02 0.  0.
         11    1    3    3    0    0 -0.88648996283E+03 -0.80241861128E+03 -0.16230676747E+04  0.20159585210E+04  0.00000000000E+00 0. -1.
        -11    1    3    3    0    0 -0.57000942345E+03 -0.47339586533E+03 -0.89981510632E+03  0.11656249884E+04  0.00000000000E+00 0.  1.
         22    1    1    2    0    0  0.14564993863E+04  0.12758144766E+04  0.22144893445E+04  0.29416077403E+04  0.00000000000E+00 0. -1.
<mgrwt>
<rscale>  0 0.61154202E+04</rscale>
<asrwt>0</asrwt>
<pdfrwt beam="1">  1        2 0.49473728E+00 0.61154202E+04</pdfrwt>
<pdfrwt beam="2">  1       -2 0.44729214E+00 0.61154202E+04</pdfrwt>
<totfact> 0.30669718E-03</totfact>
</mgrwt>
</event>
<event>
 6    1  0.5040916E-004  0.2669642E+04  0.7818608E-02  0.8344923E-01
          2   -1    0    0  501    0  0.00000000000E+00  0.00000000000E+00  0.30830495546E+04  0.30830495546E+04  0.00000000000E+00 0. -1.
         -2   -1    0    0    0  501 -0.00000000000E+00 -0.00000000000E+00 -0.57791713117E+03  0.57791713117E+03  0.00000000000E+00 0.  1.
         23    2    1    2    0    0 -0.46240337502E+03 -0.67418369834E+03  0.26984295324E+04  0.28209045972E+04  0.87408607560E+02 0.  0.
         13    1    3    3    0    0 -0.28099325119E+03 -0.40238478845E+03  0.14705922420E+04  0.15503265034E+04  0.00000000000E+00 0. -1.
        -13    1    3    3    0    0 -0.18141012383E+03 -0.27179890989E+03  0.12278372905E+04  0.12705780937E+04  0.00000000000E+00 0.  1.
         22    1    1    2    0    0  0.46240337502E+03  0.67418369834E+03 -0.19329710899E+03  0.84006208859E+03  0.00000000000E+00 0.  1.
<mgrwt>
<rscale>  0 0.26696420E+04</rscale>
<asrwt>0</asrwt>
<pdfrwt beam="1">  1        2 0.47431531E+00 0.26696420E+04</pdfrwt>
<pdfrwt beam="2">  1       -2 0.88910330E-01 0.26696420E+04</pdfrwt>
<totfact> 0.14745704E+00</totfact>
</mgrwt>
</event>
<event>
 6    1  0.5040916E-004  0.1283339E+04  0.7818608E-02  0.9042883E-01
         -2   -1    0    0    0  501 -0.00000000000E+00  0.00000000000E+00  0.91309432023E+03  0.91309432023E+03  0.00000000000E+00 0. -1.
          2   -1    0    0  501    0  0.00000000000E+00 -0.00000000000E+00 -0.45092779733E+03  0.45092779733E+03  0.00000000000E+00 0.  1.
         23    2    1    2    0    0 -0.88042070625E+01  0.23050601384E+03  0.86495608428E+03  0.89985623424E+03  0.91551505126E+02 0.  0.
         11    1    3    3    0    0  0.34234427759E+02  0.45571213280E+02  0.24103049840E+03  0.24767808277E+03  0.00000000000E+00 0. -1.
        -11    1    3    3    0    0 -0.43038634821E+02  0.18493480056E+03  0.62392558588E+03  0.65217815147E+03  0.00000000000E+00 0.  1.
         22    1    1    2    0    0  0.88042070625E+01 -0.23050601384E+03 -0.40278956138E+03  0.46416588332E+03  0.00000000000E+00 0.  1.
<mgrwt>
<rscale>  0 0.12833388E+04</rscale>
<asrwt>0</asrwt>
<pdfrwt beam="1">  1        2 0.69373508E-01 0.12833388E+04</pdfrwt>
<pdfrwt beam="2">  1       -2 0.14047605E+00 0.12833388E+04</pdfrwt>
<totfact> 0.24218985E+01</totfact>
</mgrwt>
</event>
<event>
 6    1  0.5040916E-004  0.1620188E+04  0.7818608E-02  0.8808241E-01
          2   -1    0    0  501    0  0.00000000000E+00  0.00000000000E+00  0.28682616006E+04  0.28682616006E+04  0.00000000000E+00 0.  1.
         -2   -1    0    0    0  501 -0.00000000000E+00 -0.00000000000E+00 -0.22879799659E+03  0.22879799659E+03  0.00000000000E+00 0. -1.
         23    2    1    2    0    0  0.66222081527E+03 -0.45970640031E+03  0.12473268434E+04  0.14883610105E+04  0.97610760608E+02 0.  0.
         13    1    3    3    0    0  0.49528495605E+03 -0.38961422698E+03  0.94050577561E+03  0.11321031523E+04  0.00000000000E+00 0. -1.
        -13    1    3    3    0    0  0.16693585922E+03 -0.70092173328E+02  0.30682106775E+03  0.35625785812E+03  0.00000000000E+00 0.  1.
         22    1    1    2    0    0 -0.66222081527E+03  0.45970640031E+03  0.13921367606E+04  0.16086985867E+04  0.00000000000E+00 0.  1.
<mgrwt>
<rscale>  0 0.16201883E+04</rscale>
<asrwt>0</asrwt>
<pdfrwt beam="1">  1        2 0.44127099E+00 0.16201883E+04</pdfrwt>
<pdfrwt beam="2">  1       -2 0.35199694E-01 0.16201883E+04</pdfrwt>
<totfact> 0.15315534E+01</totfact>
</mgrwt>
</event>
<event>
 6    1  0.5040916E-004  0.3992450E+03  0.7818608E-02  0.1044041E+00
         -2   -1    0    0    0  501 -0.00000000000E+00  0.00000000000E+00  0.31732160466E+02  0.31732160466E+02  0.00000000000E+00 0.  1.
          2   -1    0    0  501    0  0.00000000000E+00 -0.00000000000E+00 -0.12557964255E+04  0.12557964255E+04  0.00000000000E+00 0. -1.
         23    2    1    2    0    0 -0.30468711484E+02 -0.63590235017E+02 -0.12098759494E+04  0.12156024526E+04  0.94432247253E+02 0.  0.
         11    1    3    3    0    0 -0.44722001282E+02 -0.69951898729E+01 -0.83351937750E+03  0.83474759224E+03  0.00000000000E+00 0.  1.
        -11    1    3    3    0    0  0.14253289798E+02 -0.56595045144E+02 -0.37635657194E+03  0.38085486035E+03  0.00000000000E+00 0. -1.
         22    1    1    2    0    0  0.30468711484E+02  0.63590235017E+02 -0.14188315635E+02  0.71926133426E+02  0.00000000000E+00 0.  1.
<mgrwt>
<rscale>  0 0.39924496E+03</rscale>
<asrwt>0</asrwt>
<pdfrwt beam="1">  1        2 0.19319948E+00 0.39924496E+03</pdfrwt>
<pdfrwt beam="2">  1       -2 0.48818701E-02 0.39924496E+03</pdfrwt>
<totfact> 0.37836617E+03</totfact>
</mgrwt>
</event>
<event>
 6    1  0.5040916E-004  0.1994195E+04  0.7818608E-02  0.8609340E-01
          1   -1    0    0  501    0  0.00000000000E+00  0.00000000000E+00  0.13468357349E+04  0.13468357349E+04  0.00000000000E+00 0.  1.
         -1   -1    0    0    0  501 -0.00000000000E+00 -0.00000000000E+00 -0.73817719206E+03  0.73817719206E+03  0.00000000000E+00 0. -1.
         23    2    1    2    0    0 -0.20706731213E+03 -0.77903802421E+03  0.91469404442E+03  0.12227862495E+04  0.93615715867E+02 0.  0.
         13    1    3    3    0    0 -0.19036430613E+02 -0.22262598931E+03  0.27582965909E+03  0.35497424927E+03  0.00000000000E+00 0. -1.
        -13    1    3    3    0    0 -0.18803088152E+03 -0.55641203490E+03  0.63886438533E+03  0.86781200028E+03  0.00000000000E+00 0.  1.
         22    1    1    2    0    0  0.20706731213E+03  0.77903802421E+03 -0.30603550163E+03  0.86222667738E+03  0.00000000000E+00 0. -1.
<mgrwt>
<rscale>  0 0.19941950E+04</rscale>
<asrwt>0</asrwt>
<pdfrwt beam="1">  1        1 0.20720550E+00 0.19941950E+04</pdfrwt>
<pdfrwt beam="2">  1       -1 0.11356572E+00 0.19941950E+04</pdfrwt>
<totfact> 0.54996479E+00</totfact>
</mgrwt>
</event>
<event>
 6    1  0.5040916E-004  0.2415408E+04  0.7818608E-02  0.8433758E-01
         -2   -1    0    0    0  501 -0.00000000000E+00  0.00000000000E+00  0.62326784929E+03  0.62326784929E+03  0.00000000000E+00 0. -1.
          2   -1    0    0  501    0  0.00000000000E+00 -0.00000000000E+00 -0.23401630322E+04  0.23401630322E+04  0.00000000000E+00 0.  1.
         23    2    1    2    0    0  0.40168290484E+03 -0.75295874503E+03 -0.19050790797E+04  0.20895263062E+04  0.92183820766E+02 0.  0.
         13    1    3    3    0    0  0.91477317515E+02 -0.25930013389E+03 -0.58211535877E+03  0.64378796974E+03  0.00000000000E+00 0.  1.
        -13    1    3    3    0    0  0.31020558732E+03 -0.49365861113E+03 -0.13229637209E+04  0.14457383365E+04  0.00000000000E+00 0. -1.
         22    1    1    2    0    0 -0.40168290484E+03  0.75295874503E+03  0.18818389673E+03  0.87390457531E+03  0.00000000000E+00 0. -1.
<mgrwt>
<rscale>  0 0.24154075E+04</rscale>
<asrwt>0</asrwt>
<pdfrwt beam="1">  1        2 0.36002508E+00 0.24154075E+04</pdfrwt>
<pdfrwt beam="2">  1       -2 0.95887361E-01 0.24154075E+04</pdfrwt>
<totfact> 0.35222481E+00</totfact>
</mgrwt>
</event>
<event>
 6    1  0.5040916E-004  0.2298103E+04  0.7818608E-02  0.8478670E-01
         -2   -1    0    0    0  501 -0.00000000000E+00  0.00000000000E+00  0.35110241708E+03  0.35110241708E+03  0.00000000000E+00 0. -1.
          2   -1    0    0  501    0  0.00000000000E+00 -0.00000000000E+00 -0.37604950925E+04  0.37604950925E+04  0.00000000000E+00 0.  1.
         23    2    1    2    0    0  0.63109968394E+02 -0.80260569181E+03 -0.24573671581E+03  0.84711013859E+03  0.95133005648E+02 0.  0.
         13    1    3    3    0    0  0.14187992406E+02 -0.23808876137E+03 -0.11868157790E+03  0.26640734665E+03  0.00000000000E+00 0.  1.
        -13    1    3    3    0    0  0.48921975988E+02 -0.56451693044E+03 -0.12705513791E+03  0.58070279193E+03  0.00000000000E+00 0. -1.
         22    1    1    2    0    0 -0.63109968394E+02  0.80260569181E+03 -0.31636559596E+04  0.32644873710E+04  0.00000000000E+00 0.  1.
<mgrwt>
<rscale>  0 0.22981026E+04</rscale>
<asrwt>0</asrwt>
<pdfrwt beam="1">  1        2 0.57853770E+00 0.22981026E+04</pdfrwt>
<pdfrwt beam="2">  1       -2 0.54015757E-01 0.22981026E+04</pdfrwt>
<totfact> 0.15463080E+00</totfact>
</mgrwt>
</event>
<event>
 6    1  0.5040916E-004  0.5171867E+04  0.7818608E-02  0.7802528E-01
          2   -1    0    0  501    0  0.00000000000E+00  0.00000000000E+00  0.42068003382E+04  0.42068003382E+04  0.00000000000E+00 0.  1.
         -2   -1    0    0    0  501 -0.00000000000E+00 -0.00000000000E+00 -0.15895816964E+04  0.15895816964E+04  0.00000000000E+00 0. -1.
         23    2    1    2    0    0  0.39770439449E+03 -0.24264571340E+04  0.22031554084E+04  0.33029283314E+04  0.97871345357E+02 0.  0.
         13    1    3    3    0    0  0.28838290773E+03 -0.19813290671E+04  0.17754855851E+04  0.26760378615E+04  0.00000000000E+00 0.  1.
        -13    1    3    3    0    0  0.10932148676E+03 -0.44512806692E+03  0.42766982334E+03  0.62689046987E+03  0.00000000000E+00 0. -1.
         22    1    1    2    0    0 -0.39770439449E+03  0.24264571340E+04  0.41406323336E+03  0.24934537031E+04  0.00000000000E+00 0. -1.
<mgrwt>
<rscale>  0 0.51718673E+04</rscale>
<asrwt>0</asrwt>
<pdfrwt beam="1">  1        2 0.64720005E+00 0.51718673E+04</pdfrwt>
<pdfrwt beam="2">  1       -2 0.24455103E+00 0.51718673E+04</pdfrwt>
<totfact> 0.11362251E-02</totfact>
</mgrwt>
</event>
<event>
 6    1  0.5040916E-004  0.2053886E+04  0.7818608E-02  0.8581833E-01
         -2   -1    0    0    0  501 -0.00000000000E+00  0.00000000000E+00  0.60728047826E+03  0.60728047826E+03  0.00000000000E+00 0. -1.
          2   -1    0    0  501    0  0.00000000000E+00 -0.00000000000E+00 -0.17366150675E+04  0.17366150675E+04  0.00000000000E+00 0.  1.
         23    2    1    2    0    0 -0.57349442400E+03 -0.37136189614E+03 -0.14374563992E+04  0.15943993403E+04  0.94988654172E+02 0.  0.
         13    1    3    3    0    0 -0.37662551320E+03 -0.27940681320E+03 -0.10549710745E+04  0.11545037516E+04  0.00000000000E+00 0. -1.
        -13    1    3    3    0    0 -0.19686891080E+03 -0.91955082938E+02 -0.38248532471E+03  0.43989558867E+03  0.00000000000E+00 0.  1.
         22    1    1    2    0    0  0.57349442400E+03  0.37136189614E+03  0.30812180996E+03  0.74949620549E+03  0.00000000000E+00 0. -1.
<mgrwt>
<rscale>  0 0.20538865E+04</rscale>
<asrwt>0</asrwt>
<pdfrwt beam="1">  1        2 0.26717155E+00 0.20538865E+04</pdfrwt>
<pdfrwt beam="2">  1       -2 0.93427767E-01 0.20538865E+04</pdfrwt>
<totfact> 0.83878308E+00</totfact>
</mgrwt>
</event>
<event>
 6    1  0.5040916E-004  0.1693463E+04  0.7818608E-02  0.8765101E-01
         -3   -1    0    0    0  501 -0.00000000000E+00  0.00000000000E+00  0.80613360512E+03  0.80613360512E+03  0.00000000000E+00 0. -1.
          3   -1    0    0  501    0  0.00000000000E+00 -0.00000000000E+00 -0.88937428054E+03  0.88937428054E+03  0.00000000000E+00 0.  1.
         23    2    1    2    0    0 -0.17116341882E+03  0.74219316681E+03  0.32248947295E+03  0.83251045455E+03  0.94480601021E+02 0.  0.
         11    1    3    3    0    0 -0.29016417167E+02  0.13621643972E+03  0.10024158866E+03  0.17159617424E+03  0.00000000000E+00 0.  1.
        -11    1    3    3    0    0 -0.14214700165E+03  0.60597672709E+03  0.22224788429E+03  0.66091428031E+03  0.00000000000E+00 0. -1.
         22    1    1    2    0    0  0.17116341882E+03 -0.74219316681E+03 -0.40573014837E+03  0.86299743111E+03  0.00000000000E+00 0.  1.
<mgrwt>
<rscale>  0 0.16934633E+04</rscale>
<asrwt>0</asrwt>
<pdfrwt beam="1">  1        3 0.13682681E+00 0.16934633E+04</pdfrwt>
<pdfrwt beam="2">  1       -3 0.12402055E+00 0.16934633E+04</pdfrwt>
<totfact> 0.53182183E-01</totfact>
</mgrwt>
</event>
<event>
 6    1  0.5040916E-004  0.2339786E+04  0.7818608E-02  0.8462397E-01
          2   -1    0    0  501    0  0.00000000000E+00  0.00000000000E+00  0.71375874325E+03  0.71375874325E+03  0.00000000000E+00 0. -1.
         -2   -1    0    0    0  501 -0.00000000000E+00 -0.00000000000E+00 -0.19175248688E+04  0.19175248688E+04  0.00000000000E+00 0.  1.
         23    2    1    2    0    0  0.66730482158E+03  0.20165845855E+03  0.45164387316E+03  0.83508091674E+03  0.86116726117E+02 0.  0.
         13    1    3    3    0    0  0.60526798924E+03  0.18357224505E+03  0.37689648520E+03  0.73627377279E+03  0.00000000000E+00 0. -1.
        -13    1    3    3    0    0  0.62036832342E+02  0.18086213509E+02  0.74747387969E+02  0.98807143944E+02  0.00000000000E+00 0.  1.
         22    1    1    2    0    0 -0.66730482158E+03 -0.20165845855E+03 -0.16554099987E+04  0.17962026953E+04  0.00000000000E+00 0.  1.
<mgrwt>
<rscale>  0 0.23397864E+04</rscale>
<asrwt>0</asrwt>
<pdfrwt beam="1">  1        2 0.10980904E+00 0.23397864E+04</pdfrwt>
<pdfrwt beam="2">  1       -2 0.29500382E+00 0.23397864E+04</pdfrwt>
<totfact> 0.12321020E+00</totfact>
</mgrwt>
</event>
<event>
 6    1  0.5040916E-004  0.2096594E+04  0.7818608E-02  0.8562745E-01
         -2   -1    0    0    0  501 -0.00000000000E+00  0.00000000000E+00  0.16888537255E+04  0.16888537255E+04  0.00000000000E+00 0. -1.
          2   -1    0    0  501    0  0.00000000000E+00 -0.00000000000E+00 -0.65069392878E+03  0.65069392878E+03  0.00000000000E+00 0.  1.
         23    2    1    2    0    0 -0.80714401850E+03 -0.36063767498E+03 -0.10456080778E+03  0.89478075987E+03  0.90325226210E+02 0.  0.
         13    1    3    3    0    0 -0.17002315648E+03 -0.59613440260E+02  0.11913208967E+02  0.18056456061E+03  0.00000000000E+00 0.  1.
        -13    1    3    3    0    0 -0.63712086202E+03 -0.30102423472E+03 -0.11647401674E+03  0.71421619926E+03  0.00000000000E+00 0. -1.
         22    1    1    2    0    0  0.80714401850E+03  0.36063767498E+03  0.11427206045E+04  0.14447668944E+04  0.00000000000E+00 0. -1.
<mgrwt>
<rscale>  0 0.20965943E+04</rscale>
<asrwt>0</asrwt>
<pdfrwt beam="1">  1        2 0.10010676E+00 0.20965943E+04</pdfrwt>
<pdfrwt beam="2">  1       -2 0.25982365E+00 0.20965943E+04</pdfrwt>
<totfact> 0.23149929E+00</totfact>
</mgrwt>
</event>
<event>
 6    1  0.5040916E-004  0.6294877E+03  0.7818608E-02  0.9846049E-01
         -2   -1    0    0    0  501 -0.00000000000E+00  0.00000000000E+00  0.14001603269E+04  0.14001603269E+04  0.00000000000E+00 0. -1.
          2   -1    0    0  501    0  0.00000000000E+00 -0.00000000000E+00 -0.70751682601E+02  0.70751682601E+02  0.00000000000E+00 0.  1.
         23    2    1    2    0    0 -0.12370703442E+02  0.27146804589E+03  0.33489879960E+03  0.43994267657E+03  0.86858611835E+02 0.  0.
         11    1    3    3    0    0 -0.25245812998E+02  0.13198521315E+03  0.10418521940E+03  0.17003531253E+03  0.00000000000E+00 0.  1.
        -11    1    3    3    0    0  0.12875109557E+02  0.13948283273E+03  0.23071358020E+03  0.26990736404E+03  0.00000000000E+00 0. -1.
         22    1    1    2    0    0  0.12370703442E+02 -0.27146804589E+03  0.99450984465E+03  0.10309693329E+04  0.00000000000E+00 0. -1.
<mgrwt>
<rscale>  0 0.62948773E+03</rscale>
<asrwt>0</asrwt>
<pdfrwt beam="1">  1        2 0.10884875E-01 0.62948773E+03</pdfrwt>
<pdfrwt beam="2">  1       -2 0.21540926E+00 0.62948773E+03</pdfrwt>
<totfact> 0.64852675E+01</totfact>
</mgrwt>
</event>
<event>
 6    1  0.7207552E-004  0.2334204E+04  0.7818608E-02  0.8464556E-01
          1   -1    0    0  501    0  0.00000000000E+00  0.00000000000E+00  0.13653565768E+04  0.13653565768E+04  0.00000000000E+00 0.  1.
         -1   -1    0    0    0  501 -0.00000000000E+00 -0.00000000000E+00 -0.99763459587E+03  0.99763459587E+03  0.00000000000E+00 0. -1.
         23    2    1    2    0    0 -0.11528066957E+04  0.38540842564E+02  0.16135539726E+02  0.11571463652E+04  0.90987254625E+02 0.  0.
         13    1    3    3    0    0 -0.57049393803E+03  0.47345012703E+02  0.43654589486E+02  0.57411724129E+03  0.00000000000E+00 0. -1.
        -13    1    3    3    0    0 -0.58231275769E+03 -0.88041701382E+01 -0.27519049760E+02  0.58302912387E+03  0.00000000000E+00 0.  1.
         22    1    1    2    0    0  0.11528066957E+04 -0.38540842564E+02  0.35158644124E+03  0.12058448076E+04  0.00000000000E+00 0.  1.
<mgrwt>
<rscale>  0 0.23342039E+04</rscale>
<asrwt>0</asrwt>
<pdfrwt beam="1">  1        1 0.21005486E+00 0.23342039E+04</pdfrwt>
<pdfrwt beam="2">  1       -1 0.15348224E+00 0.23342039E+04</pdfrwt>
<totfact> 0.24013926E+00</totfact>
</mgrwt>
</event>
<event>
 6    1  0.5040916E-004  0.2893328E+04  0.7818608E-02  0.8274865E-01
          2   -1    0    0  501    0  0.00000000000E+00  0.00000000000E+00  0.11577881966E+04  0.11577881966E+04  0.00000000000E+00 0.  1.
         -2   -1    0    0    0  501 -0.00000000000E+00 -0.00000000000E+00 -0.18076159716E+04  0.18076159716E+04  0.00000000000E+00 0. -1.
         23    2    1    2    0    0  0.49026787255E+02 -0.41658073573E+03 -0.17425885161E+04  0.17949046285E+04  0.95523577304E+02 0.  0.
         11    1    3    3    0    0  0.17488297576E+02 -0.20611089364E+03 -0.10567759090E+04  0.10768300065E+04  0.00000000000E+00 0. -1.
        -11    1    3    3    0    0  0.31538489679E+02 -0.21046984210E+03 -0.68581260706E+03  0.71807462201E+03  0.00000000000E+00 0.  1.
         22    1    1    2    0    0 -0.49026787255E+02  0.41658073573E+03  0.10927607411E+04  0.11704995397E+04  0.00000000000E+00 0.  1.
<mgrwt>
<rscale>  0 0.28933278E+04</rscale>
<asrwt>0</asrwt>
<pdfrwt beam="1">  1        2 0.17812126E+00 0.28933278E+04</pdfrwt>
<pdfrwt beam="2">  1       -2 0.27809476E+00 0.28933278E+04</pdfrwt>
<totfact> 0.75010451E-01</totfact>
</mgrwt>
</event>
<event>
 6    1  0.5040916E-004  0.2161910E+04  0.7818608E-02  0.8534451E-01
         -2   -1    0    0    0  501 -0.00000000000E+00  0.00000000000E+00  0.27734752664E+03  0.27734752664E+03  0.00000000000E+00 0. -1.
          2   -1    0    0  501    0  0.00000000000E+00 -0.00000000000E+00 -0.42129935162E+04  0.42129935162E+04  0.00000000000E+00 0.  1.
         23    2    1    2    0    0  0.60258763906E+03  0.86168102156E+03 -0.24737018239E+04  0.26895393355E+04  0.93888646553E+02 0.  0.
         13    1    3    3    0    0  0.94683864126E+02  0.12417856127E+03 -0.45772068360E+03  0.48362544742E+03  0.00000000000E+00 0. -1.
        -13    1    3    3    0    0  0.50790377494E+03  0.73750246029E+03 -0.20159811403E+04  0.22059138881E+04  0.00000000000E+00 0.  1.
         22    1    1    2    0    0 -0.60258763906E+03 -0.86168102156E+03 -0.14619441657E+04  0.18008017074E+04  0.00000000000E+00 0. -1.
<mgrwt>
<rscale>  0 0.21619096E+04</rscale>
<asrwt>0</asrwt>
<pdfrwt beam="1">  1        2 0.64815283E+00 0.21619096E+04</pdfrwt>
<pdfrwt beam="2">  1       -2 0.42668851E-01 0.21619096E+04</pdfrwt>
<totfact> 0.10921740E+00</totfact>
</mgrwt>
</event>
<event>
 6    1  0.5040916E-004  0.3347418E+04  0.7818608E-02  0.8150934E-01
          2   -1    0    0  501    0  0.00000000000E+00  0.00000000000E+00  0.38071404013E+04  0.38071404013E+04  0.00000000000E+00 0.  1.
         -2   -1    0    0    0  501 -0.00000000000E+00 -0.00000000000E+00 -0.73580190414E+03  0.73580190414E+03  0.00000000000E+00 0. -1.
         23    2    1    2    0    0  0.12944177243E+04  0.10584393356E+04  0.15727384052E+04  0.22975885899E+04  0.97960017720E+02 0.  0.
         11    1    3    3    0    0  0.10639506592E+04  0.82609871270E+03  0.12907179364E+04  0.18655784303E+04  0.00000000000E+00 0. -1.
        -11    1    3    3    0    0  0.23046706510E+03  0.23234062293E+03  0.28202046879E+03  0.43201015957E+03  0.00000000000E+00 0.  1.
         22    1    1    2    0    0 -0.12944177243E+04 -0.10584393356E+04  0.14986000920E+04  0.22453537155E+04  0.00000000000E+00 0.  1.
<mgrwt>
<rscale>  0 0.33474176E+04</rscale>
<asrwt>0</asrwt>
<pdfrwt beam="1">  1        2 0.58571390E+00 0.33474176E+04</pdfrwt>
<pdfrwt beam="2">  1       -2 0.11320030E+00 0.33474176E+04</pdfrwt>
<totfact> 0.24679492E-01</totfact>
</mgrwt>
</event>
<event>
 6    1  0.5040916E-004  0.2305374E+04  0.7818608E-02  0.8475805E-01
          2   -1    0    0  501    0  0.00000000000E+00  0.00000000000E+00  0.65691675486E+03  0.65691675486E+03  0.00000000000E+00 0.  1.
         -2   -1    0    0    0  501 -0.00000000000E+00 -0.00000000000E+00 -0.20226116975E+04  0.20226116975E+04  0.00000000000E+00 0. -1.
         23    2    1    2    0    0  0.58544695422E+03  0.68685747160E+02  0.46490430108E+03  0.75636453341E+03  0.92116394720E+02 0.  0.
         13    1    3    3    0    0  0.39259181296E+03  0.20876985744E+02  0.26245328274E+03  0.47270065132E+03  0.00000000000E+00 0. -1.
        -13    1    3    3    0    0  0.19285514126E+03  0.47808761416E+02  0.20245101834E+03  0.28366388209E+03  0.00000000000E+00 0.  1.
         22    1    1    2    0    0 -0.58544695422E+03 -0.68685747160E+02 -0.18305992437E+04  0.19231639190E+04  0.00000000000E+00 0. -1.
<mgrwt>
<rscale>  0 0.23053742E+04</rscale>
<asrwt>0</asrwt>
<pdfrwt beam="1">  1        2 0.10106412E+00 0.23053742E+04</pdfrwt>
<pdfrwt beam="2">  1       -2 0.31117102E+00 0.23053742E+04</pdfrwt>
<totfact> 0.10920561E+00</totfact>
</mgrwt>
</event>
<event>
 6    1  0.5040916E-004  0.1748715E+04  0.7818608E-02  0.8734058E-01
          2   -1    0    0  501    0  0.00000000000E+00  0.00000000000E+00  0.23748794931E+04  0.23748794931E+04  0.00000000000E+00 0.  1.
         -2   -1    0    0    0  501 -0.00000000000E+00 -0.00000000000E+00 -0.32191142607E+03  0.32191142607E+03  0.00000000000E+00 0. -1.
         23    2    1    2    0    0 -0.35370740659E+03 -0.57575936175E+03  0.17931424953E+03  0.70501121248E+03  0.90991414520E+02 0.  0.
         11    1    3    3    0    0 -0.29561549034E+03 -0.45960621107E+03  0.17933485023E+03  0.57514117909E+03  0.00000000000E+00 0.  1.
        -11    1    3    3    0    0 -0.58091916247E+02 -0.11615315068E+03 -0.20600702312E-01  0.12987003338E+03  0.00000000000E+00 0. -1.
         22    1    1    2    0    0  0.35370740659E+03  0.57575936175E+03  0.18736538175E+04  0.19917797066E+04  0.00000000000E+00 0.  1.
<mgrwt>
<rscale>  0 0.17487148E+04</rscale>
<asrwt>0</asrwt>
<pdfrwt beam="1">  1        2 0.36536607E+00 0.17487148E+04</pdfrwt>
<pdfrwt beam="2">  1       -2 0.49524836E-01 0.17487148E+04</pdfrwt>
<totfact> 0.15044997E+01</totfact>
</mgrwt>
</event>
<event>
 6    1  0.5040916E-004  0.2799166E+04  0.7818608E-02  0.8303527E-01
         -2   -1    0    0    0  501 -0.00000000000E+00  0.00000000000E+00  0.11136719421E+04  0.11136719421E+04  0.00000000000E+00 0. -1.
          2   -1    0    0  501    0  0.00000000000E+00 -0.00000000000E+00 -0.17588951149E+04  0.17588951149E+04  0.00000000000E+00 0.  1.
         23    2    1    2    0    0  0.82047838672E+03  0.85779635050E+02  0.83542572513E+03  0.11776145245E+04  0.91087305215E+02 0.  0.
         13    1    3    3    0    0  0.64212182389E+03  0.41526574441E+02  0.68808586535E+03  0.94207592645E+03  0.00000000000E+00 0.  1.
        -13    1    3    3    0    0  0.17835656284E+03  0.44253060609E+02  0.14733985978E+03  0.23553859803E+03  0.00000000000E+00 0. -1.
         22    1    1    2    0    0 -0.82047838672E+03 -0.85779635050E+02 -0.14806488979E+04  0.16949525326E+04  0.00000000000E+00 0.  1.
<mgrwt>
<rscale>  0 0.27991657E+04</rscale>
<asrwt>0</asrwt>
<pdfrwt beam="1">  1        2 0.27059925E+00 0.27991657E+04</pdfrwt>
<pdfrwt beam="2">  1       -2 0.17133414E+00 0.27991657E+04</pdfrwt>
<totfact> 0.16506125E+00</totfact>
</mgrwt>
</event>
<event>
 6    1  0.5040916E-004  0.8529232E+03  0.7818608E-02  0.9486422E-01
         -2   -1    0    0    0  501 -0.00000000000E+00  0.00000000000E+00  0.15915063201E+03  0.15915063201E+03  0.00000000000E+00 0. -1.
          2   -1    0    0  501    0  0.00000000000E+00 -0.00000000000E+00 -0.11427508216E+04  0.11427508216E+04  0.00000000000E+00 0.  1.
         23    2    1    2    0    0 -0.18567820557E+03  0.28586306173E+03 -0.87808636535E+03  0.94507200810E+03  0.77015254378E+02 0.  0.
         13    1    3    3    0    0 -0.92595898534E+02  0.16776528535E+03 -0.58626819365E+03  0.61678974236E+03  0.00000000000E+00 0. -1.
        -13    1    3    3    0    0 -0.93082307039E+02  0.11809777638E+03 -0.29181817169E+03  0.32828226574E+03  0.00000000000E+00 0.  1.
         22    1    1    2    0    0  0.18567820557E+03 -0.28586306173E+03 -0.10551382427E+03  0.35682944553E+03  0.00000000000E+00 0. -1.
<mgrwt>
<rscale>  0 0.85292325E+03</rscale>
<asrwt>0</asrwt>
<pdfrwt beam="1">  1        2 0.17580782E+00 0.85292325E+03</pdfrwt>
<pdfrwt beam="2">  1       -2 0.24484713E-01 0.85292325E+03</pdfrwt>
<totfact> 0.30634240E+02</totfact>
</mgrwt>
</event>
<event>
 6    1  0.5040916E-004  0.5065978E+03  0.7818608E-02  0.1012071E+00
          2   -1    0    0  501    0  0.00000000000E+00  0.00000000000E+00  0.88766936784E+03  0.88766936784E+03  0.00000000000E+00 0.  1.
         -2   -1    0    0    0  501 -0.00000000000E+00 -0.00000000000E+00 -0.72279533412E+02  0.72279533412E+02  0.00000000000E+00 0. -1.
         23    2    1    2    0    0 -0.14724254203E+03  0.88736311378E+02  0.88481064297E+02  0.21298781844E+03  0.89333156922E+02 0.  0.
         11    1    3    3    0    0 -0.43801588402E+01  0.33366101619E+02 -0.42101261537E+01  0.33914712013E+02  0.00000000000E+00 0. -1.
        -11    1    3    3    0    0 -0.14286238319E+03  0.55370209758E+02  0.92691190451E+02  0.17907310643E+03  0.00000000000E+00 0.  1.
         22    1    1    2    0    0  0.14724254203E+03 -0.88736311378E+02  0.72690877013E+03  0.74696108281E+03  0.00000000000E+00 0.  1.
<mgrwt>
<rscale>  0 0.50659778E+03</rscale>
<asrwt>0</asrwt>
<pdfrwt beam="1">  1        2 0.13656451E+00 0.50659778E+03</pdfrwt>
<pdfrwt beam="2">  1       -2 0.11119929E-01 0.50659778E+03</pdfrwt>
<totfact> 0.17322540E+03</totfact>
</mgrwt>
</event>
<event>
 6    1  0.5040916E-004  0.3062497E+04  0.7818608E-02  0.8226106E-01
         -2   -1    0    0    0  501 -0.00000000000E+00  0.00000000000E+00  0.19283243491E+04  0.19283243491E+04  0.00000000000E+00 0. -1.
          2   -1    0    0  501    0  0.00000000000E+00 -0.00000000000E+00 -0.12159377902E+04  0.12159377902E+04  0.00000000000E+00 0.  1.
         23    2    1    2    0    0  0.34521373194E+03  0.81405941666E+03  0.16383744084E+04  0.18639033022E+04  0.89440276706E+02 0.  0.
         11    1    3    3    0    0  0.17756356853E+03  0.33551738586E+03  0.63894722534E+03  0.74320541834E+03  0.00000000000E+00 0.  1.
        -11    1    3    3    0    0  0.16765016341E+03  0.47854203080E+03  0.99942718308E+03  0.11206978838E+04  0.00000000000E+00 0. -1.
         22    1    1    2    0    0 -0.34521373194E+03 -0.81405941666E+03 -0.92598784948E+03  0.12803588372E+04  0.00000000000E+00 0.  1.
<mgrwt>
<rscale>  0 0.30624973E+04</rscale>
<asrwt>0</asrwt>
<pdfrwt beam="1">  1        2 0.18706735E+00 0.30624973E+04</pdfrwt>
<pdfrwt beam="2">  1       -2 0.29666529E+00 0.30624973E+04</pdfrwt>
<totfact> 0.52567028E-01</totfact>
</mgrwt>
</event>
<event>
 6    1  0.5040916E-004  0.1763046E+04  0.7818608E-02  0.8726202E-01
         -2   -1    0    0    0  501 -0.00000000000E+00  0.00000000000E+00  0.90317022386E+03  0.90317022386E+03  0.00000000000E+00 0. -1.
          2   -1    0    0  501    0  0.00000000000E+00 -0.00000000000E+00 -0.86039497884E+03  0.86039497884E+03  0.00000000000E+00 0.  1.
         23    2    1    2    0    0 -0.81902224995E+02  0.87089167269E+03  0.11177016236E+03  0.88611401965E+03  0.86863148745E+02 0.  0.
         13    1    3    3    0    0  0.89480325803E+01  0.35785220078E+03  0.40817842420E+02  0.36028372312E+03  0.00000000000E+00 0. -1.
        -13    1    3    3    0    0 -0.90850257575E+02  0.51303947191E+03  0.70952319942E+02  0.52583029653E+03  0.00000000000E+00 0.  1.
         22    1    1    2    0    0  0.81902224995E+02 -0.87089167269E+03 -0.68994917346E+02  0.87745118305E+03  0.00000000000E+00 0.  1.
<mgrwt>
<rscale>  0 0.17630464E+04</rscale>
<asrwt>0</asrwt>
<pdfrwt beam="1">  1        2 0.13236846E+00 0.17630464E+04</pdfrwt>
<pdfrwt beam="2">  1       -2 0.13894927E+00 0.17630464E+04</pdfrwt>
<totfact> 0.10822414E+01</totfact>
</mgrwt>
</event>
<event>
 6    1  0.5040916E-004  0.2198255E+04  0.7818608E-02  0.8519155E-01
         -2   -1    0    0    0  501 -0.00000000000E+00  0.00000000000E+00  0.67342595767E+03  0.67342595767E+03  0.00000000000E+00 0. -1.
          2   -1    0    0  501    0  0.00000000000E+00 -0.00000000000E+00 -0.17939341060E+04  0.17939341060E+04  0.00000000000E+00 0.  1.
         23    2    1    2    0    0 -0.57156348996E+03 -0.90642692180E+03 -0.29442699118E+03  0.11143247109E+04  0.82083619546E+02 0.  0.
         11    1    3    3    0    0 -0.23962344084E+03 -0.41592155110E+03 -0.94499668061E+02  0.48922419945E+03  0.00000000000E+00 0. -1.
        -11    1    3    3    0    0 -0.33194004912E+03 -0.49050537070E+03 -0.19992732312E+03  0.62510051146E+03  0.00000000000E+00 0.  1.
         22    1    1    2    0    0  0.57156348996E+03  0.90642692180E+03 -0.82608115719E+03  0.13530353528E+04  0.00000000000E+00 0.  1.
<mgrwt>
<rscale>  0 0.21982555E+04</rscale>
<asrwt>0</asrwt>
<pdfrwt beam="1">  1        2 0.27598986E+00 0.21982555E+04</pdfrwt>
<pdfrwt beam="2">  1       -2 0.10360400E+00 0.21982555E+04</pdfrwt>
<totfact> 0.60344724E+00</totfact>
</mgrwt>
</event>
<event>
 6    1  0.5040916E-004  0.9098603E+03  0.7818608E-02  0.9413339E-01
         -2   -1    0    0    0  501 -0.00000000000E+00  0.00000000000E+00  0.11682312010E+03  0.11682312010E+03  0.00000000000E+00 0. -1.
          2   -1    0    0  501    0  0.00000000000E+00 -0.00000000000E+00 -0.17715794858E+04  0.17715794858E+04  0.00000000000E+00 0.  1.
         23    2    1    2    0    0  0.24231675446E+03 -0.21491839637E+02 -0.16223197606E+04  0.16429816573E+04  0.91038519274E+02 0.  0.
         13    1    3    3    0    0  0.17448668274E+03 -0.50877789496E+02 -0.10108510871E+04  0.10270608903E+04  0.00000000000E+00 0. -1.
        -13    1    3    3    0    0  0.67830071712E+02  0.29385949860E+02 -0.61146867347E+03  0.61592076707E+03  0.00000000000E+00 0.  1.
         22    1    1    2    0    0 -0.24231675446E+03  0.21491839637E+02 -0.32436605122E+02  0.24542094860E+03  0.00000000000E+00 0. -1.
<mgrwt>
<rscale>  0 0.90986030E+03</rscale>
<asrwt>0</asrwt>
<pdfrwt beam="1">  1        2 0.27255071E+00 0.90986030E+03</pdfrwt>
<pdfrwt beam="2">  1       -2 0.17972787E-01 0.90986030E+03</pdfrwt>
<totfact> 0.23168451E+02</totfact>
</mgrwt>
</event>
<event>
 6    1  0.5040916E-004  0.1629520E+04  0.7818608E-02  0.8802615E-01
          2   -1    0    0  501    0  0.00000000000E+00  0.00000000000E+00  0.48356658846E+04  0.48356658846E+04  0.00000000000E+00 0.  1.
         -2   -1    0    0    0  501 -0.00000000000E+00 -0.00000000000E+00 -0.13727875018E+03  0.13727875018E+03  0.00000000000E+00 0. -1.
         23    2    1    2    0    0 -0.66633312478E+03 -0.46457114698E+03  0.23534593620E+04  0.24913096009E+04  0.89590038054E+02 0.  0.
         13    1    3    3    0    0 -0.94115696853E+02 -0.81251051129E+02  0.45874949508E+03  0.47530053329E+03  0.00000000000E+00 0. -1.
        -13    1    3    3    0    0 -0.57221742793E+03 -0.38332009585E+03  0.18947098669E+04  0.20160090676E+04  0.00000000000E+00 0.  1.
         22    1    1    2    0    0  0.66633312478E+03  0.46457114698E+03  0.23449277724E+04  0.24816350339E+04  0.00000000000E+00 0. -1.
<mgrwt>
<rscale>  0 0.16295204E+04</rscale>
<asrwt>0</asrwt>
<pdfrwt beam="1">  1        2 0.74394847E+00 0.16295204E+04</pdfrwt>
<pdfrwt beam="2">  1       -2 0.21119811E-01 0.16295204E+04</pdfrwt>
<totfact> 0.10458196E+00</totfact>
</mgrwt>
</event>
<event>
 6    1  0.5040916E-004  0.2281655E+04  0.7818608E-02  0.8485190E-01
         -2   -1    0    0    0  501 -0.00000000000E+00  0.00000000000E+00  0.15777906390E+04  0.15777906390E+04  0.00000000000E+00 0. -1.
          2   -1    0    0  501    0  0.00000000000E+00 -0.00000000000E+00 -0.82487954271E+03  0.82487954271E+03  0.00000000000E+00 0.  1.
         23    2    1    2    0    0 -0.56454440724E+03  0.88170639307E+03 -0.95824624131E+02  0.10549057830E+04  0.86760020152E+02 0.  0.
         13    1    3    3    0    0 -0.26997065271E+03  0.50142548211E+03 -0.56147469015E+02  0.57224488264E+03  0.00000000000E+00 0.  1.
        -13    1    3    3    0    0 -0.29457375453E+03  0.38028091095E+03 -0.39677155116E+02  0.48266090036E+03  0.00000000000E+00 0. -1.
         22    1    1    2    0    0  0.56454440724E+03 -0.88170639307E+03  0.84873572042E+03  0.13477643987E+04  0.00000000000E+00 0.  1.
<mgrwt>
<rscale>  0 0.22816549E+04</rscale>
<asrwt>0</asrwt>
<pdfrwt beam="1">  1        2 0.12690455E+00 0.22816549E+04</pdfrwt>
<pdfrwt beam="2">  1       -2 0.24273702E+00 0.22816549E+04</pdfrwt>
<totfact> 0.21379847E+00</totfact>
</mgrwt>
</event>
<event>
 6    1  0.5040916E-004  0.1699478E+04  0.7818608E-02  0.8761662E-01
         -2   -1    0    0    0  501 -0.00000000000E+00  0.00000000000E+00  0.42668565167E+03  0.42668565167E+03  0.00000000000E+00 0. -1.
          2   -1    0    0  501    0  0.00000000000E+00 -0.00000000000E+00 -0.16922445952E+04  0.16922445952E+04  0.00000000000E+00 0.  1.
         23    2    1    2    0    0 -0.46455747231E+03 -0.64574221013E+03 -0.27076586244E+03  0.84519168611E+03  0.90764458791E+02 0.  0.
         13    1    3    3    0    0 -0.26260030341E+03 -0.40106064262E+03 -0.12134320067E+03  0.49450250834E+03  0.00000000000E+00 0.  1.
        -13    1    3    3    0    0 -0.20195716890E+03 -0.24468156751E+03 -0.14942266178E+03  0.35068917777E+03  0.00000000000E+00 0. -1.
         22    1    1    2    0    0  0.46455747231E+03  0.64574221013E+03 -0.99479308113E+03  0.12737385608E+04  0.00000000000E+00 0.  1.
<mgrwt>
<rscale>  0 0.16994781E+04</rscale>
<asrwt>0</asrwt>
<pdfrwt beam="1">  1        2 0.26034532E+00 0.16994781E+04</pdfrwt>
<pdfrwt beam="2">  1       -2 0.65643947E-01 0.16994781E+04</pdfrwt>
<totfact> 0.20142363E+01</totfact>
</mgrwt>
</event>
<event>
 6    1  0.5040916E-004  0.2885543E+04  0.7818608E-02  0.8277192E-01
         -2   -1    0    0    0  501 -0.00000000000E+00  0.00000000000E+00  0.19562308621E+04  0.19562308621E+04  0.00000000000E+00 0. -1.
          2   -1    0    0  501    0  0.00000000000E+00 -0.00000000000E+00 -0.10640818927E+04  0.10640818927E+04  0.00000000000E+00 0.  1.
         23    2    1    2    0    0 -0.93392739988E+03 -0.68858801663E+03 -0.44802368126E+03  0.12476208530E+04  0.97255997005E+02 0.  0.
         11    1    3    3    0    0 -0.30151549442E+03 -0.18340830269E+03 -0.17055991653E+03  0.39197051420E+03  0.00000000000E+00 0.  1.
        -11    1    3    3    0    0 -0.63241190546E+03 -0.50517971394E+03 -0.27746376473E+03  0.85565033879E+03  0.00000000000E+00 0. -1.
         22    1    1    2    0    0  0.93392739988E+03  0.68858801663E+03  0.13401726507E+04  0.17726919017E+04  0.00000000000E+00 0. -1.
<mgrwt>
<rscale>  0 0.28855432E+04</rscale>
<asrwt>0</asrwt>
<pdfrwt beam="1">  1        2 0.16370491E+00 0.28855432E+04</pdfrwt>
<pdfrwt beam="2">  1       -2 0.30095859E+00 0.28855432E+04</pdfrwt>
<totfact> 0.62143918E-01</totfact>
</mgrwt>
</event>
<event>
 6    1  0.5040916E-004  0.2368354E+04  0.7818608E-02  0.8451447E-01
         -2   -1    0    0    0  501 -0.00000000000E+00  0.00000000000E+00  0.14985614541E+04  0.14985614541E+04  0.00000000000E+00 0. -1.
          2   -1    0    0  501    0  0.00000000000E+00 -0.00000000000E+00 -0.93574777260E+03  0.93574777260E+03  0.00000000000E+00 0.  1.
         23    2    1    2    0    0 -0.46990423364E+03  0.78767561563E+03 -0.48465357008E+03  0.10420339280E+04  0.98502588130E+02 0.  0.
         11    1    3    3    0    0 -0.79258778318E+02  0.18714067549E+03 -0.74088393965E+02  0.21631614938E+03  0.00000000000E+00 0. -1.
        -11    1    3    3    0    0 -0.39064545532E+03  0.60053494014E+03 -0.41056517612E+03  0.82571777862E+03  0.00000000000E+00 0.  1.
         22    1    1    2    0    0  0.46990423364E+03 -0.78767561563E+03  0.10474672516E+04  0.13922752987E+04  0.00000000000E+00 0. -1.
<mgrwt>
<rscale>  0 0.23683543E+04</rscale>
<asrwt>0</asrwt>
<pdfrwt beam="1">  1        2 0.14396120E+00 0.23683543E+04</pdfrwt>
<pdfrwt beam="2">  1       -2 0.23054792E+00 0.23683543E+04</pdfrwt>
<totfact> 0.21214391E+00</totfact>
</mgrwt>
</event>
<event>
 6    1  0.5040916E-004  0.1031120E+04  0.7818608E-02  0.9275057E-01
         -2   -1    0    0    0  501 -0.00000000000E+00  0.00000000000E+00  0.10305347529E+03  0.10305347529E+03  0.00000000000E+00 0. -1.
          2   -1    0    0  501    0  0.00000000000E+00 -0.00000000000E+00 -0.25792630841E+04  0.25792630841E+04  0.00000000000E+00 0.  1.
         23    2    1    2    0    0 -0.38259914241E+03  0.16385962060E+03 -0.20214001864E+04  0.20658072815E+04  0.90933665629E+02 0.  0.
         13    1    3    3    0    0 -0.65904139744E+02  0.62405396910E+02 -0.53666948286E+03  0.54429029298E+03  0.00000000000E+00 0.  1.
        -13    1    3    3    0    0 -0.31669500267E+03  0.10145422369E+03 -0.14847307036E+04  0.15215169885E+04  0.00000000000E+00 0. -1.
         22    1    1    2    0    0  0.38259914241E+03 -0.16385962060E+03 -0.45480942236E+03  0.61650927787E+03  0.00000000000E+00 0. -1.
<mgrwt>
<rscale>  0 0.10311198E+04</rscale>
<asrwt>0</asrwt>
<pdfrwt beam="1">  1        2 0.39680972E+00 0.10311198E+04</pdfrwt>
<pdfrwt beam="2">  1       -2 0.15854380E-01 0.10311198E+04</pdfrwt>
<totfact> 0.10096709E+02</totfact>
</mgrwt>
</event>
<event>
 6    1  0.5040916E-004  0.1329711E+04  0.7818608E-02  0.9006331E-01
          1   -1    0    0  501    0  0.00000000000E+00  0.00000000000E+00  0.18274484847E+04  0.18274484847E+04  0.00000000000E+00 0.  1.
         -1   -1    0    0    0  501 -0.00000000000E+00 -0.00000000000E+00 -0.24188513174E+03  0.24188513174E+03  0.00000000000E+00 0. -1.
         23    2    1    2    0    0 -0.39079729374E+03 -0.33562147344E+03  0.15024629007E+03  0.54437480740E+03  0.91682522972E+02 0.  0.
         13    1    3    3    0    0 -0.23171418631E+03 -0.23418311811E+03  0.58572828886E+02  0.33461018100E+03  0.00000000000E+00 0. -1.
        -13    1    3    3    0    0 -0.15908310743E+03 -0.10143835533E+03  0.91673461185E+02  0.20976462640E+03  0.00000000000E+00 0.  1.
         22    1    1    2    0    0  0.39079729374E+03  0.33562147344E+03  0.14353170628E+04  0.15249588090E+04  0.00000000000E+00 0.  1.
<mgrwt>
<rscale>  0 0.13297107E+04</rscale>
<asrwt>0</asrwt>
<pdfrwt beam="1">  1        1 0.28114591E+00 0.13297107E+04</pdfrwt>
<pdfrwt beam="2">  1       -1 0.37213098E-01 0.13297107E+04</pdfrwt>
<totfact> 0.26594680E+01</totfact>
</mgrwt>
</event>
<event>
 6    1  0.5040916E-004  0.1417128E+04  0.7818608E-02  0.8941513E-01
          2   -1    0    0  501    0  0.00000000000E+00  0.00000000000E+00  0.19924351634E+04  0.19924351634E+04  0.00000000000E+00 0.  1.
         -2   -1    0    0    0  501 -0.00000000000E+00 -0.00000000000E+00 -0.25198466251E+03  0.25198466251E+03  0.00000000000E+00 0. -1.
         23    2    1    2    0    0 -0.39443728300E+03 -0.45707418460E+03  0.29547280863E+03  0.67838722358E+03  0.91692224487E+02 0.  0.
         11    1    3    3    0    0 -0.83509493565E+02 -0.11368687715E+03  0.29132842434E+02  0.14403910601E+03  0.00000000000E+00 0.  1.
        -11    1    3    3    0    0 -0.31092778944E+03 -0.34338730745E+03  0.26633996619E+03  0.53434811757E+03  0.00000000000E+00 0. -1.
         22    1    1    2    0    0  0.39443728300E+03  0.45707418460E+03  0.14449776923E+04  0.15660326023E+04  0.00000000000E+00 0.  1.
<mgrwt>
<rscale>  0 0.14171282E+04</rscale>
<asrwt>0</asrwt>
<pdfrwt beam="1">  1        2 0.30652848E+00 0.14171282E+04</pdfrwt>
<pdfrwt beam="2">  1       -2 0.38766873E-01 0.14171282E+04</pdfrwt>
<totfact> 0.41257369E+01</totfact>
</mgrwt>
</event>
<event>
 6    1  0.5040916E-004  0.3660138E+04  0.7818608E-02  0.8076854E-01
         -2   -1    0    0    0  501 -0.00000000000E+00  0.00000000000E+00  0.20573299378E+04  0.20573299378E+04  0.00000000000E+00 0. -1.
          2   -1    0    0  501    0  0.00000000000E+00 -0.00000000000E+00 -0.16279118032E+04  0.16279118032E+04  0.00000000000E+00 0.  1.
         23    2    1    2    0    0  0.84453344893E+03  0.15442447386E+04 -0.28564071655E+03  0.17854423518E+04  0.91023148672E+02 0.  0.
         11    1    3    3    0    0  0.36210220322E+03  0.56992155734E+03 -0.10835472181E+03  0.68386353378E+03  0.00000000000E+00 0.  1.
        -11    1    3    3    0    0  0.48243124571E+03  0.97432318122E+03 -0.17728599474E+03  0.11015788180E+04  0.00000000000E+00 0. -1.
         22    1    1    2    0    0 -0.84453344893E+03 -0.15442447386E+04  0.71505885111E+03  0.18997993893E+04  0.00000000000E+00 0.  1.
<mgrwt>
<rscale>  0 0.36601375E+04</rscale>
<asrwt>0</asrwt>
<pdfrwt beam="1">  1        2 0.25044797E+00 0.36601375E+04</pdfrwt>
<pdfrwt beam="2">  1       -2 0.31651230E+00 0.36601375E+04</pdfrwt>
<totfact> 0.21950262E-01</totfact>
</mgrwt>
</event>
<event>
 6    1  0.5040916E-004  0.2122609E+04  0.7818608E-02  0.8551349E-01
         -2   -1    0    0    0  501 -0.00000000000E+00  0.00000000000E+00  0.62403572295E+03  0.62403572295E+03  0.00000000000E+00 0. -1.
          2   -1    0    0  501    0  0.00000000000E+00 -0.00000000000E+00 -0.18049730890E+04  0.18049730890E+04  0.00000000000E+00 0.  1.
         23    2    1    2    0    0 -0.63959914716E+03 -0.77458211526E+03 -0.20665380996E+03  0.10296185983E+04  0.91346256181E+02 0.  0.
         11    1    3    3    0    0 -0.34834388030E+03 -0.46363387503E+03 -0.81821468708E+02  0.58565739281E+03  0.00000000000E+00 0. -1.
        -11    1    3    3    0    0 -0.29125526686E+03 -0.31094824023E+03 -0.12483234125E+03  0.44396120551E+03  0.00000000000E+00 0.  1.
         22    1    1    2    0    0  0.63959914716E+03  0.77458211526E+03 -0.97428355609E+03  0.13993902136E+04  0.00000000000E+00 0.  1.
<mgrwt>
<rscale>  0 0.21226094E+04</rscale>
<asrwt>0</asrwt>
<pdfrwt beam="1">  1        2 0.27768816E+00 0.21226094E+04</pdfrwt>
<pdfrwt beam="2">  1       -2 0.96005497E-01 0.21226094E+04</pdfrwt>
<totfact> 0.71715356E+00</totfact>
</mgrwt>
</event>
<event>
 6    1  0.5040916E-004  0.8353374E+03  0.7818608E-02  0.9510231E-01
         -1   -1    0    0    0  501 -0.00000000000E+00  0.00000000000E+00  0.44707356751E+03  0.44707356751E+03  0.00000000000E+00 0. -1.
          1   -1    0    0  501    0  0.00000000000E+00 -0.00000000000E+00 -0.39019786403E+03  0.39019786403E+03  0.00000000000E+00 0.  1.
         23    2    1    2    0    0 -0.31057782740E+03 -0.24306696246E+03 -0.93395310169E+02  0.41522698760E+03  0.90280851556E+02 0.  0.
         11    1    3    3    0    0 -0.47384780620E+02 -0.65158831717E+02  0.99016995328E+01  0.81172867627E+02  0.00000000000E+00 0. -1.
        -11    1    3    3    0    0 -0.26319304678E+03 -0.17790813075E+03 -0.10329700970E+03  0.33405411998E+03  0.00000000000E+00 0.  1.
         22    1    1    2    0    0  0.31057782740E+03  0.24306696246E+03  0.15027101365E+03  0.42204444394E+03  0.00000000000E+00 0. -1.
<mgrwt>
<rscale>  0 0.83533742E+03</rscale>
<asrwt>0</asrwt>
<pdfrwt beam="1">  1        1 0.60030440E-01 0.83533742E+03</pdfrwt>
<pdfrwt beam="2">  1       -1 0.68780549E-01 0.83533742E+03</pdfrwt>
<totfact> 0.13412640E+02</totfact>
</mgrwt>
</event>
<event>
 6    1  0.5040916E-004  0.2096752E+03  0.7818608E-02  0.1141823E+00
          2   -1    0    0  501    0  0.00000000000E+00  0.00000000000E+00  0.39916073310E+03  0.39916073310E+03  0.00000000000E+00 0.  1.
         -2   -1    0    0    0  501 -0.00000000000E+00 -0.00000000000E+00 -0.27535074009E+02  0.27535074009E+02  0.00000000000E+00 0. -1.
         23    2    1    2    0    0  0.70757682776E+02 -0.10903425739E+02  0.31464228453E+03  0.33519367958E+03  0.90716598573E+02 0.  0.
         11    1    3    3    0    0  0.52034074338E+02  0.22089362263E+02  0.82725604281E+02  0.10019486225E+03  0.00000000000E+00 0.  1.
        -11    1    3    3    0    0  0.18723608438E+02 -0.32992788002E+02  0.23191668024E+03  0.23499881733E+03  0.00000000000E+00 0. -1.
         22    1    1    2    0    0 -0.70757682776E+02  0.10903425739E+02  0.56983374566E+02  0.91502127525E+02  0.00000000000E+00 0. -1.
<mgrwt>
<rscale>  0 0.20967518E+03</rscale>
<asrwt>0</asrwt>
<pdfrwt beam="1">  1        2 0.61409340E-01 0.20967518E+03</pdfrwt>
<pdfrwt beam="2">  1       -2 0.42361655E-02 0.20967518E+03</pdfrwt>
<totfact> 0.19615461E+04</totfact>
</mgrwt>
</event>
<event>
 6    1  0.5040916E-004  0.1172475E+04  0.7818608E-02  0.9137296E-01
          2   -1    0    0  501    0  0.00000000000E+00  0.00000000000E+00  0.24203692938E+04  0.24203692938E+04  0.00000000000E+00 0.  1.
         -2   -1    0    0    0  501 -0.00000000000E+00 -0.00000000000E+00 -0.14199259611E+03  0.14199259611E+03  0.00000000000E+00 0. -1.
         23    2    1    2    0    0 -0.32064186975E+03 -0.29616354364E+03  0.19899098805E+04  0.20391629241E+04  0.88994636002E+02 0.  0.
         11    1    3    3    0    0 -0.26534017146E+03 -0.19357941055E+03  0.15094146086E+04  0.15447365003E+04  0.00000000000E+00 0. -1.
        -11    1    3    3    0    0 -0.55301698292E+02 -0.10258413309E+03  0.48049527189E+03  0.49442642376E+03  0.00000000000E+00 0.  1.
         22    1    1    2    0    0  0.32064186975E+03  0.29616354364E+03  0.28846681718E+03  0.52319896582E+03  0.00000000000E+00 0. -1.
<mgrwt>
<rscale>  0 0.11724752E+04</rscale>
<asrwt>0</asrwt>
<pdfrwt beam="1">  1        2 0.37236448E+00 0.11724752E+04</pdfrwt>
<pdfrwt beam="2">  1       -2 0.21845017E-01 0.11724752E+04</pdfrwt>
<totfact> 0.70356634E+01</totfact>
</mgrwt>
</event>
<event>
 6    1  0.5040916E-004  0.9518956E+03  0.7818608E-02  0.9362938E-01
         -2   -1    0    0    0  501 -0.00000000000E+00  0.00000000000E+00  0.13775125716E+03  0.13775125716E+03  0.00000000000E+00 0. -1.
          2   -1    0    0  501    0  0.00000000000E+00 -0.00000000000E+00 -0.16444590205E+04  0.16444590205E+04  0.00000000000E+00 0.  1.
         23    2    1    2    0    0 -0.21382838993E+03  0.18307273127E+03 -0.51536410908E+02  0.30006255552E+03  0.90240402830E+02 0.  0.
         11    1    3    3    0    0 -0.14703212965E+02  0.31994629140E+02  0.19451162804E+02  0.40226713758E+02  0.00000000000E+00 0. -1.
        -11    1    3    3    0    0 -0.19912517697E+03  0.15107810213E+03 -0.70987573711E+02  0.25983584177E+03  0.00000000000E+00 0.  1.
         22    1    1    2    0    0  0.21382838993E+03 -0.18307273127E+03 -0.14551713524E+04  0.14821477221E+04  0.00000000000E+00 0.  1.
<mgrwt>
<rscale>  0 0.95189558E+03</rscale>
<asrwt>0</asrwt>
<pdfrwt beam="1">  1        2 0.25299370E+00 0.95189558E+03</pdfrwt>
<pdfrwt beam="2">  1       -2 0.21192500E-01 0.95189558E+03</pdfrwt>
<totfact> 0.20345688E+02</totfact>
</mgrwt>
</event>
<event>
 6    1  0.5040916E-004  0.2897158E+04  0.7818608E-02  0.8273724E-01
          2   -1    0    0  501    0  0.00000000000E+00  0.00000000000E+00  0.37896411059E+04  0.37896411059E+04  0.00000000000E+00 0.  1.
         -2   -1    0    0    0  501 -0.00000000000E+00 -0.00000000000E+00 -0.55371495420E+03  0.55371495420E+03  0.00000000000E+00 0. -1.
         23    2    1    2    0    0 -0.13473352138E+04  0.52477485067E+03  0.15318501118E+04  0.21085012612E+04  0.92260399338E+02 0.  0.
         11    1    3    3    0    0 -0.80630114112E+03  0.28629009953E+03  0.85126222249E+03  0.12069510855E+04  0.00000000000E+00 0. -1.
        -11    1    3    3    0    0 -0.54103407270E+03  0.23848475113E+03  0.68058788932E+03  0.90155017577E+03  0.00000000000E+00 0.  1.
         22    1    1    2    0    0  0.13473352138E+04 -0.52477485067E+03  0.17040760399E+04  0.22348547989E+04  0.00000000000E+00 0. -1.
<mgrwt>
<rscale>  0 0.28971579E+04</rscale>
<asrwt>0</asrwt>
<pdfrwt beam="1">  1        2 0.58302169E+00 0.28971579E+04</pdfrwt>
<pdfrwt beam="2">  1       -2 0.85186919E-01 0.28971579E+04</pdfrwt>
<totfact> 0.51746378E-01</totfact>
</mgrwt>
</event>
<event>
 6    1  0.5040916E-004  0.1396013E+04  0.7818608E-02  0.8956710E-01
         -2   -1    0    0    0  501 -0.00000000000E+00  0.00000000000E+00  0.44193827493E+03  0.44193827493E+03  0.00000000000E+00 0. -1.
          2   -1    0    0  501    0  0.00000000000E+00 -0.00000000000E+00 -0.11024457355E+04  0.11024457355E+04  0.00000000000E+00 0.  1.
         23    2    1    2    0    0 -0.56744495257E+03  0.32621048408E+03 -0.59037740808E+03  0.88610954005E+03  0.90761108914E+02 0.  0.
         13    1    3    3    0    0 -0.41139952587E+03  0.27031444814E+03 -0.47570842365E+03  0.68455677273E+03  0.00000000000E+00 0.  1.
        -13    1    3    3    0    0 -0.15604542669E+03  0.55896035940E+02 -0.11466898442E+03  0.20155276732E+03  0.00000000000E+00 0. -1.
         22    1    1    2    0    0  0.56744495257E+03 -0.32621048408E+03 -0.70130052521E+02  0.65827447040E+03  0.00000000000E+00 0. -1.
<mgrwt>
<rscale>  0 0.13960128E+04</rscale>
<asrwt>0</asrwt>
<pdfrwt beam="1">  1        2 0.16960703E+00 0.13960128E+04</pdfrwt>
<pdfrwt beam="2">  1       -2 0.67990505E-01 0.13960128E+04</pdfrwt>
<totfact> 0.41873653E+01</totfact>
</mgrwt>
</event>
<event>
 6    1  0.5040916E-004  0.1698400E+04  0.7818608E-02  0.8762277E-01
          2   -1    0    0  501    0  0.00000000000E+00  0.00000000000E+00  0.18419667153E+04  0.18419667153E+04  0.00000000000E+00 0.  1.
         -2   -1    0    0    0  501 -0.00000000000E+00 -0.00000000000E+00 -0.39150597760E+03  0.39150597760E+03  0.00000000000E+00 0. -1.
         23    2    1    2    0    0 -0.50283713502E+03  0.54758356315E+03  0.12601780415E+04  0.14660741997E+04  0.92908124532E+02 0.  0.
         13    1    3    3    0    0 -0.17190402017E+03  0.21226855927E+03  0.54583784881E+03  0.61036701304E+03  0.00000000000E+00 0.  1.
        -13    1    3    3    0    0 -0.33093311485E+03  0.33531500388E+03  0.71434019272E+03  0.85570718664E+03  0.00000000000E+00 0. -1.
         22    1    1    2    0    0  0.50283713502E+03 -0.54758356315E+03  0.19028269621E+03  0.76739849327E+03  0.00000000000E+00 0. -1.
<mgrwt>
<rscale>  0 0.16984004E+04</rscale>
<asrwt>0</asrwt>
<pdfrwt beam="1">  1        2 0.28337949E+00 0.16984004E+04</pdfrwt>
<pdfrwt beam="2">  1       -2 0.60231690E-01 0.16984004E+04</pdfrwt>
<totfact> 0.19992035E+01</totfact>
</mgrwt>
</event>
<event>
 6    1  0.5040916E-004  0.4583711E+04  0.7818608E-02  0.7896143E-01
         -2   -1    0    0    0  501 -0.00000000000E+00  0.00000000000E+00  0.20418730874E+04  0.20418730874E+04  0.00000000000E+00 0.  1.
          2   -1    0    0  501    0  0.00000000000E+00 -0.00000000000E+00 -0.25724429685E+04  0.25724429685E+04  0.00000000000E+00 0. -1.
         23    2    1    2    0    0  0.81656299463E+03  0.29165157974E+03 -0.24000499618E+04  0.25535415559E+04  0.92189426647E+02 0.  0.
         11    1    3    3    0    0  0.20848656607E+03  0.55491553586E+02 -0.49745412128E+03  0.54222372092E+03  0.00000000000E+00 0.  1.
        -11    1    3    3    0    0  0.60807642856E+03  0.23616002616E+03 -0.19025958405E+04  0.20113178350E+04  0.00000000000E+00 0. -1.
         22    1    1    2    0    0 -0.81656299463E+03 -0.29165157974E+03  0.18694800807E+04  0.20607745001E+04  0.00000000000E+00 0.  1.
<mgrwt>
<rscale>  0 0.45837112E+04</rscale>
<asrwt>0</asrwt>
<pdfrwt beam="1">  1        2 0.39576045E+00 0.45837112E+04</pdfrwt>
<pdfrwt beam="2">  1       -2 0.31413432E+00 0.45837112E+04</pdfrwt>
<totfact> 0.61864905E-02</totfact>
</mgrwt>
</event>
<event>
 6    1  0.5040916E-004  0.5828458E+04  0.7818608E-02  0.7712042E-01
         -2   -1    0    0    0  501 -0.00000000000E+00  0.00000000000E+00  0.26130163774E+04  0.26130163774E+04  0.00000000000E+00 0. -1.
          2   -1    0    0  501    0  0.00000000000E+00 -0.00000000000E+00 -0.32501631120E+04  0.32501631120E+04  0.00000000000E+00 0.  1.
         23    2    1    2    0    0 -0.27810568649E+02  0.15320997069E+04 -0.28113958415E+04  0.32032054071E+04  0.92061734418E+02 0.  0.
         11    1    3    3    0    0 -0.34448838131E+02  0.14615368113E+04 -0.27146338954E+04  0.30832634917E+04  0.00000000000E+00 0.  1.
        -11    1    3    3    0    0  0.66382694817E+01  0.70562895635E+02 -0.96761946081E+02  0.11994191541E+03  0.00000000000E+00 0. -1.
         22    1    1    2    0    0  0.27810568649E+02 -0.15320997069E+04  0.21742491069E+04  0.26599740823E+04  0.00000000000E+00 0. -1.
<mgrwt>
<rscale>  0 0.58284576E+04</rscale>
<asrwt>0</asrwt>
<pdfrwt beam="1">  1        2 0.50002509E+00 0.58284576E+04</pdfrwt>
<pdfrwt beam="2">  1       -2 0.40200252E+00 0.58284576E+04</pdfrwt>
<totfact> 0.59055551E-03</totfact>
</mgrwt>
</event>
<event>
 6    1  0.5040916E-004  0.2780797E+04  0.7818608E-02  0.8309255E-01
          2   -1    0    0  501    0  0.00000000000E+00  0.00000000000E+00  0.17144927339E+04  0.17144927339E+04  0.00000000000E+00 0.  1.
         -2   -1    0    0    0  501 -0.00000000000E+00 -0.00000000000E+00 -0.11275685341E+04  0.11275685341E+04  0.00000000000E+00 0. -1.
         23    2    1    2    0    0  0.21752850227E+02 -0.42605987364E+03  0.16445103629E+04  0.17016715562E+04  0.96288883583E+02 0.  0.
         11    1    3    3    0    0  0.13571248024E+02 -0.87301521136E+02  0.51149933938E+03  0.51907350978E+03  0.00000000000E+00 0.  1.
        -11    1    3    3    0    0  0.81816022028E+01 -0.33875835250E+03  0.11330110236E+04  0.11825980465E+04  0.00000000000E+00 0. -1.
         22    1    1    2    0    0 -0.21752850227E+02  0.42605987364E+03 -0.10575861631E+04  0.11403897118E+04  0.00000000000E+00 0. -1.
<mgrwt>
<rscale>  0 0.27807971E+04</rscale>
<asrwt>0</asrwt>
<pdfrwt beam="1">  1        2 0.26376811E+00 0.27807971E+04</pdfrwt>
<pdfrwt beam="2">  1       -2 0.17347208E+00 0.27807971E+04</pdfrwt>
<totfact> 0.16900127E+00</totfact>
</mgrwt>
</event>
<event>
 6    1  0.5040916E-004  0.1967545E+04  0.7818608E-02  0.8621946E-01
          2   -1    0    0  501    0  0.00000000000E+00  0.00000000000E+00  0.38462789421E+04  0.38462789421E+04  0.00000000000E+00 0.  1.
         -2   -1    0    0    0  501 -0.00000000000E+00 -0.00000000000E+00 -0.25162208317E+03  0.25162208317E+03  0.00000000000E+00 0. -1.
         23    2    1    2    0    0 -0.22802512415E+03  0.18201831423E+03  0.37533369585E+04  0.37657783101E+04  0.91770543287E+02 0.  0.
         13    1    3    3    0    0 -0.94286113575E+02  0.75071848624E+02  0.21369313368E+04  0.21403273562E+04  0.00000000000E+00 0.  1.
        -13    1    3    3    0    0 -0.13373901058E+03  0.10694646560E+03  0.16164056217E+04  0.16254509539E+04  0.00000000000E+00 0. -1.
         22    1    1    2    0    0  0.22802512415E+03 -0.18201831423E+03 -0.15868009956E+03  0.33212271521E+03  0.00000000000E+00 0. -1.
<mgrwt>
<rscale>  0 0.19675454E+04</rscale>
<asrwt>0</asrwt>
<pdfrwt beam="1">  1        2 0.59173518E+00 0.19675454E+04</pdfrwt>
<pdfrwt beam="2">  1       -2 0.38711093E-01 0.19675454E+04</pdfrwt>
<totfact> 0.26834145E+00</totfact>
</mgrwt>
</event>
<event>
 6    1  0.5040916E-004  0.2099879E+04  0.7818608E-02  0.8561296E-01
         -2   -1    0    0    0  501 -0.00000000000E+00  0.00000000000E+00  0.10859710771E+04  0.10859710771E+04  0.00000000000E+00 0. -1.
          2   -1    0    0  501    0  0.00000000000E+00 -0.00000000000E+00 -0.10151038258E+04  0.10151038258E+04  0.00000000000E+00 0.  1.
         23    2    1    2    0    0 -0.10345764048E+04  0.16705589191E+03  0.42365914613E+02  0.10527103030E+04  0.90266842796E+02 0.  0.
         13    1    3    3    0    0 -0.26871193103E+03  0.12329029047E+02  0.35624913840E+02  0.27134340111E+03  0.00000000000E+00 0.  1.
        -13    1    3    3    0    0 -0.76586447375E+03  0.15472686287E+03  0.67410007734E+01  0.78136690187E+03  0.00000000000E+00 0. -1.
         22    1    1    2    0    0  0.10345764048E+04 -0.16705589191E+03  0.28501336692E+02  0.10483646000E+04  0.00000000000E+00 0.  1.
<mgrwt>
<rscale>  0 0.20998794E+04</rscale>
<asrwt>0</asrwt>
<pdfrwt beam="1">  1        2 0.15616982E+00 0.20998794E+04</pdfrwt>
<pdfrwt beam="2">  1       -2 0.16707247E+00 0.20998794E+04</pdfrwt>
<totfact> 0.50766518E+00</totfact>
</mgrwt>
</event>
<event>
 6    1  0.5040916E-004  0.8040142E+03  0.7818608E-02  0.9554225E-01
          2   -1    0    0  501    0  0.00000000000E+00  0.00000000000E+00  0.22398481228E+04  0.22398481228E+04  0.00000000000E+00 0.  1.
         -2   -1    0    0    0  501 -0.00000000000E+00 -0.00000000000E+00 -0.72152089874E+02  0.72152089874E+02  0.00000000000E+00 0. -1.
         23    2    1    2    0    0  0.36316352184E+03  0.11835197579E+03  0.14064866855E+04  0.14603344306E+04  0.92070184603E+02 0.  0.
         11    1    3    3    0    0  0.29472601859E+03  0.60201121571E+02  0.11450328681E+04  0.11838867640E+04  0.00000000000E+00 0. -1.
        -11    1    3    3    0    0  0.68437503245E+02  0.58150854220E+02  0.26145381744E+03  0.27644766656E+03  0.00000000000E+00 0.  1.
         22    1    1    2    0    0 -0.36316352184E+03 -0.11835197579E+03  0.76120934737E+03  0.85166578203E+03  0.00000000000E+00 0. -1.
<mgrwt>
<rscale>  0 0.80401424E+03</rscale>
<asrwt>0</asrwt>
<pdfrwt beam="1">  1        2 0.34459197E+00 0.80401424E+03</pdfrwt>
<pdfrwt beam="2">  1       -2 0.11100323E-01 0.80401424E+03</pdfrwt>
<totfact> 0.29096593E+02</totfact>
</mgrwt>
</event>
<event>
 6    1  0.5040916E-004  0.2240169E+04  0.7818608E-02  0.8501892E-01
         -2   -1    0    0    0  501 -0.00000000000E+00  0.00000000000E+00  0.20928208747E+04  0.20928208747E+04  0.00000000000E+00 0. -1.
          2   -1    0    0  501    0  0.00000000000E+00 -0.00000000000E+00 -0.59947292481E+03  0.59947292481E+03  0.00000000000E+00 0.  1.
         23    2    1    2    0    0  0.57952676477E+03  0.63455492060E+03  0.16074029376E+04  0.18253914067E+04  0.98986694617E+02 0.  0.
         13    1    3    3    0    0  0.52302702273E+03  0.57313973757E+03  0.15054247006E+04  0.16936203690E+04  0.00000000000E+00 0.  1.
        -13    1    3    3    0    0  0.56499742033E+02  0.61415183031E+02  0.10197823702E+03  0.13177103772E+03  0.00000000000E+00 0. -1.
         22    1    1    2    0    0 -0.57952676477E+03 -0.63455492060E+03 -0.11405498771E+03  0.86690239275E+03  0.00000000000E+00 0.  1.
<mgrwt>
<rscale>  0 0.22401691E+04</rscale>
<asrwt>0</asrwt>
<pdfrwt beam="1">  1        2 0.92226605E-01 0.22401691E+04</pdfrwt>
<pdfrwt beam="2">  1       -2 0.32197244E+00 0.22401691E+04</pdfrwt>
<totfact> 0.10539521E+00</totfact>
</mgrwt>
</event>
<event>
 6    1  0.5040916E-004  0.1094804E+04  0.7818608E-02  0.9210271E-01
         -2   -1    0    0    0  501 -0.00000000000E+00  0.00000000000E+00  0.73994190826E+03  0.73994190826E+03  0.00000000000E+00 0.  1.
          2   -1    0    0  501    0  0.00000000000E+00 -0.00000000000E+00 -0.40496253240E+03  0.40496253240E+03  0.00000000000E+00 0. -1.
         23    2    1    2    0    0 -0.19213209763E+03  0.39345795371E+03  0.50513989354E+03  0.67514013160E+03  0.94466824724E+02 0.  0.
         13    1    3    3    0    0 -0.15934628449E+03  0.37823588977E+03  0.44853397429E+03  0.60797726338E+03  0.00000000000E+00 0. -1.
        -13    1    3    3    0    0 -0.32785813141E+02  0.15222063943E+02  0.56605919251E+02  0.67162868225E+02  0.00000000000E+00 0.  1.
         22    1    1    2    0    0  0.19213209763E+03 -0.39345795371E+03 -0.17016051768E+03  0.46976430905E+03  0.00000000000E+00 0. -1.
<mgrwt>
<rscale>  0 0.10948036E+04</rscale>
<asrwt>0</asrwt>
<pdfrwt beam="1">  1        2 0.62301928E-01 0.10948036E+04</pdfrwt>
<pdfrwt beam="2">  1       -2 0.11383722E+00 0.10948036E+04</pdfrwt>
<totfact> 0.47068206E+01</totfact>
</mgrwt>
</event>
<event>
 6    1  0.5040916E-004  0.2243485E+04  0.7818608E-02  0.8500544E-01
         -2   -1    0    0    0  501 -0.00000000000E+00  0.00000000000E+00  0.64936462157E+03  0.64936462157E+03  0.00000000000E+00 0. -1.
          2   -1    0    0  501    0  0.00000000000E+00 -0.00000000000E+00 -0.19377502193E+04  0.19377502193E+04  0.00000000000E+00 0.  1.
         23    2    1    2    0    0  0.12731468466E+03  0.50555702615E+03  0.49726046181E+03  0.72691894109E+03  0.96675976418E+02 0.  0.
         11    1    3    3    0    0  0.91136980755E+02  0.41196456635E+03  0.44705434708E+03  0.61471809998E+03  0.00000000000E+00 0. -1.
        -11    1    3    3    0    0  0.36177703906E+02  0.93592459802E+02  0.50206114727E+02  0.11220084112E+03  0.00000000000E+00 0.  1.
         22    1    1    2    0    0 -0.12731468466E+03 -0.50555702615E+03 -0.17856460595E+04  0.18601958998E+04  0.00000000000E+00 0.  1.
<mgrwt>
<rscale>  0 0.22434852E+04</rscale>
<asrwt>0</asrwt>
<pdfrwt beam="1">  1        2 0.29811542E+00 0.22434852E+04</pdfrwt>
<pdfrwt beam="2">  1       -2 0.99902250E-01 0.22434852E+04</pdfrwt>
<totfact> 0.54559377E+00</totfact>
</mgrwt>
</event>
<event>
 6    1  0.5040916E-004  0.1698487E+04  0.7818608E-02  0.8762228E-01
         -1   -1    0    0    0  501 -0.00000000000E+00  0.00000000000E+00  0.99871766250E+03  0.99871766250E+03  0.00000000000E+00 0. -1.
          1   -1    0    0  501    0  0.00000000000E+00 -0.00000000000E+00 -0.72214077746E+03  0.72214077746E+03  0.00000000000E+00 0.  1.
         23    2    1    2    0    0  0.67791480775E+03  0.48696189918E+03 -0.63570494545E+01  0.83952309567E+03  0.89767690636E+02 0.  0.
         13    1    3    3    0    0  0.27437015191E+03  0.20606082360E+03  0.40951891510E+02  0.34556779465E+03  0.00000000000E+00 0.  1.
        -13    1    3    3    0    0  0.40354465584E+03  0.28090107558E+03 -0.47308940964E+02  0.49395530102E+03  0.00000000000E+00 0. -1.
         22    1    1    2    0    0 -0.67791480775E+03 -0.48696189918E+03  0.28293393449E+03  0.88133534429E+03  0.00000000000E+00 0.  1.
<mgrwt>
<rscale>  0 0.16984873E+04</rscale>
<asrwt>0</asrwt>
<pdfrwt beam="1">  1        1 0.11109858E+00 0.16984873E+04</pdfrwt>
<pdfrwt beam="2">  1       -1 0.15364887E+00 0.16984873E+04</pdfrwt>
<totfact> 0.80807826E+00</totfact>
</mgrwt>
</event>
<event>
 6    1  0.5040916E-004  0.2245095E+04  0.7818608E-02  0.8499890E-01
          2   -1    0    0  501    0  0.00000000000E+00  0.00000000000E+00  0.20228607581E+04  0.20228607581E+04  0.00000000000E+00 0.  1.
         -2   -1    0    0    0  501 -0.00000000000E+00 -0.00000000000E+00 -0.62293602660E+03  0.62293602660E+03  0.00000000000E+00 0. -1.
         23    2    1    2    0    0 -0.17562719951E+03  0.33811594344E+03  0.19435823006E+04  0.19819211511E+04  0.73020445479E+02 0.  0.
         11    1    3    3    0    0 -0.24272136880E+01  0.51740941586E+02  0.20693755085E+03  0.21332174374E+03  0.00000000000E+00 0. -1.
        -11    1    3    3    0    0 -0.17319998583E+03  0.28637500186E+03  0.17366447497E+04  0.17685994073E+04  0.00000000000E+00 0.  1.
         22    1    1    2    0    0  0.17562719951E+03 -0.33811594344E+03 -0.54365756912E+03  0.66387563359E+03  0.00000000000E+00 0. -1.
<mgrwt>
<rscale>  0 0.22450950E+04</rscale>
<asrwt>0</asrwt>
<pdfrwt beam="1">  1        2 0.31120934E+00 0.22450950E+04</pdfrwt>
<pdfrwt beam="2">  1       -2 0.95836313E-01 0.22450950E+04</pdfrwt>
<totfact> 0.53945936E+00</totfact>
</mgrwt>
</event>
<event>
 6    1  0.5040916E-004  0.2087293E+04  0.7818608E-02  0.8566862E-01
         -2   -1    0    0    0  501 -0.00000000000E+00  0.00000000000E+00  0.50242567030E+03  0.50242567030E+03  0.00000000000E+00 0. -1.
          2   -1    0    0  501    0  0.00000000000E+00 -0.00000000000E+00 -0.21678782246E+04  0.21678782246E+04  0.00000000000E+00 0.  1.
         23    2    1    2    0    0  0.28466532379E+02 -0.97742061988E+03 -0.37469832331E+03  0.10509806114E+04  0.89442721567E+02 0.  0.
         11    1    3    3    0    0  0.56244959684E+02 -0.41532772156E+03 -0.16321399703E+03  0.44977707880E+03  0.00000000000E+00 0. -1.
        -11    1    3    3    0    0 -0.27778427306E+02 -0.56209289832E+03 -0.21148432629E+03  0.60120353261E+03  0.00000000000E+00 0.  1.
         22    1    1    2    0    0 -0.28466532379E+02  0.97742061988E+03 -0.12907542310E+04  0.16193232835E+04  0.00000000000E+00 0. -1.
<mgrwt>
<rscale>  0 0.20872927E+04</rscale>
<asrwt>0</asrwt>
<pdfrwt beam="1">  1        2 0.33351972E+00 0.20872927E+04</pdfrwt>
<pdfrwt beam="2">  1       -2 0.77296258E-01 0.20872927E+04</pdfrwt>
<totfact> 0.74141433E+00</totfact>
</mgrwt>
</event>
<event>
 6    1  0.9048699E-004  0.3350094E+04  0.7818608E-02  0.8150265E-01
          2   -1    0    0  501    0  0.00000000000E+00  0.00000000000E+00  0.11804419383E+04  0.11804419383E+04  0.00000000000E+00 0.  1.
         -2   -1    0    0    0  501 -0.00000000000E+00 -0.00000000000E+00 -0.23768916279E+04  0.23768916279E+04  0.00000000000E+00 0. -1.
         23    2    1    2    0    0 -0.14326541551E+04 -0.79042151459E+02 -0.15139421765E+04  0.20877938189E+04  0.90091768787E+02 0.  0.
         11    1    3    3    0    0 -0.81870760060E+03 -0.88534069148E+02 -0.88255530912E+03  0.12070726119E+04  0.00000000000E+00 0.  1.
        -11    1    3    3    0    0 -0.61394655446E+03  0.94919176893E+01 -0.63138686737E+03  0.88072120704E+03  0.00000000000E+00 0. -1.
         22    1    1    2    0    0  0.14326541551E+04  0.79042151459E+02  0.31749248694E+03  0.14695397473E+04  0.00000000000E+00 0.  1.
<mgrwt>
<rscale>  0 0.33500941E+04</rscale>
<asrwt>0</asrwt>
<pdfrwt beam="1">  1        2 0.18160645E+00 0.33500941E+04</pdfrwt>
<pdfrwt beam="2">  1       -2 0.36567563E+00 0.33500941E+04</pdfrwt>
<totfact> 0.20016958E-01</totfact>
</mgrwt>
</event>
<event>
 6    1  0.5040916E-004  0.2422354E+04  0.7818608E-02  0.8431182E-01
         -2   -1    0    0    0  501 -0.00000000000E+00  0.00000000000E+00  0.10598784458E+04  0.10598784458E+04  0.00000000000E+00 0. -1.
          2   -1    0    0  501    0  0.00000000000E+00 -0.00000000000E+00 -0.13840738164E+04  0.13840738164E+04  0.00000000000E+00 0.  1.
         23    2    1    2    0    0  0.91083329724E+03 -0.43969979653E+03  0.50705745439E+03  0.11347790629E+04  0.87538866558E+02 0.  0.
         13    1    3    3    0    0  0.23019796406E+03 -0.72781136779E+02  0.10521140766E+03  0.26335838098E+03  0.00000000000E+00 0. -1.
        -13    1    3    3    0    0  0.68063533318E+03 -0.36691865975E+03  0.40184604673E+03  0.87142068195E+03  0.00000000000E+00 0.  1.
         22    1    1    2    0    0 -0.91083329724E+03  0.43969979653E+03 -0.83125282503E+03  0.13091731992E+04  0.00000000000E+00 0.  1.
<mgrwt>
<rscale>  0 0.24223542E+04</rscale>
<asrwt>0</asrwt>
<pdfrwt beam="1">  1        2 0.21293443E+00 0.24223542E+04</pdfrwt>
<pdfrwt beam="2">  1       -2 0.16305822E+00 0.24223542E+04</pdfrwt>
<totfact> 0.31731015E+00</totfact>
</mgrwt>
</event>
<event>
 6    1  0.5040916E-004  0.1629100E+04  0.7818608E-02  0.8802867E-01
         -2   -1    0    0    0  501 -0.00000000000E+00  0.00000000000E+00  0.73422705647E+03  0.73422705647E+03  0.00000000000E+00 0. -1.
          2   -1    0    0  501    0  0.00000000000E+00 -0.00000000000E+00 -0.90366041003E+03  0.90366041003E+03  0.00000000000E+00 0.  1.
         23    2    1    2    0    0 -0.11379485505E+03  0.78834730384E+03  0.73790755983E+02  0.80506172965E+03  0.90766581838E+02 0.  0.
         11    1    3    3    0    0 -0.51911837946E+02  0.12382538561E+03  0.13780268174E+02  0.13497207427E+03  0.00000000000E+00 0.  1.
        -11    1    3    3    0    0 -0.61883017108E+02  0.66452191822E+03  0.60010487809E+02  0.67008965538E+03  0.00000000000E+00 0. -1.
         22    1    1    2    0    0  0.11379485505E+03 -0.78834730384E+03 -0.24322410954E+03  0.83282573685E+03  0.00000000000E+00 0.  1.
<mgrwt>
<rscale>  0 0.16291003E+04</rscale>
<asrwt>0</asrwt>
<pdfrwt beam="1">  1        2 0.13902468E+00 0.16291003E+04</pdfrwt>
<pdfrwt beam="2">  1       -2 0.11295801E+00 0.16291003E+04</pdfrwt>
<totfact> 0.17184622E+01</totfact>
</mgrwt>
</event>
<event>
 6    1  0.5040916E-004  0.9926678E+03  0.7818608E-02  0.9316623E-01
         -2   -1    0    0    0  501 -0.00000000000E+00  0.00000000000E+00  0.25540722532E+03  0.25540722532E+03  0.00000000000E+00 0. -1.
          2   -1    0    0  501    0  0.00000000000E+00 -0.00000000000E+00 -0.96452774869E+03  0.96452774869E+03  0.00000000000E+00 0.  1.
         23    2    1    2    0    0  0.43474119922E+03  0.22563969958E+03 -0.41743169948E+03  0.64985116060E+03  0.90244794201E+02 0.  0.
         13    1    3    3    0    0  0.18875637740E+03  0.48641336177E+02 -0.15757205069E+03  0.25064696438E+03  0.00000000000E+00 0.  1.
        -13    1    3    3    0    0  0.24598482182E+03  0.17699836340E+03 -0.25985964880E+03  0.39920419623E+03  0.00000000000E+00 0. -1.
         22    1    1    2    0    0 -0.43474119922E+03 -0.22563969958E+03 -0.29168882389E+03  0.57008381341E+03  0.00000000000E+00 0. -1.
<mgrwt>
<rscale>  0 0.99266783E+03</rscale>
<asrwt>0</asrwt>
<pdfrwt beam="1">  1        2 0.14838889E+00 0.99266783E+03</pdfrwt>
<pdfrwt beam="2">  1       -2 0.39293419E-01 0.99266783E+03</pdfrwt>
<totfact> 0.16230600E+02</totfact>
</mgrwt>
</event>
<event>
 6    1  0.5040916E-004  0.2401314E+04  0.7818608E-02  0.8439012E-01
         -2   -1    0    0    0  501 -0.00000000000E+00  0.00000000000E+00  0.54638306137E+03  0.54638306137E+03  0.00000000000E+00 0. -1.
          2   -1    0    0  501    0  0.00000000000E+00 -0.00000000000E+00 -0.26384010615E+04  0.26384010615E+04  0.00000000000E+00 0.  1.
         23    2    1    2    0    0  0.10613073595E+04  0.27645697943E+03 -0.40508702246E+03  0.11726862385E+04  0.91080983259E+02 0.  0.
         13    1    3    3    0    0  0.77562001066E+03  0.17552032694E+03 -0.25926571966E+03  0.83642841863E+03  0.00000000000E+00 0.  1.
        -13    1    3    3    0    0  0.28568734881E+03  0.10093665249E+03 -0.14582130280E+03  0.33625781989E+03  0.00000000000E+00 0. -1.
         22    1    1    2    0    0 -0.10613073595E+04 -0.27645697943E+03 -0.16869309776E+04  0.20120978843E+04  0.00000000000E+00 0. -1.
<mgrwt>
<rscale>  0 0.24013143E+04</rscale>
<asrwt>0</asrwt>
<pdfrwt beam="1">  1        2 0.40590787E+00 0.24013143E+04</pdfrwt>
<pdfrwt beam="2">  1       -2 0.84058930E-01 0.24013143E+04</pdfrwt>
<totfact> 0.32098203E+00</totfact>
</mgrwt>
</event>
<event>
 6    1  0.5040916E-004  0.1944440E+04  0.7818608E-02  0.8633047E-01
         -2   -1    0    0    0  501 -0.00000000000E+00  0.00000000000E+00  0.91028553604E+03  0.91028553604E+03  0.00000000000E+00 0. -1.
          2   -1    0    0  501    0  0.00000000000E+00 -0.00000000000E+00 -0.10383684536E+04  0.10383684536E+04  0.00000000000E+00 0.  1.
         23    2    1    2    0    0 -0.20894775253E+03  0.94483227704E+03  0.52546512145E+01  0.97184996511E+03  0.89986378479E+02 0.  0.
         11    1    3    3    0    0 -0.17169269565E+03  0.88386780215E+03  0.49512274866E+01  0.90040279213E+03  0.00000000000E+00 0. -1.
        -11    1    3    3    0    0 -0.37255056884E+02  0.60964474884E+02  0.30342372795E+00  0.71447172983E+02  0.00000000000E+00 0.  1.
         22    1    1    2    0    0  0.20894775253E+03 -0.94483227704E+03 -0.13333756874E+03  0.97680402449E+03  0.00000000000E+00 0. -1.
<mgrwt>
<rscale>  0 0.19444401E+04</rscale>
<asrwt>0</asrwt>
<pdfrwt beam="1">  1        2 0.15974899E+00 0.19444401E+04</pdfrwt>
<pdfrwt beam="2">  1       -2 0.14004393E+00 0.19444401E+04</pdfrwt>
<totfact> 0.79731935E+00</totfact>
</mgrwt>
</event>
<event>
 6    1  0.5040916E-004  0.4439266E+04  0.7818608E-02  0.7921357E-01
          2   -1    0    0  501    0  0.00000000000E+00  0.00000000000E+00  0.46029496096E+04  0.46029496096E+04  0.00000000000E+00 0.  1.
         -2   -1    0    0    0  501 -0.00000000000E+00 -0.00000000000E+00 -0.10703508680E+04  0.10703508680E+04  0.00000000000E+00 0. -1.
         23    2    1    2    0    0 -0.67787793207E+03  0.82655888205E+03  0.42516991142E+04  0.43849591323E+04  0.90571287946E+02 0.  0.
         11    1    3    3    0    0 -0.62983678571E+03  0.72444792529E+03  0.38006043350E+04  0.39199633269E+04  0.00000000000E+00 0.  1.
        -11    1    3    3    0    0 -0.48041146357E+02  0.10211095676E+03  0.45109477922E+03  0.46499580544E+03  0.00000000000E+00 0. -1.
         22    1    1    2    0    0  0.67787793207E+03 -0.82655888205E+03 -0.71910037253E+03  0.12883413453E+04  0.00000000000E+00 0. -1.
<mgrwt>
<rscale>  0 0.44392662E+04</rscale>
<asrwt>0</asrwt>
<pdfrwt beam="1">  1        2 0.70814608E+00 0.44392662E+04</pdfrwt>
<pdfrwt beam="2">  1       -2 0.16466937E+00 0.44392662E+04</pdfrwt>
<totfact> 0.17038342E-02</totfact>
</mgrwt>
</event>
<event>
 6    1  0.5040916E-004  0.1681545E+04  0.7818608E-02  0.8771961E-01
         -2   -1    0    0    0  501 -0.00000000000E+00  0.00000000000E+00  0.31994193050E+03  0.31994193050E+03  0.00000000000E+00 0. -1.
          2   -1    0    0  501    0  0.00000000000E+00 -0.00000000000E+00 -0.22094575372E+04  0.22094575372E+04  0.00000000000E+00 0.  1.
         23    2    1    2    0    0  0.78547383379E+03 -0.18943068881E+03 -0.12833279461E+04  0.15192922411E+04  0.92006342842E+02 0.  0.
         11    1    3    3    0    0  0.48697331183E+03 -0.10528044706E+03 -0.70854554170E+03  0.86617767440E+03  0.00000000000E+00 0. -1.
        -11    1    3    3    0    0  0.29850052196E+03 -0.84150241754E+02 -0.57478240438E+03  0.65311456666E+03  0.00000000000E+00 0.  1.
         22    1    1    2    0    0 -0.78547383379E+03  0.18943068881E+03 -0.60618766064E+03  0.10101072267E+04  0.00000000000E+00 0. -1.
<mgrwt>
<rscale>  0 0.16815447E+04</rscale>
<asrwt>0</asrwt>
<pdfrwt beam="1">  1        2 0.33991654E+00 0.16815447E+04</pdfrwt>
<pdfrwt beam="2">  1       -2 0.49221836E-01 0.16815447E+04</pdfrwt>
<totfact> 0.19003537E+01</totfact>
</mgrwt>
</event>
<event>
 6    1  0.5040916E-004  0.2199865E+04  0.7818608E-02  0.8518484E-01
         -2   -1    0    0    0  501 -0.00000000000E+00  0.00000000000E+00  0.35286610554E+03  0.35286610554E+03  0.00000000000E+00 0. -1.
          2   -1    0    0  501    0  0.00000000000E+00 -0.00000000000E+00 -0.34286432598E+04  0.34286432598E+04  0.00000000000E+00 0.  1.
         23    2    1    2    0    0 -0.91026766361E+03  0.23317094717E+03 -0.56392928015E+03  0.10996563394E+04  0.90950105938E+02 0.  0.
         11    1    3    3    0    0 -0.35721175077E+03  0.11926015283E+03 -0.18456901746E+03  0.41939115530E+03  0.00000000000E+00 0. -1.
        -11    1    3    3    0    0 -0.55305591284E+03  0.11391079434E+03 -0.37936026269E+03  0.68026518411E+03  0.00000000000E+00 0.  1.
         22    1    1    2    0    0  0.91026766361E+03 -0.23317094717E+03 -0.25118478741E+04  0.26818530259E+04  0.00000000000E+00 0.  1.
<mgrwt>
<rscale>  0 0.21998654E+04</rscale>
<asrwt>0</asrwt>
<pdfrwt beam="1">  1        2 0.52748357E+00 0.21998654E+04</pdfrwt>
<pdfrwt beam="2">  1       -2 0.54287094E-01 0.21998654E+04</pdfrwt>
<totfact> 0.26690123E+00</totfact>
</mgrwt>
</event>
<event>
 6    1  0.5040916E-004  0.1483917E+04  0.7818608E-02  0.8895219E-01
         -2   -1    0    0    0  501 -0.00000000000E+00  0.00000000000E+00  0.39589325975E+03  0.39589325975E+03  0.00000000000E+00 0. -1.
          2   -1    0    0  501    0  0.00000000000E+00 -0.00000000000E+00 -0.13905319521E+04  0.13905319521E+04  0.00000000000E+00 0.  1.
         23    2    1    2    0    0 -0.55098027184E+03 -0.15284111686E+03  0.64390489489E+02  0.58289603690E+03  0.93177184646E+02 0.  0.
         11    1    3    3    0    0 -0.37586705480E+02  0.12883857076E+02  0.14786480578E+01  0.39761043775E+02  0.00000000000E+00 0. -1.
        -11    1    3    3    0    0 -0.51339356636E+03 -0.16572497394E+03  0.62911841431E+02  0.54313499313E+03  0.00000000000E+00 0.  1.
         22    1    1    2    0    0  0.55098027184E+03  0.15284111686E+03 -0.10590291819E+04  0.12035291750E+04  0.00000000000E+00 0.  1.
<mgrwt>
<rscale>  0 0.14839167E+04</rscale>
<asrwt>0</asrwt>
<pdfrwt beam="1">  1        2 0.21392800E+00 0.14839167E+04</pdfrwt>
<pdfrwt beam="2">  1       -2 0.60906654E-01 0.14839167E+04</pdfrwt>
<totfact> 0.35558209E+01</totfact>
</mgrwt>
</event>
<event>
 6    1  0.5040916E-004  0.1628211E+04  0.7818608E-02  0.8803402E-01
          2   -1    0    0  501    0  0.00000000000E+00  0.00000000000E+00  0.20129954981E+04  0.20129954981E+04  0.00000000000E+00 0.  1.
         -2   -1    0    0    0  501 -0.00000000000E+00 -0.00000000000E+00 -0.32924445250E+03  0.32924445250E+03  0.00000000000E+00 0. -1.
         23    2    1    2    0    0 -0.17375828197E+03 -0.64488014967E+03  0.18148994106E+03  0.69820504397E+03  0.92137596677E+02 0.  0.
         13    1    3    3    0    0 -0.62937401810E+02 -0.10029568452E+03  0.28615723939E+02  0.12181625727E+03  0.00000000000E+00 0. -1.
        -13    1    3    3    0    0 -0.11082088016E+03 -0.54458446515E+03  0.15287421712E+03  0.57638878669E+03  0.00000000000E+00 0.  1.
         22    1    1    2    0    0  0.17375828197E+03  0.64488014967E+03  0.15022611045E+04  0.16440349066E+04  0.00000000000E+00 0.  1.
<mgrwt>
<rscale>  0 0.16282108E+04</rscale>
<asrwt>0</asrwt>
<pdfrwt beam="1">  1        2 0.30969161E+00 0.16282108E+04</pdfrwt>
<pdfrwt beam="2">  1       -2 0.50652994E-01 0.16282108E+04</pdfrwt>
<totfact> 0.23174743E+01</totfact>
</mgrwt>
</event>
<event>
 6    1  0.5040916E-004  0.3316346E+04  0.7818608E-02  0.8158749E-01
         -2   -1    0    0    0  501 -0.00000000000E+00  0.00000000000E+00  0.24892627696E+04  0.24892627696E+04  0.00000000000E+00 0. -1.
          2   -1    0    0  501    0  0.00000000000E+00 -0.00000000000E+00 -0.11045589038E+04  0.11045589038E+04  0.00000000000E+00 0.  1.
         23    2    1    2    0    0  0.16227469973E+04 -0.31302321823E+03  0.56461143390E+03  0.17488710104E+04  0.92045571533E+02 0.  0.
         13    1    3    3    0    0  0.70236811472E+03 -0.18149618473E+03  0.25452303359E+03  0.76879373584E+03  0.00000000000E+00 0.  1.
        -13    1    3    3    0    0  0.92037888258E+03 -0.13152703349E+03  0.31008840031E+03  0.98007727453E+03  0.00000000000E+00 0. -1.
         22    1    1    2    0    0 -0.16227469973E+04  0.31302321823E+03  0.82009243185E+03  0.18449506631E+04  0.00000000000E+00 0. -1.
<mgrwt>
<rscale>  0 0.33163458E+04</rscale>
<asrwt>0</asrwt>
<pdfrwt beam="1">  1        2 0.16993214E+00 0.33163458E+04</pdfrwt>
<pdfrwt beam="2">  1       -2 0.38296350E+00 0.33163458E+04</pdfrwt>
<totfact> 0.17284014E-01</totfact>
</mgrwt>
</event>
<event>
 6    1  0.5040916E-004  0.9002901E+03  0.7818608E-02  0.9425219E-01
          2   -1    0    0  501    0  0.00000000000E+00  0.00000000000E+00  0.42861331245E+03  0.42861331245E+03  0.00000000000E+00 0.  1.
         -2   -1    0    0    0  501 -0.00000000000E+00 -0.00000000000E+00 -0.47275845291E+03  0.47275845291E+03  0.00000000000E+00 0. -1.
         23    2    1    2    0    0 -0.32508562772E+03 -0.13037456120E+03  0.25338788370E+03  0.44180230160E+03  0.91135407705E+02 0.  0.
         13    1    3    3    0    0 -0.24403361676E+03 -0.85183476992E+02  0.13570407839E+03  0.29193188889E+03  0.00000000000E+00 0.  1.
        -13    1    3    3    0    0 -0.81052010955E+02 -0.45191084210E+02  0.11768380532E+03  0.14987041271E+03  0.00000000000E+00 0. -1.
         22    1    1    2    0    0  0.32508562772E+03  0.13037456120E+03 -0.29753302416E+03  0.45956946376E+03  0.00000000000E+00 0. -1.
<mgrwt>
<rscale>  0 0.90029010E+03</rscale>
<asrwt>0</asrwt>
<pdfrwt beam="1">  1        2 0.65940510E-01 0.90029010E+03</pdfrwt>
<pdfrwt beam="2">  1       -2 0.72732069E-01 0.90029010E+03</pdfrwt>
<totfact> 0.12616342E+02</totfact>
</mgrwt>
</event>
<event>
 6    1  0.5040916E-004  0.2865937E+04  0.7818608E-02  0.8283085E-01
         -2   -1    0    0    0  501 -0.00000000000E+00  0.00000000000E+00  0.18204428314E+04  0.18204428314E+04  0.00000000000E+00 0. -1.
          2   -1    0    0  501    0  0.00000000000E+00 -0.00000000000E+00 -0.11279667711E+04  0.11279667711E+04  0.00000000000E+00 0.  1.
         23    2    1    2    0    0 -0.13469129905E+04 -0.45548138392E+03  0.51761994741E+03  0.15158550468E+04  0.90819699293E+02 0.  0.
         13    1    3    3    0    0 -0.10281327979E+04 -0.38471642663E+03  0.38290541300E+03  0.11626178798E+04  0.00000000000E+00 0.  1.
        -13    1    3    3    0    0 -0.31878019256E+03 -0.70764957297E+02  0.13471453441E+03  0.35323716697E+03  0.00000000000E+00 0. -1.
         22    1    1    2    0    0  0.13469129905E+04  0.45548138392E+03  0.17485611288E+03  0.14325545558E+04  0.00000000000E+00 0.  1.
<mgrwt>
<rscale>  0 0.28659372E+04</rscale>
<asrwt>0</asrwt>
<pdfrwt beam="1">  1        2 0.17353335E+00 0.28659372E+04</pdfrwt>
<pdfrwt beam="2">  1       -2 0.28006813E+00 0.28659372E+04</pdfrwt>
<totfact> 0.76246221E-01</totfact>
</mgrwt>
</event>
<event>
 6    1  0.5040916E-004  0.1080127E+04  0.7818608E-02  0.9224781E-01
          2   -1    0    0  501    0  0.00000000000E+00  0.00000000000E+00  0.19633098281E+04  0.19633098281E+04  0.00000000000E+00 0.  1.
         -2   -1    0    0    0  501 -0.00000000000E+00 -0.00000000000E+00 -0.14855960660E+03  0.14855960660E+03  0.00000000000E+00 0. -1.
         23    2    1    2    0    0 -0.31985557955E+03 -0.68365677362E+02  0.17445864531E+04  0.17773482665E+04  0.91670662197E+02 0.  0.
         11    1    3    3    0    0 -0.13921023762E+03 -0.50956269423E+02  0.10020148398E+04  0.10129214041E+04  0.00000000000E+00 0. -1.
        -11    1    3    3    0    0 -0.18064534194E+03 -0.17409407939E+02  0.74257161336E+03  0.76442686244E+03  0.00000000000E+00 0.  1.
         22    1    1    2    0    0  0.31985557955E+03  0.68365677362E+02  0.70163768406E+02  0.33452116825E+03  0.00000000000E+00 0. -1.
<mgrwt>
<rscale>  0 0.10801269E+04</rscale>
<asrwt>0</asrwt>
<pdfrwt beam="1">  1        2 0.30204765E+00 0.10801269E+04</pdfrwt>
<pdfrwt beam="2">  1       -2 0.22855326E-01 0.10801269E+04</pdfrwt>
<totfact> 0.11763790E+02</totfact>
</mgrwt>
</event>
<event>
 6    1  0.5040916E-004  0.2611843E+04  0.7818608E-02  0.8364189E-01
          2   -1    0    0  501    0  0.00000000000E+00  0.00000000000E+00  0.14627298790E+04  0.14627298790E+04  0.00000000000E+00 0.  1.
         -2   -1    0    0    0  501 -0.00000000000E+00 -0.00000000000E+00 -0.11659235175E+04  0.11659235175E+04  0.00000000000E+00 0. -1.
         23    2    1    2    0    0 -0.60586074413E+01  0.56458671143E+03  0.13321059906E+04  0.14493993172E+04  0.86354785571E+02 0.  0.
         11    1    3    3    0    0  0.34582554170E+02  0.15696309313E+03  0.41098452713E+03  0.44129541942E+03  0.00000000000E+00 0. -1.
        -11    1    3    3    0    0 -0.40641161611E+02  0.40762361830E+03  0.92112146347E+03  0.10081038978E+04  0.00000000000E+00 0.  1.
         22    1    1    2    0    0  0.60586074413E+01 -0.56458671143E+03 -0.10352996291E+04  0.11792540793E+04  0.00000000000E+00 0. -1.
<mgrwt>
<rscale>  0 0.26118432E+04</rscale>
<asrwt>0</asrwt>
<pdfrwt beam="1">  1        2 0.22503536E+00 0.26118432E+04</pdfrwt>
<pdfrwt beam="2">  1       -2 0.17937285E+00 0.26118432E+04</pdfrwt>
<totfact> 0.21571183E+00</totfact>
</mgrwt>
</event>
<event>
 6    1  0.5040916E-004  0.2089302E+04  0.7818608E-02  0.8565971E-01
          2   -1    0    0  501    0  0.00000000000E+00  0.00000000000E+00  0.20414590204E+04  0.20414590204E+04  0.00000000000E+00 0.  1.
         -2   -1    0    0    0  501 -0.00000000000E+00 -0.00000000000E+00 -0.53456667178E+03  0.53456667178E+03  0.00000000000E+00 0. -1.
         23    2    1    2    0    0 -0.29387072112E+03 -0.62190286660E+03  0.17209654807E+04  0.18556435144E+04  0.92560740022E+02 0.  0.
         13    1    3    3    0    0 -0.25402660333E+03 -0.48915259227E+03  0.12863483789E+04  0.13994612983E+04  0.00000000000E+00 0. -1.
        -13    1    3    3    0    0 -0.39844117794E+02 -0.13275027432E+03  0.43461710184E+03  0.45618221608E+03  0.00000000000E+00 0.  1.
         22    1    1    2    0    0  0.29387072112E+03  0.62190286660E+03 -0.21407313206E+03  0.72038217780E+03  0.00000000000E+00 0. -1.
<mgrwt>
<rscale>  0 0.20893022E+04</rscale>
<asrwt>0</asrwt>
<pdfrwt beam="1">  1        2 0.31407061E+00 0.20893022E+04</pdfrwt>
<pdfrwt beam="2">  1       -2 0.82241028E-01 0.20893022E+04</pdfrwt>
<totfact> 0.75879649E+00</totfact>
</mgrwt>
</event>
<event>
 6    1  0.5040916E-004  0.1180835E+04  0.7818608E-02  0.9129799E-01
          2   -1    0    0  501    0  0.00000000000E+00  0.00000000000E+00  0.93289500159E+03  0.93289500159E+03  0.00000000000E+00 0.  1.
         -2   -1    0    0    0  501 -0.00000000000E+00 -0.00000000000E+00 -0.37366771466E+03  0.37366771466E+03  0.00000000000E+00 0. -1.
         23    2    1    2    0    0  0.43974599058E+03 -0.68134808134E+02  0.70475867799E+03  0.83837656300E+03  0.90396785762E+02 0.  0.
         13    1    3    3    0    0  0.12324761720E+03 -0.57080699355E+02  0.24441717209E+03  0.27962105679E+03  0.00000000000E+00 0.  1.
        -13    1    3    3    0    0  0.31649837338E+03 -0.11054108778E+02  0.46034150589E+03  0.55875550621E+03  0.00000000000E+00 0. -1.
         22    1    1    2    0    0 -0.43974599058E+03  0.68134808134E+02 -0.14553139105E+03  0.46818615325E+03  0.00000000000E+00 0. -1.
<mgrwt>
<rscale>  0 0.11808349E+04</rscale>
<asrwt>0</asrwt>
<pdfrwt beam="1">  1        2 0.14352231E+00 0.11808349E+04</pdfrwt>
<pdfrwt beam="2">  1       -2 0.57487341E-01 0.11808349E+04</pdfrwt>
<totfact> 0.78045074E+01</totfact>
</mgrwt>
</event>
<event>
 6    1  0.5040916E-004  0.1612427E+04  0.7818608E-02  0.8812950E-01
         -2   -1    0    0    0  501 -0.00000000000E+00  0.00000000000E+00  0.81706455718E+03  0.81706455718E+03  0.00000000000E+00 0. -1.
          2   -1    0    0  501    0  0.00000000000E+00 -0.00000000000E+00 -0.79550629099E+03  0.79550629099E+03  0.00000000000E+00 0.  1.
         23    2    1    2    0    0 -0.64388062056E+03 -0.42773861499E+03 -0.20854807781E+03  0.80604031197E+03  0.93091930255E+02 0.  0.
         11    1    3    3    0    0 -0.30196403650E+03 -0.15835398695E+03 -0.12267313540E+03  0.36236302608E+03  0.00000000000E+00 0. -1.
        -11    1    3    3    0    0 -0.34191658406E+03 -0.26938462804E+03 -0.85874942404E+02  0.44367728588E+03  0.00000000000E+00 0.  1.
         22    1    1    2    0    0  0.64388062056E+03  0.42773861499E+03  0.23010634399E+03  0.80653053620E+03  0.00000000000E+00 0. -1.
<mgrwt>
<rscale>  0 0.16124267E+04</rscale>
<asrwt>0</asrwt>
<pdfrwt beam="1">  1        2 0.12238558E+00 0.16124267E+04</pdfrwt>
<pdfrwt beam="2">  1       -2 0.12570224E+00 0.16124267E+04</pdfrwt>
<totfact> 0.15717017E+01</totfact>
</mgrwt>
</event>
<event>
 6    1  0.5040916E-004  0.1457334E+04  0.7818608E-02  0.8913331E-01
          2   -1    0    0  501    0  0.00000000000E+00  0.00000000000E+00  0.46589242534E+03  0.46589242534E+03  0.00000000000E+00 0.  1.
         -2   -1    0    0    0  501 -0.00000000000E+00 -0.00000000000E+00 -0.11396534271E+04  0.11396534271E+04  0.00000000000E+00 0. -1.
         23    2    1    2    0    0 -0.10573617423E+03 -0.73610509329E+02 -0.11251805193E+04  0.11361012587E+04  0.89979016380E+02 0.  0.
         11    1    3    3    0    0 -0.51443931250E+02 -0.18270686617E+02 -0.79784699818E+03  0.79971252869E+03  0.00000000000E+00 0. -1.
        -11    1    3    3    0    0 -0.54292242983E+02 -0.55339822711E+02 -0.32733352117E+03  0.33638873005E+03  0.00000000000E+00 0.  1.
         22    1    1    2    0    0  0.10573617423E+03  0.73610509329E+02  0.45141951762E+03  0.46944459365E+03  0.00000000000E+00 0.  1.
<mgrwt>
<rscale>  0 0.14573344E+04</rscale>
<asrwt>0</asrwt>
<pdfrwt beam="1">  1        2 0.71675759E-01 0.14573344E+04</pdfrwt>
<pdfrwt beam="2">  1       -2 0.17533129E+00 0.14573344E+04</pdfrwt>
<totfact> 0.12644682E+01</totfact>
</mgrwt>
</event>
<event>
 6    1  0.5816311E-004  0.3164447E+04  0.7818608E-02  0.8198270E-01
         -2   -1    0    0    0  501 -0.00000000000E+00  0.00000000000E+00  0.15150348446E+04  0.15150348446E+04  0.00000000000E+00 0. -1.
          2   -1    0    0  501    0  0.00000000000E+00 -0.00000000000E+00 -0.16523917297E+04  0.16523917297E+04  0.00000000000E+00 0.  1.
         23    2    1    2    0    0 -0.61489467127E+03 -0.11023320409E+02 -0.15265044380E+04  0.16482334023E+04  0.90777633280E+02 0.  0.
         11    1    3    3    0    0 -0.31511287952E+03 -0.18808707949E+02 -0.89758341788E+03  0.95147563625E+03  0.00000000000E+00 0.  1.
        -11    1    3    3    0    0 -0.29978179175E+03  0.77853875399E+01 -0.62892102015E+03  0.69675776602E+03  0.00000000000E+00 0. -1.
         22    1    1    2    0    0  0.61489467127E+03  0.11023320409E+02  0.13891475529E+04  0.15191931721E+04  0.00000000000E+00 0. -1.
<mgrwt>
<rscale>  0 0.31644469E+04</rscale>
<asrwt>0</asrwt>
<pdfrwt beam="1">  1        2 0.25421411E+00 0.31644469E+04</pdfrwt>
<pdfrwt beam="2">  1       -2 0.23308228E+00 0.31644469E+04</pdfrwt>
<totfact> 0.72010696E-01</totfact>
</mgrwt>
</event>
<event>
 6    1  0.5040916E-004  0.2655002E+04  0.7818608E-02  0.8349755E-01
          1   -1    0    0  501    0  0.00000000000E+00  0.00000000000E+00  0.27046103769E+04  0.27046103769E+04  0.00000000000E+00 0.  1.
         -1   -1    0    0    0  501 -0.00000000000E+00 -0.00000000000E+00 -0.65157570275E+03  0.65157570275E+03  0.00000000000E+00 0. -1.
         23    2    1    2    0    0 -0.95146810940E+03  0.82228040811E+03  0.49688011743E+03  0.13554228160E+04  0.94045341829E+02 0.  0.
         13    1    3    3    0    0 -0.74145731282E+03  0.58938066320E+03  0.36062300470E+03  0.10134976391E+04  0.00000000000E+00 0.  1.
        -13    1    3    3    0    0 -0.21001079657E+03  0.23289974491E+03  0.13625711273E+03  0.34192517694E+03  0.00000000000E+00 0. -1.
         22    1    1    2    0    0  0.95146810940E+03 -0.82228040811E+03  0.15561545568E+04  0.20007632637E+04  0.00000000000E+00 0.  1.
<mgrwt>
<rscale>  0 0.26550016E+04</rscale>
<asrwt>0</asrwt>
<pdfrwt beam="1">  1        1 0.41609390E+00 0.26550016E+04</pdfrwt>
<pdfrwt beam="2">  1       -1 0.10024242E+00 0.26550016E+04</pdfrwt>
<totfact> 0.80890584E-01</totfact>
</mgrwt>
</event>
<event>
 6    1  0.5040916E-004  0.1850291E+04  0.7818608E-02  0.8680003E-01
         -2   -1    0    0    0  501 -0.00000000000E+00  0.00000000000E+00  0.52865719824E+03  0.52865719824E+03  0.00000000000E+00 0. -1.
          2   -1    0    0  501    0  0.00000000000E+00 -0.00000000000E+00 -0.16189962100E+04  0.16189962100E+04  0.00000000000E+00 0.  1.
         23    2    1    2    0    0 -0.55465599620E+03 -0.28170934828E+02  0.30905366402E+03  0.64208483235E+03  0.91224388200E+02 0.  0.
         13    1    3    3    0    0 -0.25462124525E+03 -0.33697066922E+02  0.18895117305E+03  0.31885736098E+03  0.00000000000E+00 0. -1.
        -13    1    3    3    0    0 -0.30003475095E+03  0.55261320940E+01  0.12010249096E+03  0.32322747138E+03  0.00000000000E+00 0.  1.
         22    1    1    2    0    0  0.55465599620E+03  0.28170934828E+02 -0.13993926757E+04  0.15055685759E+04  0.00000000000E+00 0.  1.
<mgrwt>
<rscale>  0 0.18502908E+04</rscale>
<asrwt>0</asrwt>
<pdfrwt beam="1">  1        2 0.24907633E+00 0.18502908E+04</pdfrwt>
<pdfrwt beam="2">  1       -2 0.81331879E-01 0.18502908E+04</pdfrwt>
<totfact> 0.13626681E+01</totfact>
</mgrwt>
</event>
<event>
 6    1  0.5040916E-004  0.3208431E+04  0.7818608E-02  0.8186594E-01
          2   -1    0    0  501    0  0.00000000000E+00  0.00000000000E+00  0.14214081215E+04  0.14214081215E+04  0.00000000000E+00 0.  1.
         -2   -1    0    0    0  501 -0.00000000000E+00 -0.00000000000E+00 -0.18105342490E+04  0.18105342490E+04  0.00000000000E+00 0. -1.
         23    2    1    2    0    0 -0.15640102325E+04 -0.65552529904E+02 -0.54247457903E+03  0.16590657418E+04  0.88291138393E+02 0.  0.
         11    1    3    3    0    0 -0.11679406181E+04 -0.10463242809E+02 -0.40507917405E+03  0.12362378024E+04  0.00000000000E+00 0. -1.
        -11    1    3    3    0    0 -0.39606961433E+03 -0.55089287095E+02 -0.13739540498E+03  0.42282793931E+03  0.00000000000E+00 0.  1.
         22    1    1    2    0    0  0.15640102325E+04  0.65552529904E+02  0.15334845154E+03  0.15728766287E+04  0.00000000000E+00 0.  1.
<mgrwt>
<rscale>  0 0.32084314E+04</rscale>
<asrwt>0</asrwt>
<pdfrwt beam="1">  1        2 0.21867817E+00 0.32084314E+04</pdfrwt>
<pdfrwt beam="2">  1       -2 0.27854373E+00 0.32084314E+04</pdfrwt>
<totfact> 0.50881394E-01</totfact>
</mgrwt>
</event>
<event>
 6    1  0.5040916E-004  0.2800953E+04  0.7818608E-02  0.8302973E-01
         -2   -1    0    0    0  501 -0.00000000000E+00  0.00000000000E+00  0.11766925530E+04  0.11766925530E+04  0.00000000000E+00 0. -1.
          2   -1    0    0  501    0  0.00000000000E+00 -0.00000000000E+00 -0.16668192092E+04  0.16668192092E+04  0.00000000000E+00 0.  1.
         23    2    1    2    0    0  0.94630132229E+03  0.62870340118E+03  0.58353486453E+03  0.12803408757E+04  0.89474356905E+02 0.  0.
         13    1    3    3    0    0  0.46194311106E+03  0.30665719983E+03  0.23458273930E+03  0.60204579364E+03  0.00000000000E+00 0.  1.
        -13    1    3    3    0    0  0.48435821123E+03  0.32204620135E+03  0.34895212523E+03  0.67829508202E+03  0.00000000000E+00 0. -1.
         22    1    1    2    0    0 -0.94630132229E+03 -0.62870340118E+03 -0.10736615207E+04  0.15631708865E+04  0.00000000000E+00 0.  1.
<mgrwt>
<rscale>  0 0.28009525E+04</rscale>
<asrwt>0</asrwt>
<pdfrwt beam="1">  1        2 0.25643372E+00 0.28009525E+04</pdfrwt>
<pdfrwt beam="2">  1       -2 0.18102962E+00 0.28009525E+04</pdfrwt>
<totfact> 0.15885514E+00</totfact>
</mgrwt>
</event>
<event>
 6    1  0.5040916E-004  0.2643180E+04  0.7818608E-02  0.8353680E-01
          2   -1    0    0  501    0  0.00000000000E+00  0.00000000000E+00  0.12668643157E+04  0.12668643157E+04  0.00000000000E+00 0.  1.
         -2   -1    0    0    0  501 -0.00000000000E+00 -0.00000000000E+00 -0.13786797603E+04  0.13786797603E+04  0.00000000000E+00 0. -1.
         23    2    1    2    0    0 -0.12472777971E+04 -0.43067784363E+03 -0.92220431103E+02  0.13258587830E+04  0.90617859585E+02 0.  0.
         11    1    3    3    0    0 -0.51774363468E+03 -0.20106446607E+03  0.73692843830E+00  0.55541510047E+03  0.00000000000E+00 0.  1.
        -11    1    3    3    0    0 -0.72953416241E+03 -0.22961337756E+03 -0.92957359541E+02  0.77044368255E+03  0.00000000000E+00 0. -1.
         22    1    1    2    0    0  0.12472777971E+04  0.43067784363E+03 -0.19595013507E+02  0.13196852930E+04  0.00000000000E+00 0.  1.
<mgrwt>
<rscale>  0 0.26431800E+04</rscale>
<asrwt>0</asrwt>
<pdfrwt beam="1">  1        2 0.19490220E+00 0.26431800E+04</pdfrwt>
<pdfrwt beam="2">  1       -2 0.21210458E+00 0.26431800E+04</pdfrwt>
<totfact> 0.16912632E+00</totfact>
</mgrwt>
</event>
<event>
 6    1  0.5040916E-004  0.1822180E+04  0.7818608E-02  0.8694592E-01
         -2   -1    0    0    0  501 -0.00000000000E+00  0.00000000000E+00  0.59891383567E+03  0.59891383567E+03  0.00000000000E+00 0. -1.
          2   -1    0    0  501    0  0.00000000000E+00 -0.00000000000E+00 -0.13859847043E+04  0.13859847043E+04  0.00000000000E+00 0.  1.
         23    2    1    2    0    0  0.45512801667E+03  0.22593160849E+03  0.42617360151E+03  0.66954735204E+03  0.92103825773E+02 0.  0.
         13    1    3    3    0    0  0.39321918711E+03  0.15809318641E+03  0.36368630164E+03  0.55846442205E+03  0.00000000000E+00 0.  1.
        -13    1    3    3    0    0  0.61908829561E+02  0.67838422086E+02  0.62487299867E+02  0.11108292998E+03  0.00000000000E+00 0. -1.
         22    1    1    2    0    0 -0.45512801667E+03 -0.22593160849E+03 -0.12132444702E+04  0.13153511880E+04  0.00000000000E+00 0.  1.
<mgrwt>
<rscale>  0 0.18221805E+04</rscale>
<asrwt>0</asrwt>
<pdfrwt beam="1">  1        2 0.21322841E+00 0.18221805E+04</pdfrwt>
<pdfrwt beam="2">  1       -2 0.92140592E-01 0.18221805E+04</pdfrwt>
<totfact> 0.13904712E+01</totfact>
</mgrwt>
</event>
<event>
 6    1  0.5040916E-004  0.3402655E+04  0.7818608E-02  0.8137255E-01
          2   -1    0    0  501    0  0.00000000000E+00  0.00000000000E+00  0.19171653343E+04  0.19171653343E+04  0.00000000000E+00 0.  1.
         -2   -1    0    0    0  501 -0.00000000000E+00 -0.00000000000E+00 -0.15097889746E+04  0.15097889746E+04  0.00000000000E+00 0. -1.
         23    2    1    2    0    0 -0.15904661085E+04  0.31889595029E+03  0.71675650007E+03  0.17755933124E+04  0.87833145169E+02 0.  0.
         11    1    3    3    0    0 -0.11235371109E+03  0.45617020607E+02  0.57977567228E+02  0.13440858331E+03  0.00000000000E+00 0. -1.
        -11    1    3    3    0    0 -0.14781123974E+04  0.27327892968E+03  0.65877893284E+03  0.16411847291E+04  0.00000000000E+00 0.  1.
         22    1    1    2    0    0  0.15904661085E+04 -0.31889595029E+03 -0.30938014039E+03  0.16513609965E+04  0.00000000000E+00 0. -1.
<mgrwt>
<rscale>  0 0.34026549E+04</rscale>
<asrwt>0</asrwt>
<pdfrwt beam="1">  1        2 0.29494851E+00 0.34026549E+04</pdfrwt>
<pdfrwt beam="2">  1       -2 0.23227523E+00 0.34026549E+04</pdfrwt>
<totfact> 0.50913247E-01</totfact>
</mgrwt>
</event>
<event>
 6    1  0.5040916E-004  0.4470477E+04  0.7818608E-02  0.7915826E-01
         -2   -1    0    0    0  501 -0.00000000000E+00  0.00000000000E+00  0.20621155431E+04  0.20621155431E+04  0.00000000000E+00 0. -1.
          2   -1    0    0  501    0  0.00000000000E+00 -0.00000000000E+00 -0.24228957716E+04  0.24228957716E+04  0.00000000000E+00 0.  1.
         23    2    1    2    0    0 -0.13632457080E+04 -0.79036888041E+03  0.14086547623E+04  0.21156185625E+04  0.91716058537E+02 0.  0.
         13    1    3    3    0    0 -0.44280352764E+03 -0.30496913331E+03  0.49618296410E+03  0.73162741216E+03  0.00000000000E+00 0. -1.
        -13    1    3    3    0    0 -0.92044218036E+03 -0.48539974711E+03  0.91247179817E+03  0.13839911504E+04  0.00000000000E+00 0.  1.
         22    1    1    2    0    0  0.13632457080E+04  0.79036888041E+03 -0.17694349908E+04  0.23693927522E+04  0.00000000000E+00 0.  1.
<mgrwt>
<rscale>  0 0.44704769E+04</rscale>
<asrwt>0</asrwt>
<pdfrwt beam="1">  1        2 0.37275320E+00 0.44704769E+04</pdfrwt>
<pdfrwt beam="2">  1       -2 0.31724854E+00 0.44704769E+04</pdfrwt>
<totfact> 0.72941398E-02</totfact>
</mgrwt>
</event>
<event>
 6    1  0.5040916E-004  0.1288662E+04  0.7818608E-02  0.9038605E-01
         -2   -1    0    0    0  501 -0.00000000000E+00  0.00000000000E+00  0.57538859452E+03  0.57538859452E+03  0.00000000000E+00 0. -1.
          2   -1    0    0  501    0  0.00000000000E+00 -0.00000000000E+00 -0.72153452608E+03  0.72153452608E+03  0.00000000000E+00 0.  1.
         23    2    1    2    0    0  0.34636575341E+03 -0.15599223357E+03  0.44630731929E+03  0.59314498332E+03  0.91257525252E+02 0.  0.
         11    1    3    3    0    0  0.17956190804E+03 -0.11196257932E+03  0.29893334783E+03  0.36625024837E+03  0.00000000000E+00 0. -1.
        -11    1    3    3    0    0  0.16680384537E+03 -0.44029654250E+02  0.14737397147E+03  0.22689473495E+03  0.00000000000E+00 0.  1.
         22    1    1    2    0    0 -0.34636575341E+03  0.15599223357E+03 -0.59245325086E+03  0.70377813728E+03  0.00000000000E+00 0.  1.
<mgrwt>
<rscale>  0 0.12886625E+04</rscale>
<asrwt>0</asrwt>
<pdfrwt beam="1">  1        2 0.11100531E+00 0.12886625E+04</pdfrwt>
<pdfrwt beam="2">  1       -2 0.88521322E-01 0.12886625E+04</pdfrwt>
<totfact> 0.42473239E+01</totfact>
</mgrwt>
</event>
<event>
 6    1  0.5040916E-004  0.2302399E+04  0.7818608E-02  0.8476976E-01
          1   -1    0    0  501    0  0.00000000000E+00  0.00000000000E+00  0.16359247764E+04  0.16359247764E+04  0.00000000000E+00 0.  1.
         -1   -1    0    0    0  501 -0.00000000000E+00 -0.00000000000E+00 -0.81009862996E+03  0.81009862996E+03  0.00000000000E+00 0. -1.
         23    2    1    2    0    0 -0.32711341202E+03  0.11210640966E+03 -0.75078528145E+03  0.83193709332E+03  0.94179387302E+02 0.  0.
         13    1    3    3    0    0 -0.16995449145E+03  0.95119231395E+02 -0.48576583656E+03  0.52335518084E+03  0.00000000000E+00 0.  1.
        -13    1    3    3    0    0 -0.15715892057E+03  0.16987178265E+02 -0.26501944489E+03  0.30858191248E+03  0.00000000000E+00 0. -1.
         22    1    1    2    0    0  0.32711341202E+03 -0.11210640966E+03  0.15766114279E+04  0.16140863130E+04  0.00000000000E+00 0.  1.
<mgrwt>
<rscale>  0 0.23023991E+04</rscale>
<asrwt>0</asrwt>
<pdfrwt beam="1">  1        1 0.25168073E+00 0.23023991E+04</pdfrwt>
<pdfrwt beam="2">  1       -1 0.12463056E+00 0.23023991E+04</pdfrwt>
<totfact> 0.26859285E+00</totfact>
</mgrwt>
</event>
<event>
 6    1  0.5040916E-004  0.3960360E+04  0.7818608E-02  0.8012591E-01
         -2   -1    0    0    0  501 -0.00000000000E+00  0.00000000000E+00  0.25732757118E+04  0.25732757118E+04  0.00000000000E+00 0. -1.
          2   -1    0    0  501    0  0.00000000000E+00 -0.00000000000E+00 -0.15237829181E+04  0.15237829181E+04  0.00000000000E+00 0.  1.
         23    2    1    2    0    0 -0.39996487051E+03  0.18935807187E+04  0.95382529652E+03  0.21593351961E+04  0.85591803130E+02 0.  0.
         11    1    3    3    0    0 -0.21951509729E+03  0.12355953038E+04  0.62345038774E+03  0.14012754971E+04  0.00000000000E+00 0. -1.
        -11    1    3    3    0    0 -0.18044977321E+03  0.65798541491E+03  0.33037490877E+03  0.75805969899E+03  0.00000000000E+00 0.  1.
         22    1    1    2    0    0  0.39996487051E+03 -0.18935807187E+04  0.95667497169E+02  0.19377234338E+04  0.00000000000E+00 0. -1.
<mgrwt>
<rscale>  0 0.39603604E+04</rscale>
<asrwt>0</asrwt>
<pdfrwt beam="1">  1        2 0.23442814E+00 0.39603604E+04</pdfrwt>
<pdfrwt beam="2">  1       -2 0.39588857E+00 0.39603604E+04</pdfrwt>
<totfact> 0.76869275E-02</totfact>
</mgrwt>
</event>
<event>
 6    1  0.5040916E-004  0.1022255E+04  0.7818608E-02  0.9284467E-01
          2   -1    0    0  501    0  0.00000000000E+00  0.00000000000E+00  0.10596062715E+04  0.10596062715E+04  0.00000000000E+00 0.  1.
         -2   -1    0    0    0  501 -0.00000000000E+00 -0.00000000000E+00 -0.24655503253E+03  0.24655503253E+03  0.00000000000E+00 0. -1.
         23    2    1    2    0    0 -0.24884533331E+03 -0.36965323786E+03  0.10055162427E+03  0.46579042334E+03  0.91008643337E+02 0.  0.
         13    1    3    3    0    0 -0.14018957714E+03 -0.12864747796E+03  0.48356196571E+02  0.19632017948E+03  0.00000000000E+00 0. -1.
        -13    1    3    3    0    0 -0.10865575617E+03 -0.24100575989E+03  0.52195427701E+02  0.26947024386E+03  0.00000000000E+00 0.  1.
         22    1    1    2    0    0  0.24884533331E+03  0.36965323786E+03  0.71249961473E+03  0.84037088072E+03  0.00000000000E+00 0.  1.
<mgrwt>
<rscale>  0 0.10222549E+04</rscale>
<asrwt>0</asrwt>
<pdfrwt beam="1">  1        2 0.16301635E+00 0.10222549E+04</pdfrwt>
<pdfrwt beam="2">  1       -2 0.37931544E-01 0.10222549E+04</pdfrwt>
<totfact> 0.15085973E+02</totfact>
</mgrwt>
</event>
<event>
 6    1  0.5040916E-004  0.2518194E+04  0.7818608E-02  0.8396532E-01
         -2   -1    0    0    0  501 -0.00000000000E+00  0.00000000000E+00  0.24989468095E+04  0.24989468095E+04  0.00000000000E+00 0. -1.
          2   -1    0    0  501    0  0.00000000000E+00 -0.00000000000E+00 -0.63439723931E+03  0.63439723931E+03  0.00000000000E+00 0.  1.
         23    2    1    2    0    0  0.40193582875E+03  0.11286897555E+04  0.45894594426E+03  0.12863966950E+04  0.93231445649E+02 0.  0.
         11    1    3    3    0    0  0.46291484281E+02  0.21987334529E+03  0.64454037255E+02  0.23375524038E+03  0.00000000000E+00 0.  1.
        -11    1    3    3    0    0  0.35564434447E+03  0.90881641021E+03  0.39449190700E+03  0.10526414546E+04  0.00000000000E+00 0. -1.
         22    1    1    2    0    0 -0.40193582875E+03 -0.11286897555E+04  0.14056036259E+04  0.18469473538E+04  0.00000000000E+00 0. -1.
<mgrwt>
<rscale>  0 0.25181938E+04</rscale>
<asrwt>0</asrwt>
<pdfrwt beam="1">  1        2 0.97599577E-01 0.25181938E+04</pdfrwt>
<pdfrwt beam="2">  1       -2 0.38445335E+00 0.25181938E+04</pdfrwt>
<totfact> 0.38677081E-01</totfact>
</mgrwt>
</event>
<event>
 6    1  0.5040916E-004  0.3328034E+04  0.7818608E-02  0.8155798E-01
          2   -1    0    0  501    0  0.00000000000E+00  0.00000000000E+00  0.25063604104E+04  0.25063604104E+04  0.00000000000E+00 0.  1.
         -2   -1    0    0    0  501 -0.00000000000E+00 -0.00000000000E+00 -0.11047706225E+04  0.11047706225E+04  0.00000000000E+00 0. -1.
         23    2    1    2    0    0  0.82820550698E+03  0.51022338509E+03 -0.76195696557E+03  0.12389618108E+04  0.90530031810E+02 0.  0.
         13    1    3    3    0    0  0.35922411873E+03  0.19572632022E+03 -0.36999098902E+03  0.55158325923E+03  0.00000000000E+00 0. -1.
        -13    1    3    3    0    0  0.46898138825E+03  0.31449706486E+03 -0.39196597655E+03  0.68737855153E+03  0.00000000000E+00 0.  1.
         22    1    1    2    0    0 -0.82820550698E+03 -0.51022338509E+03  0.21635467534E+04  0.23721692222E+04  0.00000000000E+00 0.  1.
<mgrwt>
<rscale>  0 0.33280345E+04</rscale>
<asrwt>0</asrwt>
<pdfrwt beam="1">  1        2 0.38559391E+00 0.33280345E+04</pdfrwt>
<pdfrwt beam="2">  1       -2 0.16996471E+00 0.33280345E+04</pdfrwt>
<totfact> 0.61328428E-01</totfact>
</mgrwt>
</event>
<event>
 6    1  0.5040916E-004  0.2902289E+04  0.7818608E-02  0.8272197E-01
          2   -1    0    0  501    0  0.00000000000E+00  0.00000000000E+00  0.25217365069E+04  0.25217365069E+04  0.00000000000E+00 0.  1.
         -2   -1    0    0    0  501 -0.00000000000E+00 -0.00000000000E+00 -0.83506733638E+03  0.83506733638E+03  0.00000000000E+00 0. -1.
         23    2    1    2    0    0 -0.11930661347E+04  0.24907901992E+03 -0.63780739765E+02  0.12238429791E+04  0.90975242556E+02 0.  0.
         11    1    3    3    0    0 -0.43065402151E+03  0.96323556081E+02 -0.66477401692E+02  0.44627386058E+03  0.00000000000E+00 0.  1.
        -11    1    3    3    0    0 -0.76241211316E+03  0.15275546384E+03  0.26966619269E+01  0.77756911848E+03  0.00000000000E+00 0. -1.
         22    1    1    2    0    0  0.11930661347E+04 -0.24907901992E+03  0.17504499103E+04  0.21329608642E+04  0.00000000000E+00 0.  1.
<mgrwt>
<rscale>  0 0.29022886E+04</rscale>
<asrwt>0</asrwt>
<pdfrwt beam="1">  1        2 0.38795946E+00 0.29022886E+04</pdfrwt>
<pdfrwt beam="2">  1       -2 0.12847190E+00 0.29022886E+04</pdfrwt>
<totfact> 0.13053862E+00</totfact>
</mgrwt>
</event>
<event>
 6    1  0.5040916E-004  0.9660230E+03  0.7818608E-02  0.9346616E-01
         -2   -1    0    0    0  501 -0.00000000000E+00  0.00000000000E+00  0.12854726397E+04  0.12854726397E+04  0.00000000000E+00 0. -1.
          2   -1    0    0  501    0  0.00000000000E+00 -0.00000000000E+00 -0.18148973540E+03  0.18148973540E+03  0.00000000000E+00 0.  1.
         23    2    1    2    0    0  0.46603939940E+03 -0.77408250352E+02  0.68899802695E+03  0.83815619873E+03  0.67843741832E+02 0.  0.
         11    1    3    3    0    0  0.37281199605E+03 -0.61515975503E+02  0.49895994240E+03  0.62588659018E+03  0.00000000000E+00 0.  1.
        -11    1    3    3    0    0  0.93227403353E+02 -0.15892274849E+02  0.19003808454E+03  0.21226960855E+03  0.00000000000E+00 0. -1.
         22    1    1    2    0    0 -0.46603939940E+03  0.77408250352E+02  0.41498487738E+03  0.62880617640E+03  0.00000000000E+00 0.  1.
<mgrwt>
<rscale>  0 0.96602296E+03</rscale>
<asrwt>0</asrwt>
<pdfrwt beam="1">  1        2 0.27921499E-01 0.96602296E+03</pdfrwt>
<pdfrwt beam="2">  1       -2 0.19776502E+00 0.96602296E+03</pdfrwt>
<totfact> 0.26625984E+01</totfact>
</mgrwt>
</event>
<event>
 6    1  0.5040916E-004  0.1115516E+04  0.7818608E-02  0.9190200E-01
         -2   -1    0    0    0  501 -0.00000000000E+00  0.00000000000E+00  0.25950790222E+03  0.25950790222E+03  0.00000000000E+00 0. -1.
          2   -1    0    0  501    0  0.00000000000E+00 -0.00000000000E+00 -0.11987832470E+04  0.11987832470E+04  0.00000000000E+00 0.  1.
         23    2    1    2    0    0 -0.17985107537E+03 -0.29935560390E+03  0.89789358432E+02  0.37158311561E+03  0.89731243288E+02 0.  0.
         11    1    3    3    0    0 -0.10406174014E+03 -0.91667044397E+02  0.22553252447E+02  0.14050032735E+03  0.00000000000E+00 0.  1.
        -11    1    3    3    0    0 -0.75789335231E+02 -0.20768855950E+03  0.67236105985E+02  0.23108278826E+03  0.00000000000E+00 0. -1.
         22    1    1    2    0    0  0.17985107537E+03  0.29935560390E+03 -0.10290647032E+04  0.10867080336E+04  0.00000000000E+00 0.  1.
<mgrwt>
<rscale>  0 0.11155155E+04</rscale>
<asrwt>0</asrwt>
<pdfrwt beam="1">  1        2 0.18442819E+00 0.11155155E+04</pdfrwt>
<pdfrwt beam="2">  1       -2 0.39924292E-01 0.11155155E+04</pdfrwt>
<totfact> 0.11163364E+02</totfact>
</mgrwt>
</event>
<event>
 6    1  0.5040916E-004  0.1364433E+04  0.7818608E-02  0.8979974E-01
          2   -1    0    0  501    0  0.00000000000E+00  0.00000000000E+00  0.22605066370E+04  0.22605066370E+04  0.00000000000E+00 0.  1.
         -2   -1    0    0    0  501 -0.00000000000E+00 -0.00000000000E+00 -0.20589172284E+03  0.20589172284E+03  0.00000000000E+00 0. -1.
         23    2    1    2    0    0 -0.30835905352E+03  0.52357746691E+03  0.48379492561E+03  0.78214953435E+03  0.92096114409E+02 0.  0.
         11    1    3    3    0    0 -0.13256313987E+03  0.25117439648E+03  0.28223926003E+03  0.40040050375E+03  0.00000000000E+00 0. -1.
        -11    1    3    3    0    0 -0.17579591365E+03  0.27240307043E+03  0.20155566558E+03  0.38174903060E+03  0.00000000000E+00 0.  1.
         22    1    1    2    0    0  0.30835905352E+03 -0.52357746691E+03  0.15708199886E+04  0.16842488255E+04  0.00000000000E+00 0.  1.
<mgrwt>
<rscale>  0 0.13644334E+04</rscale>
<asrwt>0</asrwt>
<pdfrwt beam="1">  1        2 0.34777023E+00 0.13644334E+04</pdfrwt>
<pdfrwt beam="2">  1       -2 0.31675651E-01 0.13644334E+04</pdfrwt>
<totfact> 0.43223863E+01</totfact>
</mgrwt>
</event>
<event>
 6    1  0.5040916E-004  0.2218460E+04  0.7818608E-02  0.8510784E-01
         -2   -1    0    0    0  501 -0.00000000000E+00  0.00000000000E+00  0.40914928022E+03  0.40914928022E+03  0.00000000000E+00 0. -1.
          2   -1    0    0  501    0  0.00000000000E+00 -0.00000000000E+00 -0.30071945748E+04  0.30071945748E+04  0.00000000000E+00 0.  1.
         23    2    1    2    0    0  0.59223864967E+03 -0.86889267297E+03 -0.76691944175E+03  0.13047702749E+04  0.92406411287E+02 0.  0.
         13    1    3    3    0    0  0.39475512104E+03 -0.62274847045E+03 -0.49363228514E+03  0.88731059724E+03  0.00000000000E+00 0.  1.
        -13    1    3    3    0    0  0.19748352863E+03 -0.24614420252E+03 -0.27328715661E+03  0.41745967767E+03  0.00000000000E+00 0. -1.
         22    1    1    2    0    0 -0.59223864967E+03  0.86889267297E+03 -0.18311258528E+04  0.21115735801E+04  0.00000000000E+00 0.  1.
<mgrwt>
<rscale>  0 0.22184603E+04</rscale>
<asrwt>0</asrwt>
<pdfrwt beam="1">  1        2 0.46264529E+00 0.22184603E+04</pdfrwt>
<pdfrwt beam="2">  1       -2 0.62946047E-01 0.22184603E+04</pdfrwt>
<totfact> 0.36824003E+00</totfact>
</mgrwt>
</event>
<event>
 6    1  0.5040916E-004  0.1235690E+04  0.7818608E-02  0.9082178E-01
         -3   -1    0    0    0  501 -0.00000000000E+00  0.00000000000E+00  0.40199443224E+03  0.40199443224E+03  0.00000000000E+00 0. -1.
          3   -1    0    0  501    0  0.00000000000E+00 -0.00000000000E+00 -0.94959708672E+03  0.94959708672E+03  0.00000000000E+00 0.  1.
         23    2    1    2    0    0  0.25373854049E+03 -0.47000687973E+03 -0.60768217200E+03  0.81409801914E+03  0.90488942297E+02 0.  0.
         13    1    3    3    0    0  0.22334415753E+03 -0.34308487801E+03 -0.43091331568E+03  0.59437036590E+03  0.00000000000E+00 0. -1.
        -13    1    3    3    0    0  0.30394382953E+02 -0.12692200172E+03 -0.17676885632E+03  0.21972765324E+03  0.00000000000E+00 0.  1.
         22    1    1    2    0    0 -0.25373854049E+03  0.47000687973E+03  0.60079517518E+02  0.53749349982E+03  0.00000000000E+00 0. -1.
<mgrwt>
<rscale>  0 0.12356905E+04</rscale>
<asrwt>0</asrwt>
<pdfrwt beam="1">  1        3 0.14609186E+00 0.12356905E+04</pdfrwt>
<pdfrwt beam="2">  1       -3 0.61845297E-01 0.12356905E+04</pdfrwt>
<totfact> 0.22759443E+00</totfact>
</mgrwt>
</event>
<event>
 6    1  0.5040916E-004  0.1495776E+04  0.7818608E-02  0.8887267E-01
         -2   -1    0    0    0  501 -0.00000000000E+00  0.00000000000E+00  0.48968353246E+03  0.48968353246E+03  0.00000000000E+00 0. -1.
          2   -1    0    0  501    0  0.00000000000E+00 -0.00000000000E+00 -0.11422407119E+04  0.11422407119E+04  0.00000000000E+00 0.  1.
         23    2    1    2    0    0  0.56304695357E+03  0.26633995706E+03  0.11823578904E+03  0.64092442350E+03  0.94050891441E+02 0.  0.
         13    1    3    3    0    0  0.52704490213E+03  0.25408720166E+03  0.86626938313E+02  0.59147346631E+03  0.00000000000E+00 0. -1.
        -13    1    3    3    0    0  0.36002051445E+02  0.12252755399E+02  0.31608850730E+02  0.49450957196E+02  0.00000000000E+00 0.  1.
         22    1    1    2    0    0 -0.56304695357E+03 -0.26633995706E+03 -0.77079296846E+03  0.99099982082E+03  0.00000000000E+00 0.  1.
<mgrwt>
<rscale>  0 0.14957760E+04</rscale>
<asrwt>0</asrwt>
<pdfrwt beam="1">  1        2 0.17572934E+00 0.14957760E+04</pdfrwt>
<pdfrwt beam="2">  1       -2 0.75335929E-01 0.14957760E+04</pdfrwt>
<totfact> 0.31367325E+01</totfact>
</mgrwt>
</event>
<event>
 6    1  0.5040916E-004  0.2329235E+04  0.7818608E-02  0.8466483E-01
          2   -1    0    0  501    0  0.00000000000E+00  0.00000000000E+00  0.19906283901E+04  0.19906283901E+04  0.00000000000E+00 0.  1.
         -2   -1    0    0    0  501 -0.00000000000E+00 -0.00000000000E+00 -0.68135969762E+03  0.68135969762E+03  0.00000000000E+00 0. -1.
         23    2    1    2    0    0 -0.78823115560E+03 -0.82984720423E+03  0.42031997972E+03  0.12227867384E+04  0.92648719247E+02 0.  0.
         11    1    3    3    0    0 -0.66588220241E+03 -0.71876375285E+03  0.39105443665E+03  0.10549616165E+04  0.00000000000E+00 0.  1.
        -11    1    3    3    0    0 -0.12234895319E+03 -0.11108345138E+03  0.29265543067E+02  0.16782512186E+03  0.00000000000E+00 0. -1.
         22    1    1    2    0    0  0.78823115560E+03  0.82984720423E+03  0.88894871279E+03  0.14492013494E+04  0.00000000000E+00 0. -1.
<mgrwt>
<rscale>  0 0.23292350E+04</rscale>
<asrwt>0</asrwt>
<pdfrwt beam="1">  1        2 0.30625052E+00 0.23292350E+04</pdfrwt>
<pdfrwt beam="2">  1       -2 0.10482457E+00 0.23292350E+04</pdfrwt>
<totfact> 0.45135382E+00</totfact>
</mgrwt>
</event>
<event>
 6    1  0.5040916E-004  0.2315068E+04  0.7818608E-02  0.8472004E-01
          2   -1    0    0  501    0  0.00000000000E+00  0.00000000000E+00  0.15203890288E+04  0.15203890288E+04  0.00000000000E+00 0.  1.
         -2   -1    0    0    0  501 -0.00000000000E+00 -0.00000000000E+00 -0.88127744306E+03  0.88127744306E+03  0.00000000000E+00 0. -1.
         23    2    1    2    0    0 -0.96340452469E+03 -0.62227520214E+03  0.46382470854E+03  0.12414508907E+04  0.10340332893E+03 0.  0.
         11    1    3    3    0    0 -0.47422625923E+03 -0.33847921353E+03  0.28285520701E+03  0.64766178756E+03  0.00000000000E+00 0.  1.
        -11    1    3    3    0    0 -0.48917826545E+03 -0.28379598861E+03  0.18096950153E+03  0.59378910315E+03  0.00000000000E+00 0. -1.
         22    1    1    2    0    0  0.96340452469E+03  0.62227520214E+03  0.17528687718E+03  0.11602155811E+04  0.00000000000E+00 0.  1.
<mgrwt>
<rscale>  0 0.23150676E+04</rscale>
<asrwt>0</asrwt>
<pdfrwt beam="1">  1        2 0.23390600E+00 0.23150676E+04</pdfrwt>
<pdfrwt beam="2">  1       -2 0.13558115E+00 0.23150676E+04</pdfrwt>
<totfact> 0.43685051E+00</totfact>
</mgrwt>
</event>
<event>
 6    1  0.5040916E-004  0.3985244E+04  0.7818608E-02  0.8007530E-01
          2   -1    0    0  501    0  0.00000000000E+00  0.00000000000E+00  0.27629343443E+04  0.27629343443E+04  0.00000000000E+00 0.  1.
         -2   -1    0    0    0  501 -0.00000000000E+00 -0.00000000000E+00 -0.14370741435E+04  0.14370741435E+04  0.00000000000E+00 0. -1.
         23    2    1    2    0    0 -0.74532601712E+03  0.94952499547E+03 -0.10062766378E+04  0.15739904334E+04  0.88003544576E+02 0.  0.
         13    1    3    3    0    0 -0.22380617045E+03  0.22719358032E+03 -0.24604886376E+03  0.40279792481E+03  0.00000000000E+00 0. -1.
        -13    1    3    3    0    0 -0.52151984666E+03  0.72233141515E+03 -0.76022777400E+03  0.11711925086E+04  0.00000000000E+00 0.  1.
         22    1    1    2    0    0  0.74532601712E+03 -0.94952499547E+03  0.23321368385E+04  0.26260180545E+04  0.00000000000E+00 0.  1.
<mgrwt>
<rscale>  0 0.39852435E+04</rscale>
<asrwt>0</asrwt>
<pdfrwt beam="1">  1        2 0.42506682E+00 0.39852435E+04</pdfrwt>
<pdfrwt beam="2">  1       -2 0.22108833E+00 0.39852435E+04</pdfrwt>
<totfact> 0.18702050E-01</totfact>
</mgrwt>
</event>
<event>
 6    1  0.5040916E-004  0.3743057E+04  0.7818608E-02  0.8058486E-01
         -2   -1    0    0    0  501 -0.00000000000E+00  0.00000000000E+00  0.90582161280E+03  0.90582161280E+03  0.00000000000E+00 0. -1.
          2   -1    0    0  501    0  0.00000000000E+00 -0.00000000000E+00 -0.38667869400E+04  0.38667869400E+04  0.00000000000E+00 0.  1.
         23    2    1    2    0    0 -0.35729428938E+03  0.75541044681E+03  0.65180223237E+03  0.10644562377E+04  0.99583028411E+02 0.  0.
         11    1    3    3    0    0 -0.86802296717E+02  0.28896932042E+03  0.25386875522E+03  0.39431871848E+03  0.00000000000E+00 0.  1.
        -11    1    3    3    0    0 -0.27049199266E+03  0.46644112639E+03  0.39793347714E+03  0.67013751925E+03  0.00000000000E+00 0. -1.
         22    1    1    2    0    0  0.35729428938E+03 -0.75541044681E+03 -0.36127675595E+04  0.37081523151E+04  0.00000000000E+00 0.  1.
<mgrwt>
<rscale>  0 0.37430571E+04</rscale>
<asrwt>0</asrwt>
<pdfrwt beam="1">  1        2 0.59489030E+00 0.37430571E+04</pdfrwt>
<pdfrwt beam="2">  1       -2 0.13935717E+00 0.37430571E+04</pdfrwt>
<totfact> 0.12741295E-01</totfact>
</mgrwt>
</event>
<event>
 6    1  0.5040916E-004  0.3354376E+04  0.7818608E-02  0.8149195E-01
         -2   -1    0    0    0  501 -0.00000000000E+00  0.00000000000E+00  0.14144177680E+04  0.14144177680E+04  0.00000000000E+00 0. -1.
          2   -1    0    0  501    0  0.00000000000E+00 -0.00000000000E+00 -0.19887761324E+04  0.19887761324E+04  0.00000000000E+00 0.  1.
         23    2    1    2    0    0 -0.15810909892E+04  0.52066017963E+03 -0.48478998619E+03  0.17361731348E+04  0.91324064232E+02 0.  0.
         13    1    3    3    0    0 -0.42881380570E+03  0.18231721330E+03 -0.12261531967E+03  0.48182503343E+03  0.00000000000E+00 0.  1.
        -13    1    3    3    0    0 -0.11522771835E+04  0.33834296633E+03 -0.36217466653E+03  0.12543481014E+04  0.00000000000E+00 0. -1.
         22    1    1    2    0    0  0.15810909892E+04 -0.52066017963E+03 -0.89568378150E+02  0.16670207656E+04  0.00000000000E+00 0. -1.
<mgrwt>
<rscale>  0 0.33543764E+04</rscale>
<asrwt>0</asrwt>
<pdfrwt beam="1">  1        2 0.30596556E+00 0.33543764E+04</pdfrwt>
<pdfrwt beam="2">  1       -2 0.21760273E+00 0.33543764E+04</pdfrwt>
<totfact> 0.57695915E-01</totfact>
</mgrwt>
</event>
<event>
 6    1  0.5040916E-004  0.2843501E+04  0.7818608E-02  0.8289889E-01
          2   -1    0    0  501    0  0.00000000000E+00  0.00000000000E+00  0.64277973274E+03  0.64277973274E+03  0.00000000000E+00 0.  1.
         -2   -1    0    0    0  501 -0.00000000000E+00 -0.00000000000E+00 -0.31447382954E+04  0.31447382954E+04  0.00000000000E+00 0. -1.
         23    2    1    2    0    0 -0.10513533419E+04  0.21885792067E+03 -0.24904387705E+04  0.27135648892E+04  0.88918496967E+02 0.  0.
         13    1    3    3    0    0 -0.36638913846E+03  0.37542989797E+02 -0.80579243710E+03  0.88597512863E+03  0.00000000000E+00 0.  1.
        -13    1    3    3    0    0 -0.68496420348E+03  0.18131493087E+03 -0.16846463334E+04  0.18275897606E+04  0.00000000000E+00 0. -1.
         22    1    1    2    0    0  0.10513533419E+04 -0.21885792067E+03 -0.11519792137E+02  0.10739531390E+04  0.00000000000E+00 0.  1.
<mgrwt>
<rscale>  0 0.28435007E+04</rscale>
<asrwt>0</asrwt>
<pdfrwt beam="1">  1        2 0.98889191E-01 0.28435007E+04</pdfrwt>
<pdfrwt beam="2">  1       -2 0.48380588E+00 0.28435007E+04</pdfrwt>
<totfact> 0.82286859E-02</totfact>
</mgrwt>
</event>
<event>
 6    1  0.5040916E-004  0.2131431E+04  0.7818608E-02  0.8547523E-01
         -2   -1    0    0    0  501 -0.00000000000E+00  0.00000000000E+00  0.58408154033E+03  0.58408154033E+03  0.00000000000E+00 0. -1.
          2   -1    0    0  501    0  0.00000000000E+00 -0.00000000000E+00 -0.19445053037E+04  0.19445053037E+04  0.00000000000E+00 0.  1.
         23    2    1    2    0    0  0.26748139922E+03 -0.37846042995E+03 -0.18173131380E+04  0.18777977102E+04  0.93373460451E+02 0.  0.
         11    1    3    3    0    0  0.69768423435E+02 -0.58237200718E+02 -0.25224241289E+03  0.26811460109E+03  0.00000000000E+00 0. -1.
        -11    1    3    3    0    0  0.19771297578E+03 -0.32022322923E+03 -0.15650707251E+04  0.16096831092E+04  0.00000000000E+00 0.  1.
         22    1    1    2    0    0 -0.26748139922E+03  0.37846042995E+03  0.45688937465E+03  0.65078913377E+03  0.00000000000E+00 0. -1.
<mgrwt>
<rscale>  0 0.21314311E+04</rscale>
<asrwt>0</asrwt>
<pdfrwt beam="1">  1        2 0.29915466E+00 0.21314311E+04</pdfrwt>
<pdfrwt beam="2">  1       -2 0.89858699E-01 0.21314311E+04</pdfrwt>
<totfact> 0.69929907E+00</totfact>
</mgrwt>
</event>
<event>
 6    1  0.6096000E-004  0.2803742E+04  0.7818608E-02  0.8302108E-01
         -2   -1    0    0    0  501 -0.00000000000E+00  0.00000000000E+00  0.13288762258E+04  0.13288762258E+04  0.00000000000E+00 0. -1.
          2   -1    0    0  501    0  0.00000000000E+00 -0.00000000000E+00 -0.14788754420E+04  0.14788754420E+04  0.00000000000E+00 0.  1.
         23    2    1    2    0    0 -0.39986379253E+03  0.97739622281E+03  0.84600203602E+03  0.13561274316E+04  0.90375531732E+02 0.  0.
         13    1    3    3    0    0 -0.20161543749E+03  0.37620642653E+03  0.33581851219E+03  0.54309679904E+03  0.00000000000E+00 0.  1.
        -13    1    3    3    0    0 -0.19824835504E+03  0.60118979628E+03  0.51018352383E+03  0.81303063251E+03  0.00000000000E+00 0. -1.
         22    1    1    2    0    0  0.39986379253E+03 -0.97739622281E+03 -0.99600125221E+03  0.14516242363E+04  0.00000000000E+00 0.  1.
<mgrwt>
<rscale>  0 0.28037421E+04</rscale>
<asrwt>0</asrwt>
<pdfrwt beam="1">  1        2 0.22751930E+00 0.28037421E+04</pdfrwt>
<pdfrwt beam="2">  1       -2 0.20444249E+00 0.28037421E+04</pdfrwt>
<totfact> 0.14120606E+00</totfact>
</mgrwt>
</event>
<event>
 6    1  0.5040916E-004  0.2641181E+04  0.7818608E-02  0.8354346E-01
          2   -1    0    0  501    0  0.00000000000E+00  0.00000000000E+00  0.10378709810E+04  0.10378709810E+04  0.00000000000E+00 0.  1.
         -2   -1    0    0    0  501 -0.00000000000E+00 -0.00000000000E+00 -0.16803243571E+04  0.16803243571E+04  0.00000000000E+00 0. -1.
         23    2    1    2    0    0  0.72543232783E+03  0.81880188759E+03 -0.10800974902E+04  0.15399674467E+04  0.90556917249E+02 0.  0.
         13    1    3    3    0    0  0.46204649419E+03  0.49685860857E+03 -0.72608940130E+03  0.99376116768E+03  0.00000000000E+00 0.  1.
        -13    1    3    3    0    0  0.26338583364E+03  0.32194327902E+03 -0.35400808892E+03  0.54620627906E+03  0.00000000000E+00 0. -1.
         22    1    1    2    0    0 -0.72543232783E+03 -0.81880188759E+03  0.43764411414E+03  0.11782278914E+04  0.00000000000E+00 0.  1.
<mgrwt>
<rscale>  0 0.26411815E+04</rscale>
<asrwt>0</asrwt>
<pdfrwt beam="1">  1        2 0.15967246E+00 0.26411815E+04</pdfrwt>
<pdfrwt beam="2">  1       -2 0.25851144E+00 0.26411815E+04</pdfrwt>
<totfact> 0.11965938E+00</totfact>
</mgrwt>
</event>
<event>
 6    1  0.5040916E-004  0.1743633E+04  0.7818608E-02  0.8736863E-01
          2   -1    0    0  501    0  0.00000000000E+00  0.00000000000E+00  0.12929215491E+04  0.12929215491E+04  0.00000000000E+00 0.  1.
         -2   -1    0    0    0  501 -0.00000000000E+00 -0.00000000000E+00 -0.58786582662E+03  0.58786582662E+03  0.00000000000E+00 0. -1.
         23    2    1    2    0    0  0.79552488561E+03  0.75878252747E+02 -0.15075717970E+02  0.80505197871E+03  0.96249978152E+02 0.  0.
         13    1    3    3    0    0  0.40518700806E+03  0.18527032566E+02  0.36120501138E+02  0.40721548723E+03  0.00000000000E+00 0. -1.
        -13    1    3    3    0    0  0.39033787755E+03  0.57351220181E+02 -0.51196219108E+02  0.39783649149E+03  0.00000000000E+00 0.  1.
         22    1    1    2    0    0 -0.79552488561E+03 -0.75878252747E+02  0.72013144049E+03  0.10757353970E+04  0.00000000000E+00 0.  1.
<mgrwt>
<rscale>  0 0.17436334E+04</rscale>
<asrwt>0</asrwt>
<pdfrwt beam="1">  1        2 0.19891101E+00 0.17436334E+04</pdfrwt>
<pdfrwt beam="2">  1       -2 0.90440897E-01 0.17436334E+04</pdfrwt>
<totfact> 0.16540095E+01</totfact>
</mgrwt>
</event>
<event>
 6    1  0.5040916E-004  0.3650851E+04  0.7818608E-02  0.8078942E-01
         -2   -1    0    0    0  501 -0.00000000000E+00  0.00000000000E+00  0.36026948159E+04  0.36026948159E+04  0.00000000000E+00 0. -1.
          2   -1    0    0  501    0  0.00000000000E+00 -0.00000000000E+00 -0.92491291866E+03  0.92491291866E+03  0.00000000000E+00 0.  1.
         23    2    1    2    0    0  0.55470053684E+03  0.73046472006E+03 -0.61584504509E+03  0.11086532411E+04  0.92603977857E+02 0.  0.
         11    1    3    3    0    0  0.23802594802E+03  0.38963216921E+03 -0.29953921310E+03  0.54607080072E+03  0.00000000000E+00 0. -1.
        -11    1    3    3    0    0  0.31667458882E+03  0.34083255085E+03 -0.31630583199E+03  0.56258244042E+03  0.00000000000E+00 0.  1.
         22    1    1    2    0    0 -0.55470053684E+03 -0.73046472006E+03  0.32936269423E+04  0.34189544934E+04  0.00000000000E+00 0. -1.
<mgrwt>
<rscale>  0 0.36508514E+04</rscale>
<asrwt>0</asrwt>
<pdfrwt beam="1">  1        2 0.14229430E+00 0.36508514E+04</pdfrwt>
<pdfrwt beam="2">  1       -2 0.55426073E+00 0.36508514E+04</pdfrwt>
<totfact> 0.18547024E-02</totfact>
</mgrwt>
</event>
<event>
 6    1  0.5040916E-004  0.1362145E+04  0.7818608E-02  0.8981685E-01
          2   -1    0    0  501    0  0.00000000000E+00  0.00000000000E+00  0.20801943706E+04  0.20801943706E+04  0.00000000000E+00 0.  1.
         -2   -1    0    0    0  501 -0.00000000000E+00 -0.00000000000E+00 -0.22298850420E+03  0.22298850420E+03  0.00000000000E+00 0. -1.
         23    2    1    2    0    0 -0.45429855443E+03 -0.26319510851E+02  0.17823547610E+04  0.18420076574E+04  0.95518702571E+02 0.  0.
         11    1    3    3    0    0 -0.26712335731E+03 -0.18850346018E+02  0.12279872507E+04  0.12568464152E+04  0.00000000000E+00 0.  1.
        -11    1    3    3    0    0 -0.18717519713E+03 -0.74691648328E+01  0.55436751033E+03  0.58516124218E+03  0.00000000000E+00 0. -1.
         22    1    1    2    0    0  0.45429855443E+03  0.26319510851E+02  0.74851105416E+02  0.46117521745E+03  0.00000000000E+00 0. -1.
<mgrwt>
<rscale>  0 0.13621445E+04</rscale>
<asrwt>0</asrwt>
<pdfrwt beam="1">  1        2 0.32002989E+00 0.13621445E+04</pdfrwt>
<pdfrwt beam="2">  1       -2 0.34305925E-01 0.13621445E+04</pdfrwt>
<totfact> 0.46875167E+01</totfact>
</mgrwt>
</event>
<event>
 6    1  0.5040916E-004  0.2335149E+04  0.7818608E-02  0.8464190E-01
         -2   -1    0    0    0  501 -0.00000000000E+00  0.00000000000E+00  0.65800665941E+03  0.65800665941E+03  0.00000000000E+00 0. -1.
          2   -1    0    0  501    0  0.00000000000E+00 -0.00000000000E+00 -0.20717571014E+04  0.20717571014E+04  0.00000000000E+00 0.  1.
         23    2    1    2    0    0 -0.90038839920E+03 -0.48223221104E+03 -0.50905518981E+02  0.10266508876E+04  0.90407401934E+02 0.  0.
         13    1    3    3    0    0 -0.70750578370E+03 -0.38865984382E+03 -0.76025472764E+02  0.81080255344E+03  0.00000000000E+00 0.  1.
        -13    1    3    3    0    0 -0.19288261550E+03 -0.93572367220E+02  0.25119953783E+02  0.21584833413E+03  0.00000000000E+00 0. -1.
         22    1    1    2    0    0  0.90038839920E+03  0.48223221104E+03 -0.13628449230E+04  0.17031128732E+04  0.00000000000E+00 0.  1.
<mgrwt>
<rscale>  0 0.23351488E+04</rscale>
<asrwt>0</asrwt>
<pdfrwt beam="1">  1        2 0.31873187E+00 0.23351488E+04</pdfrwt>
<pdfrwt beam="2">  1       -2 0.10123179E+00 0.23351488E+04</pdfrwt>
<totfact> 0.44189840E+00</totfact>
</mgrwt>
</event>
<event>
 6    1  0.5040916E-004  0.3006728E+04  0.7818608E-02  0.8241812E-01
         -2   -1    0    0    0  501 -0.00000000000E+00  0.00000000000E+00  0.61337354595E+03  0.61337354595E+03  0.00000000000E+00 0.  1.
          2   -1    0    0  501    0  0.00000000000E+00 -0.00000000000E+00 -0.36847089748E+04  0.36847089748E+04  0.00000000000E+00 0. -1.
         23    2    1    2    0    0 -0.38033382119E+03 -0.63480505285E+03  0.33105513097E+03  0.81614444086E+03  0.94143390324E+02 0.  0.
         11    1    3    3    0    0 -0.87612464865E+02 -0.19842223257E+03  0.60863941513E+02  0.22528148116E+03  0.00000000000E+00 0. -1.
        -11    1    3    3    0    0 -0.29272135633E+03 -0.43638282028E+03  0.27019118946E+03  0.59086295970E+03  0.00000000000E+00 0.  1.
         22    1    1    2    0    0  0.38033382119E+03  0.63480505285E+03 -0.34023905598E+04  0.34819380799E+04  0.00000000000E+00 0. -1.
<mgrwt>
<rscale>  0 0.30067278E+04</rscale>
<asrwt>0</asrwt>
<pdfrwt beam="1">  1        2 0.56687829E+00 0.30067278E+04</pdfrwt>
<pdfrwt beam="2">  1       -2 0.94365163E-01 0.30067278E+04</pdfrwt>
<totfact> 0.48483398E-01</totfact>
</mgrwt>
</event>
<event>
 6    1  0.5040916E-004  0.2608998E+04  0.7818608E-02  0.8365151E-01
          2   -1    0    0  501    0  0.00000000000E+00  0.00000000000E+00  0.31615287768E+04  0.31615287768E+04  0.00000000000E+00 0.  1.
         -2   -1    0    0    0  501 -0.00000000000E+00 -0.00000000000E+00 -0.53825796981E+03  0.53825796981E+03  0.00000000000E+00 0. -1.
         23    2    1    2    0    0 -0.98584154750E+03 -0.37726912469E+03  0.23961260529E+04  0.26200597957E+04  0.95277080892E+02 0.  0.
         13    1    3    3    0    0 -0.42013353766E+03 -0.11061964675E+03  0.98400981011E+03  0.10756505948E+04  0.00000000000E+00 0.  1.
        -13    1    3    3    0    0 -0.56570800985E+03 -0.26664947794E+03  0.14121162428E+04  0.15444092009E+04  0.00000000000E+00 0. -1.
         22    1    1    2    0    0  0.98584154750E+03  0.37726912469E+03  0.22714475403E+03  0.10797269509E+04  0.00000000000E+00 0. -1.
<mgrwt>
<rscale>  0 0.26089983E+04</rscale>
<asrwt>0</asrwt>
<pdfrwt beam="1">  1        2 0.48638903E+00 0.26089983E+04</pdfrwt>
<pdfrwt beam="2">  1       -2 0.82808920E-01 0.26089983E+04</pdfrwt>
<totfact> 0.15525759E+00</totfact>
</mgrwt>
</event>
<event>
 6    1  0.5040916E-004  0.1240811E+04  0.7818608E-02  0.9077866E-01
          2   -1    0    0  501    0  0.00000000000E+00  0.00000000000E+00  0.33796642283E+03  0.33796642283E+03  0.00000000000E+00 0.  1.
         -2   -1    0    0    0  501 -0.00000000000E+00 -0.00000000000E+00 -0.11388787002E+04  0.11388787002E+04  0.00000000000E+00 0. -1.
         23    2    1    2    0    0 -0.50377039287E+03  0.18494123881E+03 -0.45244321224E+02  0.55001076325E+03  0.11170013669E+03 0.  0.
         11    1    3    3    0    0 -0.16695948692E+03  0.27556282207E+02  0.26796711127E+02  0.17132683003E+03  0.00000000000E+00 0. -1.
        -11    1    3    3    0    0 -0.33681090596E+03  0.15738495660E+03 -0.72041032351E+02  0.37868393322E+03  0.00000000000E+00 0.  1.
         22    1    1    2    0    0  0.50377039287E+03 -0.18494123881E+03 -0.75566795619E+03  0.92683435983E+03  0.00000000000E+00 0. -1.
<mgrwt>
<rscale>  0 0.12408106E+04</rscale>
<asrwt>0</asrwt>
<pdfrwt beam="1">  1        2 0.51994834E-01 0.12408106E+04</pdfrwt>
<pdfrwt beam="2">  1       -2 0.17521211E+00 0.12408106E+04</pdfrwt>
<totfact> 0.18496420E+01</totfact>
</mgrwt>
</event>
<event>
 6    1  0.5040916E-004  0.1923971E+04  0.7818608E-02  0.8643016E-01
         -2   -1    0    0    0  501 -0.00000000000E+00  0.00000000000E+00  0.43207661003E+03  0.43207661003E+03  0.00000000000E+00 0. -1.
          2   -1    0    0  501    0  0.00000000000E+00 -0.00000000000E+00 -0.21417871896E+04  0.21417871896E+04  0.00000000000E+00 0.  1.
         23    2    1    2    0    0  0.10962406498E+03 -0.29287127955E+03 -0.20707451560E+04  0.20962269214E+04  0.91601214753E+02 0.  0.
         13    1    3    3    0    0  0.17117387422E+02 -0.17285279859E+03 -0.10409191453E+04  0.10553121633E+04  0.00000000000E+00 0. -1.
        -13    1    3    3    0    0  0.92506677560E+02 -0.12001848096E+03 -0.10298260107E+04  0.10409147580E+04  0.00000000000E+00 0.  1.
         22    1    1    2    0    0 -0.10962406498E+03  0.29287127955E+03  0.36103457651E+03  0.47763687823E+03  0.00000000000E+00 0. -1.
<mgrwt>
<rscale>  0 0.19239710E+04</rscale>
<asrwt>0</asrwt>
<pdfrwt beam="1">  1        2 0.32950572E+00 0.19239710E+04</pdfrwt>
<pdfrwt beam="2">  1       -2 0.66473325E-01 0.19239710E+04</pdfrwt>
<totfact> 0.10826182E+01</totfact>
</mgrwt>
</event>
<event>
 6    1  0.5040916E-004  0.3257323E+04  0.7818608E-02  0.8173840E-01
          2   -1    0    0  501    0  0.00000000000E+00  0.00000000000E+00  0.44164986427E+04  0.44164986427E+04  0.00000000000E+00 0.  1.
         -2   -1    0    0    0  501 -0.00000000000E+00 -0.00000000000E+00 -0.60059769060E+03  0.60059769060E+03  0.00000000000E+00 0. -1.
         23    2    1    2    0    0  0.12418778904E+04 -0.14504817258E+03  0.30494108081E+03  0.12901486700E+04  0.90525470898E+02 0.  0.
         11    1    3    3    0    0  0.66919165773E+03 -0.37177195524E+02  0.14299617356E+03  0.68530834250E+03  0.00000000000E+00 0. -1.
        -11    1    3    3    0    0  0.57268623269E+03 -0.10787097705E+03  0.16194490725E+03  0.60484032751E+03  0.00000000000E+00 0.  1.
         22    1    1    2    0    0 -0.12418778904E+04  0.14504817258E+03  0.35109598713E+04  0.37269476633E+04  0.00000000000E+00 0.  1.
<mgrwt>
<rscale>  0 0.32573234E+04</rscale>
<asrwt>0</asrwt>
<pdfrwt beam="1">  1        2 0.67946131E+00 0.32573234E+04</pdfrwt>
<pdfrwt beam="2">  1       -2 0.92399648E-01 0.32573234E+04</pdfrwt>
<totfact> 0.12304004E-01</totfact>
</mgrwt>
</event>
<event>
 6    1  0.5040916E-004  0.3446359E+04  0.7818608E-02  0.8126621E-01
          2   -1    0    0  501    0  0.00000000000E+00  0.00000000000E+00  0.17686983813E+04  0.17686983813E+04  0.00000000000E+00 0.  1.
         -2   -1    0    0    0  501 -0.00000000000E+00 -0.00000000000E+00 -0.16788320340E+04  0.16788320340E+04  0.00000000000E+00 0. -1.
         23    2    1    2    0    0 -0.92352782643E+03 -0.11900602856E+04 -0.78973616804E+03  0.17031543909E+04  0.88907448818E+02 0.  0.
         11    1    3    3    0    0 -0.63719829098E+03 -0.83811964115E+03 -0.50687705070E+03  0.11684992681E+04  0.00000000000E+00 0. -1.
        -11    1    3    3    0    0 -0.28632953544E+03 -0.35194064444E+03 -0.28285911734E+03  0.53465512281E+03  0.00000000000E+00 0.  1.
         22    1    1    2    0    0  0.92352782643E+03  0.11900602856E+04  0.87960251531E+03  0.17443760244E+04  0.00000000000E+00 0.  1.
<mgrwt>
<rscale>  0 0.34463589E+04</rscale>
<asrwt>0</asrwt>
<pdfrwt beam="1">  1        2 0.27210744E+00 0.34463589E+04</pdfrwt>
<pdfrwt beam="2">  1       -2 0.25828185E+00 0.34463589E+04</pdfrwt>
<totfact> 0.42370965E-01</totfact>
</mgrwt>
</event>
<event>
 6    1  0.5040916E-004  0.1356088E+04  0.7818608E-02  0.8986232E-01
         -2   -1    0    0    0  501 -0.00000000000E+00  0.00000000000E+00  0.14145760328E+03  0.14145760328E+03  0.00000000000E+00 0. -1.
          2   -1    0    0  501    0  0.00000000000E+00 -0.00000000000E+00 -0.32500468137E+04  0.32500468137E+04  0.00000000000E+00 0.  1.
         23    2    1    2    0    0 -0.10719820397E+03  0.46209053561E+03 -0.36270108271E+03  0.60494368231E+03  0.96879643601E+02 0.  0.
         13    1    3    3    0    0 -0.65910941860E+02  0.24565631377E+03 -0.25323018767E+03  0.35891058037E+03  0.00000000000E+00 0.  1.
        -13    1    3    3    0    0 -0.41287262111E+02  0.21643422183E+03 -0.10947089504E+03  0.24603310195E+03  0.00000000000E+00 0. -1.
         22    1    1    2    0    0  0.10719820397E+03 -0.46209053561E+03 -0.27458881277E+04  0.27865607347E+04  0.00000000000E+00 0.  1.
<mgrwt>
<rscale>  0 0.13560882E+04</rscale>
<asrwt>0</asrwt>
<pdfrwt beam="1">  1        2 0.50000717E+00 0.13560882E+04</pdfrwt>
<pdfrwt beam="2">  1       -2 0.21762709E-01 0.13560882E+04</pdfrwt>
<totfact> 0.21913515E+01</totfact>
</mgrwt>
</event>
<event>
 6    1  0.5040916E-004  0.1250851E+04  0.7818608E-02  0.9069475E-01
         -2   -1    0    0    0  501 -0.00000000000E+00  0.00000000000E+00  0.17071862002E+03  0.17071862002E+03  0.00000000000E+00 0. -1.
          2   -1    0    0  501    0  0.00000000000E+00 -0.00000000000E+00 -0.22912381840E+04  0.22912381840E+04  0.00000000000E+00 0.  1.
         23    2    1    2    0    0  0.53722684279E+03  0.29246085628E+03 -0.84304592526E+03  0.10455935276E+04  0.91615281959E+02 0.  0.
         13    1    3    3    0    0  0.50412865627E+03  0.29696708980E+03 -0.79746362754E+03  0.98908209555E+03  0.00000000000E+00 0.  1.
        -13    1    3    3    0    0  0.33098186520E+02 -0.45062335252E+01 -0.45582297722E+02  0.56511432093E+02  0.00000000000E+00 0. -1.
         22    1    1    2    0    0 -0.53722684279E+03 -0.29246085628E+03 -0.12774736387E+04  0.14163632764E+04  0.00000000000E+00 0.  1.
<mgrwt>
<rscale>  0 0.12508509E+04</rscale>
<asrwt>0</asrwt>
<pdfrwt beam="1">  1        2 0.35249818E+00 0.12508509E+04</pdfrwt>
<pdfrwt beam="2">  1       -2 0.26264403E-01 0.12508509E+04</pdfrwt>
<totfact> 0.59329916E+01</totfact>
</mgrwt>
</event>
<event>
 6    1  0.5040916E-004  0.4113494E+04  0.7818608E-02  0.7982035E-01
         -2   -1    0    0    0  501 -0.00000000000E+00  0.00000000000E+00  0.13115494936E+04  0.13115494936E+04  0.00000000000E+00 0. -1.
          2   -1    0    0  501    0  0.00000000000E+00 -0.00000000000E+00 -0.32253515951E+04  0.32253515951E+04  0.00000000000E+00 0.  1.
         23    2    1    2    0    0  0.35269633722E+03 -0.12230204374E+04  0.82304347822E+03  0.15185410333E+04  0.91611168640E+02 0.  0.
         13    1    3    3    0    0  0.15733533018E+03 -0.49952553923E+03  0.39036846034E+03  0.65319805977E+03  0.00000000000E+00 0.  1.
        -13    1    3    3    0    0  0.19536100704E+03 -0.72349489816E+03  0.43267501788E+03  0.86534297353E+03  0.00000000000E+00 0. -1.
         22    1    1    2    0    0 -0.35269633722E+03  0.12230204374E+04 -0.27368455797E+04  0.30183600554E+04  0.00000000000E+00 0.  1.
<mgrwt>
<rscale>  0 0.41134940E+04</rscale>
<asrwt>0</asrwt>
<pdfrwt beam="1">  1        2 0.49620793E+00 0.41134940E+04</pdfrwt>
<pdfrwt beam="2">  1       -2 0.20177685E+00 0.41134940E+04</pdfrwt>
<totfact> 0.12619212E-01</totfact>
</mgrwt>
</event>
<event>
 6    1  0.5040916E-004  0.3608509E+04  0.7818608E-02  0.8088545E-01
          2   -1    0    0  501    0  0.00000000000E+00  0.00000000000E+00  0.37190733159E+04  0.37190733159E+04  0.00000000000E+00 0.  1.
         -2   -1    0    0    0  501 -0.00000000000E+00 -0.00000000000E+00 -0.87530794345E+03  0.87530794345E+03  0.00000000000E+00 0. -1.
         23    2    1    2    0    0 -0.10507332807E+04  0.93533686616E+03 -0.13260795484E+02  0.14098100159E+04  0.92157212404E+02 0.  0.
         11    1    3    3    0    0 -0.15350383459E+03  0.10755693324E+03 -0.24317314434E+02  0.18900595997E+03  0.00000000000E+00 0. -1.
        -11    1    3    3    0    0 -0.89722944613E+03  0.82777993292E+03  0.11056518950E+02  0.12208040559E+04  0.00000000000E+00 0.  1.
         22    1    1    2    0    0  0.10507332807E+04 -0.93533686616E+03  0.28570261679E+04  0.31845712434E+04  0.00000000000E+00 0.  1.
<mgrwt>
<rscale>  0 0.36085091E+04</rscale>
<asrwt>0</asrwt>
<pdfrwt beam="1">  1        2 0.57216512E+00 0.36085091E+04</pdfrwt>
<pdfrwt beam="2">  1       -2 0.13466276E+00 0.36085091E+04</pdfrwt>
<totfact> 0.18231032E-01</totfact>
</mgrwt>
</event>
<event>
 6    1  0.5040916E-004  0.2254541E+04  0.7818608E-02  0.8496064E-01
          2   -1    0    0  501    0  0.00000000000E+00  0.00000000000E+00  0.12599731601E+04  0.12599731601E+04  0.00000000000E+00 0. -1.
         -2   -1    0    0    0  501 -0.00000000000E+00 -0.00000000000E+00 -0.10085444379E+04  0.10085444379E+04  0.00000000000E+00 0.  1.
         23    2    1    2    0    0  0.74498313152E+03 -0.75287787637E+03 -0.25915862029E+03  0.10927096216E+04  0.70895441649E+02 0.  0.
         11    1    3    3    0    0  0.51791451616E+03 -0.50172458954E+03 -0.14598855474E+03  0.73571439289E+03  0.00000000000E+00 0.  1.
        -11    1    3    3    0    0  0.22706861536E+03 -0.25115328683E+03 -0.11317006555E+03  0.35699522868E+03  0.00000000000E+00 0. -1.
         22    1    1    2    0    0 -0.74498313152E+03  0.75287787637E+03  0.51058734257E+03  0.11758079764E+04  0.00000000000E+00 0. -1.
<mgrwt>
<rscale>  0 0.22545411E+04</rscale>
<asrwt>0</asrwt>
<pdfrwt beam="1">  1        2 0.19384202E+00 0.22545411E+04</pdfrwt>
<pdfrwt beam="2">  1       -2 0.15516068E+00 0.22545411E+04</pdfrwt>
<totfact> 0.43474544E+00</totfact>
</mgrwt>
</event>
<event>
 6    1  0.5040916E-004  0.2172331E+04  0.7818608E-02  0.8530033E-01
         -2   -1    0    0    0  501 -0.00000000000E+00  0.00000000000E+00  0.41096269938E+03  0.41096269938E+03  0.00000000000E+00 0. -1.
          2   -1    0    0  501    0  0.00000000000E+00 -0.00000000000E+00 -0.28707128022E+04  0.28707128022E+04  0.00000000000E+00 0.  1.
         23    2    1    2    0    0  0.58738215588E+03 -0.51249675197E+03 -0.93238685405E+02  0.79008022814E+03  0.88671284064E+02 0.  0.
         11    1    3    3    0    0  0.24948544573E+03 -0.16566693636E+03 -0.17652126526E+02  0.30000019834E+03  0.00000000000E+00 0. -1.
        -11    1    3    3    0    0  0.33789671015E+03 -0.34682981561E+03 -0.75586558880E+02  0.49008002980E+03  0.00000000000E+00 0.  1.
         22    1    1    2    0    0 -0.58738215588E+03  0.51249675197E+03 -0.23665114174E+04  0.24915952734E+04  0.00000000000E+00 0.  1.
<mgrwt>
<rscale>  0 0.21723314E+04</rscale>
<asrwt>0</asrwt>
<pdfrwt beam="1">  1        2 0.44164811E+00 0.21723314E+04</pdfrwt>
<pdfrwt beam="2">  1       -2 0.63225033E-01 0.21723314E+04</pdfrwt>
<totfact> 0.44488418E+00</totfact>
</mgrwt>
</event>
<event>
 6    1  0.5040916E-004  0.2224110E+04  0.7818608E-02  0.8508460E-01
         -2   -1    0    0    0  501 -0.00000000000E+00  0.00000000000E+00  0.94246444553E+03  0.94246444553E+03  0.00000000000E+00 0. -1.
          2   -1    0    0  501    0  0.00000000000E+00 -0.00000000000E+00 -0.13121622543E+04  0.13121622543E+04  0.00000000000E+00 0.  1.
         23    2    1    2    0    0 -0.64217519357E+03  0.44487358615E+03 -0.98481480095E+03  0.12603076359E+04  0.90629234074E+02 0.  0.
         11    1    3    3    0    0 -0.49927363425E+03  0.34597840440E+03 -0.82268993810E+03  0.10226406761E+04  0.00000000000E+00 0. -1.
        -11    1    3    3    0    0 -0.14290155932E+03  0.98895181747E+02 -0.16212486285E+03  0.23766695980E+03  0.00000000000E+00 0.  1.
         22    1    1    2    0    0  0.64217519357E+03 -0.44487358615E+03  0.61511699216E+03  0.99431906395E+03  0.00000000000E+00 0. -1.
<mgrwt>
<rscale>  0 0.22241100E+04</rscale>
<asrwt>0</asrwt>
<pdfrwt beam="1">  1        2 0.20187112E+00 0.22241100E+04</pdfrwt>
<pdfrwt beam="2">  1       -2 0.14499453E+00 0.22241100E+04</pdfrwt>
<totfact> 0.48627077E+00</totfact>
</mgrwt>
</event>
<event>
 6    1  0.5040916E-004  0.2208805E+04  0.7818608E-02  0.8514772E-01
          2   -1    0    0  501    0  0.00000000000E+00  0.00000000000E+00  0.13276859699E+04  0.13276859699E+04  0.00000000000E+00 0.  1.
         -2   -1    0    0    0  501 -0.00000000000E+00 -0.00000000000E+00 -0.91866966077E+03  0.91866966077E+03  0.00000000000E+00 0. -1.
         23    2    1    2    0    0  0.82406333582E+03  0.40422529185E+02  0.94877581328E+03  0.12604272942E+04  0.88244307622E+02 0.  0.
         13    1    3    3    0    0  0.52051201528E+03  0.64102173622E+02  0.57265289454E+03  0.77651347982E+03  0.00000000000E+00 0. -1.
        -13    1    3    3    0    0  0.30355132054E+03 -0.23679644437E+02  0.37612291874E+03  0.48391381440E+03  0.00000000000E+00 0.  1.
         22    1    1    2    0    0 -0.82406333582E+03 -0.40422529185E+02 -0.53975950415E+03  0.98592833645E+03  0.00000000000E+00 0. -1.
<mgrwt>
<rscale>  0 0.22088049E+04</rscale>
<asrwt>0</asrwt>
<pdfrwt beam="1">  1        2 0.20425938E+00 0.22088049E+04</pdfrwt>
<pdfrwt beam="2">  1       -2 0.14133379E+00 0.22088049E+04</pdfrwt>
<totfact> 0.50988814E+00</totfact>
</mgrwt>
</event>
<event>
 6    1  0.5040916E-004  0.1805710E+04  0.7818608E-02  0.8703269E-01
         -1   -1    0    0    0  501 -0.00000000000E+00  0.00000000000E+00  0.41639626099E+03  0.41639626099E+03  0.00000000000E+00 0. -1.
          1   -1    0    0  501    0  0.00000000000E+00 -0.00000000000E+00 -0.19576237059E+04  0.19576237059E+04  0.00000000000E+00 0.  1.
         23    2    1    2    0    0  0.41887977151E+03 -0.29475581310E+02  0.27440346788E+03  0.51046296901E+03  0.94583860532E+02 0.  0.
         11    1    3    3    0    0  0.20691981188E+03 -0.61429027652E+02  0.12923580291E+03  0.25157747661E+03  0.00000000000E+00 0. -1.
        -11    1    3    3    0    0  0.21195995963E+03  0.31953446343E+02  0.14516766498E+03  0.25888549240E+03  0.00000000000E+00 0.  1.
         22    1    1    2    0    0 -0.41887977151E+03  0.29475581310E+02 -0.18156309128E+04  0.18635569979E+04  0.00000000000E+00 0.  1.
<mgrwt>
<rscale>  0 0.18057100E+04</rscale>
<asrwt>0</asrwt>
<pdfrwt beam="1">  1        1 0.30117288E+00 0.18057100E+04</pdfrwt>
<pdfrwt beam="2">  1       -1 0.64060963E-01 0.18057100E+04</pdfrwt>
<totfact> 0.74214049E+00</totfact>
</mgrwt>
</event>
<event>
 6    1  0.5040916E-004  0.2989398E+04  0.7818608E-02  0.8246765E-01
          2   -1    0    0  501    0  0.00000000000E+00  0.00000000000E+00  0.18806623368E+04  0.18806623368E+04  0.00000000000E+00 0.  1.
         -2   -1    0    0    0  501 -0.00000000000E+00 -0.00000000000E+00 -0.11879458076E+04  0.11879458076E+04  0.00000000000E+00 0. -1.
         23    2    1    2    0    0 -0.12064795574E+04  0.71179759967E+03  0.87788763183E+03  0.16556194386E+04  0.90223532782E+02 0.  0.
         11    1    3    3    0    0 -0.37294996938E+03  0.26861111055E+03  0.29504215032E+03  0.54616250222E+03  0.00000000000E+00 0.  1.
        -11    1    3    3    0    0 -0.83352958805E+03  0.44318648912E+03  0.58284548151E+03  0.11094569363E+04  0.00000000000E+00 0. -1.
         22    1    1    2    0    0  0.12064795574E+04 -0.71179759967E+03 -0.18517110263E+03  0.14129887058E+04  0.00000000000E+00 0. -1.
<mgrwt>
<rscale>  0 0.29893979E+04</rscale>
<asrwt>0</asrwt>
<pdfrwt beam="1">  1        2 0.28933267E+00 0.29893979E+04</pdfrwt>
<pdfrwt beam="2">  1       -2 0.18276089E+00 0.29893979E+04</pdfrwt>
<totfact> 0.11575425E+00</totfact>
</mgrwt>
</event>
<event>
 6    1  0.5040916E-004  0.1871006E+04  0.7818608E-02  0.8669425E-01
          2   -1    0    0  501    0  0.00000000000E+00  0.00000000000E+00  0.96848639016E+03  0.96848639016E+03  0.00000000000E+00 0.  1.
         -2   -1    0    0    0  501 -0.00000000000E+00 -0.00000000000E+00 -0.90364256884E+03  0.90364256884E+03  0.00000000000E+00 0. -1.
         23    2    1    2    0    0  0.39725189671E+03 -0.34484161988E+03 -0.73887633467E+03  0.91156094922E+03  0.90996230499E+02 0.  0.
         13    1    3    3    0    0  0.23420618761E+03 -0.17149315606E+03 -0.33972208358E+03  0.44684844742E+03  0.00000000000E+00 0. -1.
        -13    1    3    3    0    0  0.16304570910E+03 -0.17334846383E+03 -0.39915425110E+03  0.46471250181E+03  0.00000000000E+00 0.  1.
         22    1    1    2    0    0 -0.39725189671E+03  0.34484161988E+03  0.80372015599E+03  0.96056800977E+03  0.00000000000E+00 0.  1.
<mgrwt>
<rscale>  0 0.18710056E+04</rscale>
<asrwt>0</asrwt>
<pdfrwt beam="1">  1        2 0.14899791E+00 0.18710056E+04</pdfrwt>
<pdfrwt beam="2">  1       -2 0.13902193E+00 0.18710056E+04</pdfrwt>
<totfact> 0.90644793E+00</totfact>
</mgrwt>
</event>
<event>
 6    1  0.5040916E-004  0.2636090E+04  0.7818608E-02  0.8356045E-01
          2   -1    0    0  501    0  0.00000000000E+00  0.00000000000E+00  0.13186311664E+04  0.13186311664E+04  0.00000000000E+00 0.  1.
         -2   -1    0    0    0  501 -0.00000000000E+00 -0.00000000000E+00 -0.13174588285E+04  0.13174588285E+04  0.00000000000E+00 0. -1.
         23    2    1    2    0    0 -0.48050032929E+03 -0.41676327619E+03  0.11534419012E+04  0.13199223226E+04  0.84820536121E+02 0.  0.
         11    1    3    3    0    0 -0.63338369849E+02 -0.86639664702E+02  0.15385759466E+03  0.18759088472E+03  0.00000000000E+00 0.  1.
        -11    1    3    3    0    0 -0.41716195944E+03 -0.33012361148E+03  0.99958430658E+03  0.11323314379E+04  0.00000000000E+00 0. -1.
         22    1    1    2    0    0  0.48050032929E+03  0.41676327619E+03 -0.11522695633E+04  0.13161676722E+04  0.00000000000E+00 0. -1.
<mgrwt>
<rscale>  0 0.26360897E+04</rscale>
<asrwt>0</asrwt>
<pdfrwt beam="1">  1        2 0.20286633E+00 0.26360897E+04</pdfrwt>
<pdfrwt beam="2">  1       -2 0.20268597E+00 0.26360897E+04</pdfrwt>
<totfact> 0.18161776E+00</totfact>
</mgrwt>
</event>
<event>
 6    1  0.5040916E-004  0.3416233E+04  0.7818608E-02  0.8133934E-01
         -2   -1    0    0    0  501 -0.00000000000E+00  0.00000000000E+00  0.88896782393E+03  0.88896782393E+03  0.00000000000E+00 0. -1.
          2   -1    0    0  501    0  0.00000000000E+00 -0.00000000000E+00 -0.32820791744E+04  0.32820791744E+04  0.00000000000E+00 0.  1.
         23    2    1    2    0    0 -0.63091302783E+03 -0.66005292855E+03 -0.29582169948E+04  0.30972381204E+04  0.90083676175E+02 0.  0.
         13    1    3    3    0    0 -0.45437734623E+03 -0.42023851624E+03 -0.19352575687E+04  0.20318171769E+04  0.00000000000E+00 0. -1.
        -13    1    3    3    0    0 -0.17653568160E+03 -0.23981441230E+03 -0.10229594261E+04  0.10654209435E+04  0.00000000000E+00 0.  1.
         22    1    1    2    0    0  0.63091302783E+03  0.66005292855E+03  0.56510564433E+03  0.10738088780E+04  0.00000000000E+00 0. -1.
<mgrwt>
<rscale>  0 0.34162335E+04</rscale>
<asrwt>0</asrwt>
<pdfrwt beam="1">  1        2 0.50493525E+00 0.34162335E+04</pdfrwt>
<pdfrwt beam="2">  1       -2 0.13676428E+00 0.34162335E+04</pdfrwt>
<totfact> 0.36104780E-01</totfact>
</mgrwt>
</event>
<event>
 6    1  0.5040916E-004  0.8573625E+03  0.7818608E-02  0.9480508E-01
          1   -1    0    0  501    0  0.00000000000E+00  0.00000000000E+00  0.46420258033E+03  0.46420258033E+03  0.00000000000E+00 0.  1.
         -1   -1    0    0    0  501 -0.00000000000E+00 -0.00000000000E+00 -0.39587800817E+03  0.39587800817E+03  0.00000000000E+00 0. -1.
         23    2    1    2    0    0 -0.55538436279E+02  0.21994968702E+03  0.39372226161E+03  0.46341191186E+03  0.90945027555E+02 0.  0.
         11    1    3    3    0    0 -0.37728893939E+02  0.22855976427E+02  0.99357568573E+02  0.10870966622E+03  0.00000000000E+00 0.  1.
        -11    1    3    3    0    0 -0.17809542340E+02  0.19709371059E+03  0.29436469304E+03  0.35470224564E+03  0.00000000000E+00 0. -1.
         22    1    1    2    0    0  0.55538436279E+02 -0.21994968702E+03 -0.32539768946E+03  0.39666867664E+03  0.00000000000E+00 0. -1.
<mgrwt>
<rscale>  0 0.85736245E+03</rscale>
<asrwt>0</asrwt>
<pdfrwt beam="1">  1        1 0.71415782E-01 0.85736245E+03</pdfrwt>
<pdfrwt beam="2">  1       -1 0.60904309E-01 0.85736245E+03</pdfrwt>
<totfact> 0.13554452E+02</totfact>
</mgrwt>
</event>
<event>
 6    1  0.5040916E-004  0.2325217E+04  0.7818608E-02  0.8468044E-01
         -2   -1    0    0    0  501 -0.00000000000E+00  0.00000000000E+00  0.58038924901E+03  0.58038924901E+03  0.00000000000E+00 0. -1.
          2   -1    0    0  501    0  0.00000000000E+00 -0.00000000000E+00 -0.23288822242E+04  0.23288822242E+04  0.00000000000E+00 0.  1.
         23    2    1    2    0    0 -0.71847001368E+03  0.25547718744E+02 -0.20159045539E+04  0.21422246697E+04  0.91670707543E+02 0.  0.
         13    1    3    3    0    0 -0.36693463000E+03  0.25989095127E+02 -0.11604198576E+04  0.12173293317E+04  0.00000000000E+00 0.  1.
        -13    1    3    3    0    0 -0.35153538368E+03 -0.44137638313E+00 -0.85548469623E+03  0.92489533801E+03  0.00000000000E+00 0. -1.
         22    1    1    2    0    0  0.71847001368E+03 -0.25547718744E+02  0.26741157863E+03  0.76704680358E+03  0.00000000000E+00 0. -1.
<mgrwt>
<rscale>  0 0.23252167E+04</rscale>
<asrwt>0</asrwt>
<pdfrwt beam="1">  1        2 0.35828958E+00 0.23252167E+04</pdfrwt>
<pdfrwt beam="2">  1       -2 0.89290652E-01 0.23252167E+04</pdfrwt>
<totfact> 0.42503296E+00</totfact>
</mgrwt>
</event>
<event>
 6    1  0.5040916E-004  0.4841111E+03  0.7818608E-02  0.1018011E+00
          2   -1    0    0  501    0  0.00000000000E+00  0.00000000000E+00  0.21355650706E+04  0.21355650706E+04  0.00000000000E+00 0.  1.
         -2   -1    0    0    0  501 -0.00000000000E+00 -0.00000000000E+00 -0.27435775326E+02  0.27435775326E+02  0.00000000000E+00 0. -1.
         23    2    1    2    0    0 -0.15287832256E+03 -0.90950542245E+02  0.17717850767E+04  0.17825127173E+04  0.80532271299E+02 0.  0.
         13    1    3    3    0    0 -0.16031728476E+02  0.14311413513E+02  0.26468618436E+03  0.26555716723E+03  0.00000000000E+00 0.  1.
        -13    1    3    3    0    0 -0.13684659408E+03 -0.10526195576E+03  0.15070988924E+04  0.15169555501E+04  0.00000000000E+00 0. -1.
         22    1    1    2    0    0  0.15287832256E+03  0.90950542245E+02  0.33634421850E+03  0.38048812854E+03  0.00000000000E+00 0. -1.
<mgrwt>
<rscale>  0 0.48411108E+03</rscale>
<asrwt>0</asrwt>
<pdfrwt beam="1">  1        2 0.32854834E+00 0.48411108E+03</pdfrwt>
<pdfrwt beam="2">  1       -2 0.42208902E-02 0.48411108E+03</pdfrwt>
<totfact> 0.15705107E+03</totfact>
</mgrwt>
</event>
<event>
 6    1  0.5040916E-004  0.2802789E+04  0.7818608E-02  0.8302403E-01
          2   -1    0    0  501    0  0.00000000000E+00  0.00000000000E+00  0.20773464493E+04  0.20773464493E+04  0.00000000000E+00 0.  1.
         -2   -1    0    0    0  501 -0.00000000000E+00 -0.00000000000E+00 -0.94539203753E+03  0.94539203753E+03  0.00000000000E+00 0. -1.
         23    2    1    2    0    0  0.50735642938E+03  0.36452106511E+02 -0.84028841868E+03  0.98595644529E+03  0.85359140965E+02 0.  0.
         13    1    3    3    0    0  0.16827129171E+03 -0.26018468337E+02 -0.30257948990E+03  0.34719812214E+03  0.00000000000E+00 0. -1.
        -13    1    3    3    0    0  0.33908513766E+03  0.62470574849E+02 -0.53770892877E+03  0.63875832315E+03  0.00000000000E+00 0.  1.
         22    1    1    2    0    0 -0.50735642938E+03 -0.36452106511E+02  0.19722428305E+04  0.20367820415E+04  0.00000000000E+00 0.  1.
<mgrwt>
<rscale>  0 0.28027892E+04</rscale>
<asrwt>0</asrwt>
<pdfrwt beam="1">  1        2 0.31959176E+00 0.28027892E+04</pdfrwt>
<pdfrwt beam="2">  1       -2 0.14544493E+00 0.28027892E+04</pdfrwt>
<totfact> 0.17107681E+00</totfact>
</mgrwt>
</event>
<event>
 6    1  0.5040916E-004  0.2706712E+04  0.7818608E-02  0.8332830E-01
         -2   -1    0    0    0  501 -0.00000000000E+00  0.00000000000E+00  0.20885527105E+04  0.20885527105E+04  0.00000000000E+00 0. -1.
          2   -1    0    0  501    0  0.00000000000E+00 -0.00000000000E+00 -0.87695801435E+03  0.87695801435E+03  0.00000000000E+00 0.  1.
         23    2    1    2    0    0 -0.10455437429E+04 -0.23980872382E+02  0.15449106755E+04  0.18678603512E+04  0.91741462437E+02 0.  0.
         13    1    3    3    0    0 -0.20275885257E+03 -0.27127737718E+01  0.23855996873E+03  0.31309642304E+03  0.00000000000E+00 0. -1.
        -13    1    3    3    0    0 -0.84278489029E+03 -0.21268098610E+02  0.13063507068E+04  0.15547639282E+04  0.00000000000E+00 0.  1.
         22    1    1    2    0    0  0.10455437429E+04  0.23980872382E+02 -0.33331597940E+03  0.10976503736E+04  0.00000000000E+00 0.  1.
<mgrwt>
<rscale>  0 0.27067124E+04</rscale>
<asrwt>0</asrwt>
<pdfrwt beam="1">  1        2 0.13491662E+00 0.27067124E+04</pdfrwt>
<pdfrwt beam="2">  1       -2 0.32131580E+00 0.27067124E+04</pdfrwt>
<totfact> 0.62648936E-01</totfact>
</mgrwt>
</event>
<event>
 6    1  0.5040916E-004  0.1082418E+04  0.7818608E-02  0.9222499E-01
          2   -1    0    0  501    0  0.00000000000E+00  0.00000000000E+00  0.20621565618E+04  0.20621565618E+04  0.00000000000E+00 0.  1.
         -2   -1    0    0    0  501 -0.00000000000E+00 -0.00000000000E+00 -0.14203936490E+03  0.14203936490E+03  0.00000000000E+00 0. -1.
         23    2    1    2    0    0 -0.70440077783E+02  0.43781437760E+03  0.34884408498E+03  0.57154702813E+03  0.91271988806E+02 0.  0.
         11    1    3    3    0    0 -0.14182983537E+02  0.14606058395E+03  0.64542257052E+02  0.16031392376E+03  0.00000000000E+00 0. -1.
        -11    1    3    3    0    0 -0.56257094246E+02  0.29175379365E+03  0.28430182793E+03  0.41123310436E+03  0.00000000000E+00 0.  1.
         22    1    1    2    0    0  0.70440077783E+02 -0.43781437760E+03  0.15712731119E+04  0.16326488986E+04  0.00000000000E+00 0.  1.
<mgrwt>
<rscale>  0 0.10824184E+04</rscale>
<asrwt>0</asrwt>
<pdfrwt beam="1">  1        2 0.31725483E+00 0.10824184E+04</pdfrwt>
<pdfrwt beam="2">  1       -2 0.21852211E-01 0.10824184E+04</pdfrwt>
<totfact> 0.11238163E+02</totfact>
</mgrwt>
</event>
<event>
 6    1  0.5040916E-004  0.2012410E+04  0.7818608E-02  0.8600841E-01
         -2   -1    0    0    0  501 -0.00000000000E+00  0.00000000000E+00  0.97192360959E+03  0.97192360959E+03  0.00000000000E+00 0. -1.
          2   -1    0    0  501    0  0.00000000000E+00 -0.00000000000E+00 -0.10416952645E+04  0.10416952645E+04  0.00000000000E+00 0.  1.
         23    2    1    2    0    0 -0.56520693934E+03 -0.74427946738E+02 -0.86150332465E+03  0.10379973079E+04  0.10125230524E+03 0.  0.
         11    1    3    3    0    0 -0.74239975648E+02 -0.22659294171E+02 -0.18399565166E+03  0.19969831603E+03  0.00000000000E+00 0.  1.
        -11    1    3    3    0    0 -0.49096696369E+03 -0.51768652567E+02 -0.67750767299E+03  0.83829899187E+03  0.00000000000E+00 0. -1.
         22    1    1    2    0    0  0.56520693934E+03  0.74427946738E+02  0.79173166973E+03  0.97562156618E+03  0.00000000000E+00 0. -1.
<mgrwt>
<rscale>  0 0.20124097E+04</rscale>
<asrwt>0</asrwt>
<pdfrwt beam="1">  1        2 0.16026081E+00 0.20124097E+04</pdfrwt>
<pdfrwt beam="2">  1       -2 0.14952671E+00 0.20124097E+04</pdfrwt>
<totfact> 0.66435981E+00</totfact>
</mgrwt>
</event>
<event>
 6    1  0.5040916E-004  0.3555016E+04  0.7818608E-02  0.8100874E-01
         -2   -1    0    0    0  501 -0.00000000000E+00  0.00000000000E+00  0.12300147359E+04  0.12300147359E+04  0.00000000000E+00 0. -1.
          2   -1    0    0  501    0  0.00000000000E+00 -0.00000000000E+00 -0.25686960790E+04  0.25686960790E+04  0.00000000000E+00 0.  1.
         23    2    1    2    0    0 -0.74794485807E+03 -0.16111766440E+04 -0.66778645326E+03  0.18999186614E+04  0.91872105897E+02 0.  0.
         11    1    3    3    0    0 -0.52957437282E+03 -0.10866763008E+04 -0.41528326853E+03  0.12781919231E+04  0.00000000000E+00 0. -1.
        -11    1    3    3    0    0 -0.21837048525E+03 -0.52450034323E+03 -0.25250318473E+03  0.62172673834E+03  0.00000000000E+00 0.  1.
         22    1    1    2    0    0  0.74794485807E+03  0.16111766440E+04 -0.67089488992E+03  0.18987921535E+04  0.00000000000E+00 0. -1.
<mgrwt>
<rscale>  0 0.35550156E+04</rscale>
<asrwt>0</asrwt>
<pdfrwt beam="1">  1        2 0.39518400E+00 0.35550156E+04</pdfrwt>
<pdfrwt beam="2">  1       -2 0.18923304E+00 0.35550156E+04</pdfrwt>
<totfact> 0.40727316E-01</totfact>
</mgrwt>
</event>
<event>
 6    1  0.5040916E-004  0.3346762E+04  0.7818608E-02  0.8151098E-01
         -2   -1    0    0    0  501 -0.00000000000E+00  0.00000000000E+00  0.16736057234E+04  0.16736057234E+04  0.00000000000E+00 0. -1.
          2   -1    0    0  501    0  0.00000000000E+00 -0.00000000000E+00 -0.16731561846E+04  0.16731561846E+04  0.00000000000E+00 0.  1.
         23    2    1    2    0    0  0.10894355035E+04 -0.63172783640E+03  0.11001967888E+04  0.16748187901E+04  0.92925937942E+02 0.  0.
         13    1    3    3    0    0  0.71301862475E+03 -0.45773019202E+03  0.76617826038E+03  0.11423404110E+04  0.00000000000E+00 0.  1.
        -13    1    3    3    0    0  0.37641687875E+03 -0.17399764439E+03  0.33401852845E+03  0.53247837910E+03  0.00000000000E+00 0. -1.
         22    1    1    2    0    0 -0.10894355035E+04  0.63172783640E+03 -0.10997472500E+04  0.16719431179E+04  0.00000000000E+00 0.  1.
<mgrwt>
<rscale>  0 0.33467619E+04</rscale>
<asrwt>0</asrwt>
<pdfrwt beam="1">  1        2 0.25740864E+00 0.33467619E+04</pdfrwt>
<pdfrwt beam="2">  1       -2 0.25747780E+00 0.33467619E+04</pdfrwt>
<totfact> 0.48827676E-01</totfact>
</mgrwt>
</event>
<event>
 6    1  0.5040916E-004  0.2649768E+04  0.7818608E-02  0.8351490E-01
         -2   -1    0    0    0  501 -0.00000000000E+00  0.00000000000E+00  0.66229912639E+03  0.66229912639E+03  0.00000000000E+00 0. -1.
          2   -1    0    0  501    0  0.00000000000E+00 -0.00000000000E+00 -0.26503405735E+04  0.26503405735E+04  0.00000000000E+00 0.  1.
         23    2    1    2    0    0 -0.25197385596E+03  0.39699860805E+03  0.55120563957E+03  0.73022329542E+03  0.91102608097E+02 0.  0.
         11    1    3    3    0    0 -0.10148424499E+03  0.18874642730E+03  0.31649502350E+03  0.38222161857E+03  0.00000000000E+00 0.  1.
        -11    1    3    3    0    0 -0.15048961098E+03  0.20825218075E+03  0.23471061606E+03  0.34800167685E+03  0.00000000000E+00 0. -1.
         22    1    1    2    0    0  0.25197385596E+03 -0.39699860805E+03 -0.25392470867E+04  0.25824164045E+04  0.00000000000E+00 0.  1.
<mgrwt>
<rscale>  0 0.26497685E+04</rscale>
<asrwt>0</asrwt>
<pdfrwt beam="1">  1        2 0.40774470E+00 0.26497685E+04</pdfrwt>
<pdfrwt beam="2">  1       -2 0.10189217E+00 0.26497685E+04</pdfrwt>
<totfact> 0.19772689E+00</totfact>
</mgrwt>
</event>
<event>
 6    1  0.5040916E-004  0.2944685E+04  0.7818608E-02  0.8259705E-01
          2   -1    0    0  501    0  0.00000000000E+00  0.00000000000E+00  0.18461412694E+04  0.18461412694E+04  0.00000000000E+00 0.  1.
         -2   -1    0    0    0  501 -0.00000000000E+00 -0.00000000000E+00 -0.11742291852E+04  0.11742291852E+04  0.00000000000E+00 0. -1.
         23    2    1    2    0    0  0.97180757543E+03 -0.61894229672E+01 -0.79622133408E+03  0.12597273885E+04  0.92175961057E+02 0.  0.
         11    1    3    3    0    0  0.86736804328E+03  0.23246093676E+02 -0.70828199115E+03  0.11200585174E+04  0.00000000000E+00 0. -1.
        -11    1    3    3    0    0  0.10443953216E+03 -0.29435516643E+02 -0.87939342925E+02  0.13966887109E+03  0.00000000000E+00 0.  1.
         22    1    1    2    0    0 -0.97180757543E+03  0.61894229672E+01  0.14681334182E+04  0.17606430662E+04  0.00000000000E+00 0.  1.
<mgrwt>
<rscale>  0 0.29446854E+04</rscale>
<asrwt>0</asrwt>
<pdfrwt beam="1">  1        2 0.28402173E+00 0.29446854E+04</pdfrwt>
<pdfrwt beam="2">  1       -2 0.18065064E+00 0.29446854E+04</pdfrwt>
<totfact> 0.12554848E+00</totfact>
</mgrwt>
</event>
<event>
 6    1  0.6388594E-004  0.2726754E+04  0.7818608E-02  0.8326376E-01
         -2   -1    0    0    0  501 -0.00000000000E+00  0.00000000000E+00  0.88237667957E+03  0.88237667957E+03  0.00000000000E+00 0. -1.
          2   -1    0    0  501    0  0.00000000000E+00 -0.00000000000E+00 -0.21065791282E+04  0.21065791282E+04  0.00000000000E+00 0.  1.
         23    2    1    2    0    0 -0.12915096650E+04 -0.20499768223E+03 -0.10294875955E+04  0.16668608269E+04  0.92515092813E+02 0.  0.
         13    1    3    3    0    0 -0.99089398595E+03 -0.18736637374E+03 -0.76021552848E+03  0.12628953635E+04  0.00000000000E+00 0. -1.
        -13    1    3    3    0    0 -0.30061567904E+03 -0.17631308488E+02 -0.26927206703E+03  0.40396546338E+03  0.00000000000E+00 0.  1.
         22    1    1    2    0    0  0.12915096650E+04  0.20499768223E+03 -0.19471485313E+03  0.13220949809E+04  0.00000000000E+00 0. -1.
<mgrwt>
<rscale>  0 0.27267536E+04</rscale>
<asrwt>0</asrwt>
<pdfrwt beam="1">  1        2 0.32408910E+00 0.27267536E+04</pdfrwt>
<pdfrwt beam="2">  1       -2 0.13575026E+00 0.27267536E+04</pdfrwt>
<totfact> 0.19837642E+00</totfact>
</mgrwt>
</event>
<event>
 6    1  0.5040916E-004  0.2160629E+04  0.7818608E-02  0.8534996E-01
         -2   -1    0    0    0  501 -0.00000000000E+00  0.00000000000E+00  0.47367952351E+03  0.47367952351E+03  0.00000000000E+00 0. -1.
          2   -1    0    0  501    0  0.00000000000E+00 -0.00000000000E+00 -0.24638591632E+04  0.24638591632E+04  0.00000000000E+00 0.  1.
         23    2    1    2    0    0 -0.44817098800E+03  0.65128370228E+03  0.74860907871E+00  0.79538486705E+03  0.87228613271E+02 0.  0.
         13    1    3    3    0    0 -0.60591228305E+02  0.46749460252E+02  0.10252908867E+02  0.77213542346E+02  0.00000000000E+00 0. -1.
        -13    1    3    3    0    0 -0.38757975969E+03  0.60453424203E+03 -0.95042997887E+01  0.71817132470E+03  0.00000000000E+00 0.  1.
         22    1    1    2    0    0  0.44817098800E+03 -0.65128370228E+03 -0.19909282487E+04  0.21421538196E+04  0.00000000000E+00 0.  1.
<mgrwt>
<rscale>  0 0.21606292E+04</rscale>
<asrwt>0</asrwt>
<pdfrwt beam="1">  1        2 0.37905526E+00 0.21606292E+04</pdfrwt>
<pdfrwt beam="2">  1       -2 0.72873772E-01 0.21606292E+04</pdfrwt>
<totfact> 0.57009670E+00</totfact>
</mgrwt>
</event>
<event>
 6    1  0.5040916E-004  0.2998388E+04  0.7818608E-02  0.8244191E-01
          2   -1    0    0  501    0  0.00000000000E+00  0.00000000000E+00  0.12794510518E+04  0.12794510518E+04  0.00000000000E+00 0.  1.
         -2   -1    0    0    0  501 -0.00000000000E+00 -0.00000000000E+00 -0.17566769208E+04  0.17566769208E+04  0.00000000000E+00 0. -1.
         23    2    1    2    0    0  0.15409507394E+03 -0.12571106210E+04  0.57082411416E+03  0.13922054768E+04  0.91233301129E+02 0.  0.
         11    1    3    3    0    0  0.86717763794E+02 -0.54419131846E+03  0.29294529986E+03  0.62408421736E+03  0.00000000000E+00 0. -1.
        -11    1    3    3    0    0  0.67377310151E+02 -0.71291930249E+03  0.27787881429E+03  0.76812125945E+03  0.00000000000E+00 0.  1.
         22    1    1    2    0    0 -0.15409507394E+03  0.12571106210E+04 -0.10480499832E+04  0.16439224958E+04  0.00000000000E+00 0. -1.
<mgrwt>
<rscale>  0 0.29983877E+04</rscale>
<asrwt>0</asrwt>
<pdfrwt beam="1">  1        2 0.19683862E+00 0.29983877E+04</pdfrwt>
<pdfrwt beam="2">  1       -2 0.27025799E+00 0.29983877E+04</pdfrwt>
<totfact> 0.70264600E-01</totfact>
</mgrwt>
</event>
<event>
 6    1  0.5040916E-004  0.1711023E+04  0.7818608E-02  0.8755102E-01
         -2   -1    0    0    0  501 -0.00000000000E+00  0.00000000000E+00  0.56591631689E+03  0.56591631689E+03  0.00000000000E+00 0. -1.
          2   -1    0    0  501    0  0.00000000000E+00 -0.00000000000E+00 -0.12933009713E+04  0.12933009713E+04  0.00000000000E+00 0.  1.
         23    2    1    2    0    0 -0.56687333065E+03  0.61941752729E+03 -0.20128230398E+03  0.86835547682E+03  0.92212917240E+02 0.  0.
         11    1    3    3    0    0 -0.13960750710E+03  0.20301144160E+03 -0.84109415568E+02  0.26034264969E+03  0.00000000000E+00 0.  1.
        -11    1    3    3    0    0 -0.42726582356E+03  0.41640608568E+03 -0.11717288842E+03  0.60801282713E+03  0.00000000000E+00 0. -1.
         22    1    1    2    0    0  0.56687333065E+03 -0.61941752729E+03 -0.52610235045E+03  0.99086181139E+03  0.00000000000E+00 0.  1.
<mgrwt>
<rscale>  0 0.17110232E+04</rscale>
<asrwt>0</asrwt>
<pdfrwt beam="1">  1        2 0.19896938E+00 0.17110232E+04</pdfrwt>
<pdfrwt beam="2">  1       -2 0.87064050E-01 0.17110232E+04</pdfrwt>
<totfact> 0.18091210E+01</totfact>
</mgrwt>
</event>
<event>
 6    1  0.5040916E-004  0.1003601E+04  0.7818608E-02  0.9304604E-01
         -2   -1    0    0    0  501 -0.00000000000E+00  0.00000000000E+00  0.46215532086E+03  0.46215532086E+03  0.00000000000E+00 0. -1.
          2   -1    0    0  501    0  0.00000000000E+00 -0.00000000000E+00 -0.54484678538E+03  0.54484678538E+03  0.00000000000E+00 0.  1.
         23    2    1    2    0    0  0.38858649329E+03 -0.22257230798E+03 -0.25933201498E+03  0.52560852598E+03  0.92050711811E+02 0.  0.
         11    1    3    3    0    0  0.23448052300E+03 -0.15520223373E+03 -0.11433988750E+03  0.30354976346E+03  0.00000000000E+00 0.  1.
        -11    1    3    3    0    0  0.15410597029E+03 -0.67370074252E+02 -0.14499212748E+03  0.22205876252E+03  0.00000000000E+00 0. -1.
         22    1    1    2    0    0 -0.38858649329E+03  0.22257230798E+03  0.17664055046E+03  0.48139358025E+03  0.00000000000E+00 0. -1.
<mgrwt>
<rscale>  0 0.10036012E+04</rscale>
<asrwt>0</asrwt>
<pdfrwt beam="1">  1        2 0.83822582E-01 0.10036012E+04</pdfrwt>
<pdfrwt beam="2">  1       -2 0.71100818E-01 0.10036012E+04</pdfrwt>
<totfact> 0.99906703E+01</totfact>
</mgrwt>
</event>
<event>
 6    1  0.5040916E-004  0.5891705E+03  0.7818608E-02  0.9928132E-01
          2   -1    0    0  501    0  0.00000000000E+00  0.00000000000E+00  0.37098582079E+04  0.37098582079E+04  0.00000000000E+00 0.  1.
         -2   -1    0    0    0  501 -0.00000000000E+00 -0.00000000000E+00 -0.23391857773E+02  0.23391857773E+02  0.00000000000E+00 0. -1.
         23    2    1    2    0    0  0.22558023035E+03 -0.64818071634E+02  0.29383462670E+04  0.29491764202E+04  0.93139411426E+02 0.  0.
         11    1    3    3    0    0  0.12073261525E+03 -0.37263970999E+02  0.10244822949E+04  0.10322446127E+04  0.00000000000E+00 0. -1.
        -11    1    3    3    0    0  0.10484761510E+03 -0.27554100635E+02  0.19138639721E+04  0.19169318075E+04  0.00000000000E+00 0.  1.
         22    1    1    2    0    0 -0.22558023035E+03  0.64818071634E+02  0.74812008310E+03  0.78407364544E+03  0.00000000000E+00 0. -1.
<mgrwt>
<rscale>  0 0.58917052E+03</rscale>
<asrwt>0</asrwt>
<pdfrwt beam="1">  1        2 0.57074695E+00 0.58917052E+03</pdfrwt>
<pdfrwt beam="2">  1       -2 0.35987503E-02 0.58917052E+03</pdfrwt>
<totfact> 0.21892894E+02</totfact>
</mgrwt>
</event>
<event>
 6    1  0.5040916E-004  0.3726858E+04  0.7818608E-02  0.8062036E-01
         -2   -1    0    0    0  501 -0.00000000000E+00  0.00000000000E+00  0.21887455664E+04  0.21887455664E+04  0.00000000000E+00 0. -1.
          2   -1    0    0  501    0  0.00000000000E+00 -0.00000000000E+00 -0.15864646830E+04  0.15864646830E+04  0.00000000000E+00 0.  1.
         23    2    1    2    0    0 -0.13933056418E+04 -0.82905623272E+03 -0.62681705478E+03  0.17406792003E+04  0.91812905517E+02 0.  0.
         11    1    3    3    0    0 -0.42467125452E+03 -0.21049811775E+03 -0.16096869269E+03  0.50056573196E+03  0.00000000000E+00 0. -1.
        -11    1    3    3    0    0 -0.96863438726E+03 -0.61855811497E+03 -0.46584836209E+03  0.12401134683E+04  0.00000000000E+00 0.  1.
         22    1    1    2    0    0  0.13933056418E+04  0.82905623272E+03  0.12290979382E+04  0.20345310492E+04  0.00000000000E+00 0. -1.
<mgrwt>
<rscale>  0 0.37268579E+04</rscale>
<asrwt>0</asrwt>
<pdfrwt beam="1">  1        2 0.24407149E+00 0.37268579E+04</pdfrwt>
<pdfrwt beam="2">  1       -2 0.33673009E+00 0.37268579E+04</pdfrwt>
<totfact> 0.17248263E-01</totfact>
</mgrwt>
</event>
<event>
 6    1  0.5040916E-004  0.2459397E+04  0.7818608E-02  0.8417595E-01
         -2   -1    0    0    0  501 -0.00000000000E+00  0.00000000000E+00  0.75631742585E+03  0.75631742585E+03  0.00000000000E+00 0. -1.
          2   -1    0    0  501    0  0.00000000000E+00 -0.00000000000E+00 -0.19993707939E+04  0.19993707939E+04  0.00000000000E+00 0.  1.
         23    2    1    2    0    0 -0.38565476345E+03  0.26421344621E+03 -0.18947344289E+04  0.19536741632E+04  0.91026579401E+02 0.  0.
         13    1    3    3    0    0 -0.31055074924E+02  0.57998464348E+02 -0.28534731120E+03  0.29283327604E+03  0.00000000000E+00 0. -1.
        -13    1    3    3    0    0 -0.35459968853E+03  0.20621498186E+03 -0.16093871177E+04  0.16608408872E+04  0.00000000000E+00 0.  1.
         22    1    1    2    0    0  0.38565476345E+03 -0.26421344621E+03  0.65168106089E+03  0.80201405652E+03  0.00000000000E+00 0. -1.
<mgrwt>
<rscale>  0 0.24593975E+04</rscale>
<asrwt>0</asrwt>
<pdfrwt beam="1">  1        2 0.30759550E+00 0.24593975E+04</pdfrwt>
<pdfrwt beam="2">  1       -2 0.11635653E+00 0.24593975E+04</pdfrwt>
<totfact> 0.34283856E+00</totfact>
</mgrwt>
</event>
<event>
 6    1  0.5040916E-004  0.3927818E+04  0.7818608E-02  0.8019268E-01
          2   -1    0    0  501    0  0.00000000000E+00  0.00000000000E+00  0.19652189179E+04  0.19652189179E+04  0.00000000000E+00 0.  1.
         -2   -1    0    0    0  501 -0.00000000000E+00 -0.00000000000E+00 -0.19626002429E+04  0.19626002429E+04  0.00000000000E+00 0. -1.
         23    2    1    2    0    0  0.44673238797E+03  0.12266440402E+04  0.14671293147E+04  0.19659280217E+04  0.90438556430E+02 0.  0.
         11    1    3    3    0    0  0.29494076311E+03  0.78126914288E+03  0.87389523797E+03  0.12087449749E+04  0.00000000000E+00 0.  1.
        -11    1    3    3    0    0  0.15179162486E+03  0.44537489736E+03  0.59323407669E+03  0.75718304677E+03  0.00000000000E+00 0. -1.
         22    1    1    2    0    0 -0.44673238797E+03 -0.12266440402E+04 -0.14645106397E+04  0.19618911391E+04  0.00000000000E+00 0. -1.
<mgrwt>
<rscale>  0 0.39278183E+04</rscale>
<asrwt>0</asrwt>
<pdfrwt beam="1">  1        2 0.30234137E+00 0.39278183E+04</pdfrwt>
<pdfrwt beam="2">  1       -2 0.30193850E+00 0.39278183E+04</pdfrwt>
<totfact> 0.17142669E-01</totfact>
</mgrwt>
</event>
<event>
 6    1  0.5040916E-004  0.1160211E+04  0.7818608E-02  0.9148415E-01
          2   -1    0    0  501    0  0.00000000000E+00  0.00000000000E+00  0.10667158606E+04  0.10667158606E+04  0.00000000000E+00 0.  1.
         -2   -1    0    0    0  501 -0.00000000000E+00 -0.00000000000E+00 -0.31547496117E+03  0.31547496117E+03  0.00000000000E+00 0. -1.
         23    2    1    2    0    0 -0.51583071613E+03  0.25735473278E+03  0.38955973088E+03  0.70165716800E+03  0.90847186502E+02 0.  0.
         13    1    3    3    0    0 -0.51397457766E+03  0.24199758468E+03  0.38005144565E+03  0.68349966994E+03  0.00000000000E+00 0.  1.
        -13    1    3    3    0    0 -0.18561384756E+01  0.15357148101E+02  0.95082852333E+01  0.18157498064E+02  0.00000000000E+00 0. -1.
         22    1    1    2    0    0  0.51583071613E+03 -0.25735473278E+03  0.36168116851E+03  0.68053365372E+03  0.00000000000E+00 0.  1.
<mgrwt>
<rscale>  0 0.11602106E+04</rscale>
<asrwt>0</asrwt>
<pdfrwt beam="1">  1        2 0.16411013E+00 0.11602106E+04</pdfrwt>
<pdfrwt beam="2">  1       -2 0.48534610E-01 0.11602106E+04</pdfrwt>
<totfact> 0.90855672E+01</totfact>
</mgrwt>
</event>
<event>
 6    1  0.5040916E-004  0.2763944E+04  0.7818608E-02  0.8314551E-01
         -2   -1    0    0    0  501 -0.00000000000E+00  0.00000000000E+00  0.79760927490E+03  0.79760927490E+03  0.00000000000E+00 0. -1.
          2   -1    0    0  501    0  0.00000000000E+00 -0.00000000000E+00 -0.23944635254E+04  0.23944635254E+04  0.00000000000E+00 0.  1.
         23    2    1    2    0    0 -0.12374531562E+03  0.11730059613E+04  0.29033202156E+02  0.11834001298E+04  0.91307458293E+02 0.  0.
         11    1    3    3    0    0 -0.61599537512E+02  0.93567384169E+03  0.25069793994E+02  0.93803440002E+03  0.00000000000E+00 0. -1.
        -11    1    3    3    0    0 -0.62145778113E+02  0.23733211964E+03  0.39634081620E+01  0.24536572979E+03  0.00000000000E+00 0.  1.
         22    1    1    2    0    0  0.12374531562E+03 -0.11730059613E+04 -0.16258874526E+04  0.20086726705E+04  0.00000000000E+00 0.  1.
<mgrwt>
<rscale>  0 0.27639438E+04</rscale>
<asrwt>0</asrwt>
<pdfrwt beam="1">  1        2 0.36837900E+00 0.27639438E+04</pdfrwt>
<pdfrwt beam="2">  1       -2 0.12270912E+00 0.27639438E+04</pdfrwt>
<totfact> 0.17549947E+00</totfact>
</mgrwt>
</event>
<event>
 6    1  0.5040916E-004  0.2328640E+04  0.7818608E-02  0.8466714E-01
          2   -1    0    0  501    0  0.00000000000E+00  0.00000000000E+00  0.31210348682E+04  0.31210348682E+04  0.00000000000E+00 0.  1.
         -2   -1    0    0    0  501 -0.00000000000E+00 -0.00000000000E+00 -0.43435615548E+03  0.43435615548E+03  0.00000000000E+00 0. -1.
         23    2    1    2    0    0  0.53056734154E+03  0.57623424407E+03  0.33708790522E+02  0.78920284931E+03  0.90317478140E+02 0.  0.
         11    1    3    3    0    0  0.31992000243E+03  0.38229944016E+03  0.57926665685E+02  0.50185373218E+03  0.00000000000E+00 0.  1.
        -11    1    3    3    0    0  0.21064733911E+03  0.19393480391E+03 -0.24217875164E+02  0.28734911714E+03  0.00000000000E+00 0. -1.
         22    1    1    2    0    0 -0.53056734154E+03 -0.57623424407E+03  0.26529699222E+04  0.27661881744E+04  0.00000000000E+00 0.  1.
<mgrwt>
<rscale>  0 0.23286397E+04</rscale>
<asrwt>0</asrwt>
<pdfrwt beam="1">  1        2 0.48015920E+00 0.23286397E+04</pdfrwt>
<pdfrwt beam="2">  1       -2 0.66824026E-01 0.23286397E+04</pdfrwt>
<totfact> 0.27164483E+00</totfact>
</mgrwt>
</event>
<event>
 6    1  0.5040916E-004  0.1039008E+04  0.7818608E-02  0.9266767E-01
         -2   -1    0    0    0  501 -0.00000000000E+00  0.00000000000E+00  0.63808050288E+03  0.63808050288E+03  0.00000000000E+00 0. -1.
          2   -1    0    0  501    0  0.00000000000E+00 -0.00000000000E+00 -0.42296307227E+03  0.42296307227E+03  0.00000000000E+00 0.  1.
         23    2    1    2    0    0 -0.30046938073E+03 -0.21941705926E+03 -0.25786124774E+03  0.45926743337E+03  0.77514241366E+02 0.  0.
         13    1    3    3    0    0 -0.18382509644E+03 -0.12614673195E+03 -0.19865392024E+03  0.29861018752E+03  0.00000000000E+00 0. -1.
        -13    1    3    3    0    0 -0.11664428428E+03 -0.93270327311E+02 -0.59207327501E+02  0.16065724584E+03  0.00000000000E+00 0.  1.
         22    1    1    2    0    0  0.30046938073E+03  0.21941705926E+03  0.47297867835E+03  0.60177614179E+03  0.00000000000E+00 0. -1.
<mgrwt>
<rscale>  0 0.10390082E+04</rscale>
<asrwt>0</asrwt>
<pdfrwt beam="1">  1        2 0.65071242E-01 0.10390082E+04</pdfrwt>
<pdfrwt beam="2">  1       -2 0.98166231E-01 0.10390082E+04</pdfrwt>
<totfact> 0.64196028E+01</totfact>
</mgrwt>
</event>
<event>
 6    1  0.5040916E-004  0.3665597E+04  0.7818608E-02  0.8075629E-01
         -2   -1    0    0    0  501 -0.00000000000E+00  0.00000000000E+00  0.24651450992E+04  0.24651450992E+04  0.00000000000E+00 0. -1.
          2   -1    0    0  501    0  0.00000000000E+00 -0.00000000000E+00 -0.13626581809E+04  0.13626581809E+04  0.00000000000E+00 0.  1.
         23    2    1    2    0    0 -0.17386604651E+04  0.56250915742E+03  0.42116543878E+03  0.18775326005E+04  0.91605535847E+02 0.  0.
         13    1    3    3    0    0 -0.67924540028E+03  0.22401179286E+03  0.21064657810E+03  0.74560551098E+03  0.00000000000E+00 0. -1.
        -13    1    3    3    0    0 -0.10594150648E+04  0.33849736457E+03  0.21051886068E+03  0.11319270895E+04  0.00000000000E+00 0.  1.
         22    1    1    2    0    0  0.17386604651E+04 -0.56250915742E+03  0.68132147951E+03  0.19502706795E+04  0.00000000000E+00 0. -1.
<mgrwt>
<rscale>  0 0.36655969E+04</rscale>
<asrwt>0</asrwt>
<pdfrwt beam="1">  1        2 0.20963972E+00 0.36655969E+04</pdfrwt>
<pdfrwt beam="2">  1       -2 0.37925309E+00 0.36655969E+04</pdfrwt>
<totfact> 0.12470320E-01</totfact>
</mgrwt>
</event>
<event>
 6    1  0.5040916E-004  0.2047828E+04  0.7818608E-02  0.8584580E-01
         -2   -1    0    0    0  501 -0.00000000000E+00  0.00000000000E+00  0.13693765336E+04  0.13693765336E+04  0.00000000000E+00 0. -1.
          2   -1    0    0  501    0  0.00000000000E+00 -0.00000000000E+00 -0.76560405863E+03  0.76560405863E+03  0.00000000000E+00 0.  1.
         23    2    1    2    0    0 -0.41008260439E+03 -0.77624528078E+03 -0.24278272041E+03  0.91539862402E+03  0.91031385697E+02 0.  0.
         11    1    3    3    0    0 -0.16043502033E+03 -0.24267004817E+03 -0.11365439216E+03  0.31232269992E+03  0.00000000000E+00 0. -1.
        -11    1    3    3    0    0 -0.24964758406E+03 -0.53357523260E+03 -0.12912832825E+03  0.60307592410E+03  0.00000000000E+00 0.  1.
         22    1    1    2    0    0  0.41008260439E+03  0.77624528078E+03  0.84655519536E+03  0.12195819682E+04  0.00000000000E+00 0. -1.
<mgrwt>
<rscale>  0 0.20478283E+04</rscale>
<asrwt>0</asrwt>
<pdfrwt beam="1">  1        2 0.11778524E+00 0.20478283E+04</pdfrwt>
<pdfrwt beam="2">  1       -2 0.21067331E+00 0.20478283E+04</pdfrwt>
<totfact> 0.38282968E+00</totfact>
</mgrwt>
</event>
<event>
 6    1  0.5040916E-004  0.2434588E+04  0.7818608E-02  0.8426667E-01
          1   -1    0    0  501    0  0.00000000000E+00  0.00000000000E+00  0.14227752947E+04  0.14227752947E+04  0.00000000000E+00 0.  1.
         -1   -1    0    0    0  501 -0.00000000000E+00 -0.00000000000E+00 -0.10414887245E+04  0.10414887245E+04  0.00000000000E+00 0. -1.
         23    2    1    2    0    0  0.79025899261E+03  0.81512282878E+03  0.63061149102E+03  0.13018968580E+04  0.91269244148E+02 0.  0.
         13    1    3    3    0    0  0.22677725024E+03  0.29261044493E+03  0.21940770967E+03  0.43033537709E+03  0.00000000000E+00 0. -1.
        -13    1    3    3    0    0  0.56348174237E+03  0.52251238386E+03  0.41120378134E+03  0.87156148094E+03  0.00000000000E+00 0.  1.
         22    1    1    2    0    0 -0.79025899261E+03 -0.81512282878E+03 -0.24932492083E+03  0.11623671612E+04  0.00000000000E+00 0. -1.
<mgrwt>
<rscale>  0 0.24345878E+04</rscale>
<asrwt>0</asrwt>
<pdfrwt beam="1">  1        1 0.21888851E+00 0.24345878E+04</pdfrwt>
<pdfrwt beam="2">  1       -1 0.16022903E+00 0.24345878E+04</pdfrwt>
<totfact> 0.19258896E+00</totfact>
</mgrwt>
</event>
<event>
 6    1  0.5040916E-004  0.2999542E+04  0.7818608E-02  0.8243862E-01
         -2   -1    0    0    0  501 -0.00000000000E+00  0.00000000000E+00  0.14088965126E+04  0.14088965126E+04  0.00000000000E+00 0. -1.
          2   -1    0    0  501    0  0.00000000000E+00 -0.00000000000E+00 -0.15965068619E+04  0.15965068619E+04  0.00000000000E+00 0.  1.
         23    2    1    2    0    0  0.13027021121E+04  0.51365145314E+03 -0.62802997581E+03  0.15374660273E+04  0.92247093918E+02 0.  0.
         11    1    3    3    0    0  0.75449479159E+03  0.30238587837E+03 -0.41395290835E+03  0.91217137661E+03  0.00000000000E+00 0.  1.
        -11    1    3    3    0    0  0.54820732049E+03  0.21126557477E+03 -0.21407706746E+03  0.62529465065E+03  0.00000000000E+00 0. -1.
         22    1    1    2    0    0 -0.13027021121E+04 -0.51365145314E+03  0.44041962644E+03  0.14679373473E+04  0.00000000000E+00 0. -1.
<mgrwt>
<rscale>  0 0.29995419E+04</rscale>
<asrwt>0</asrwt>
<pdfrwt beam="1">  1        2 0.24561644E+00 0.29995419E+04</pdfrwt>
<pdfrwt beam="2">  1       -2 0.21675331E+00 0.29995419E+04</pdfrwt>
<totfact> 0.99401037E-01</totfact>
</mgrwt>
</event>
<event>
 6    1  0.5040916E-004  0.2488868E+03  0.7818608E-02  0.1114010E+00
         -2   -1    0    0    0  501 -0.00000000000E+00  0.00000000000E+00  0.32743208220E+03  0.32743208220E+03  0.00000000000E+00 0. -1.
          2   -1    0    0  501    0  0.00000000000E+00 -0.00000000000E+00 -0.47295800519E+02  0.47295800519E+02  0.00000000000E+00 0.  1.
         23    2    1    2    0    0  0.57867027004E+01  0.17230294083E+02  0.31941158897E+03  0.33145065170E+03  0.86633725409E+02 0.  0.
         11    1    3    3    0    0 -0.30784631106E+01 -0.26289078970E+02  0.23099098653E+03  0.23250253432E+03  0.00000000000E+00 0.  1.
        -11    1    3    3    0    0  0.88651658110E+01  0.43519373052E+02  0.88420602442E+02  0.98948117375E+02  0.00000000000E+00 0. -1.
         22    1    1    2    0    0 -0.57867027004E+01 -0.17230294083E+02 -0.39275307290E+02  0.43277231024E+02  0.00000000000E+00 0.  1.
<mgrwt>
<rscale>  0 0.24888682E+03</rscale>
<asrwt>0</asrwt>
<pdfrwt beam="1">  1        2 0.72762772E-02 0.24888682E+03</pdfrwt>
<pdfrwt beam="2">  1       -2 0.50374165E-01 0.24888682E+03</pdfrwt>
<totfact> 0.36018959E+03</totfact>
</mgrwt>
</event>
<event>
 6    1  0.5040916E-004  0.2062572E+04  0.7818608E-02  0.8577912E-01
         -2   -1    0    0    0  501 -0.00000000000E+00  0.00000000000E+00  0.21085864190E+03  0.21085864190E+03  0.00000000000E+00 0. -1.
          2   -1    0    0  501    0  0.00000000000E+00 -0.00000000000E+00 -0.50439045937E+04  0.50439045937E+04  0.00000000000E+00 0.  1.
         23    2    1    2    0    0 -0.18283114110E+03  0.10074080308E+04 -0.26809720686E+04  0.28715468868E+04  0.99358561061E+02 0.  0.
         11    1    3    3    0    0 -0.49388014831E+02  0.48764933302E+03 -0.13675113054E+04  0.14526968776E+04  0.00000000000E+00 0.  1.
        -11    1    3    3    0    0 -0.13344312627E+03  0.51975869773E+03 -0.13134607632E+04  0.14188500091E+04  0.00000000000E+00 0. -1.
         22    1    1    2    0    0  0.18283114110E+03 -0.10074080308E+04 -0.21520738832E+04  0.23832163488E+04  0.00000000000E+00 0.  1.
<mgrwt>
<rscale>  0 0.20625721E+04</rscale>
<asrwt>0</asrwt>
<pdfrwt beam="1">  1        2 0.77598523E+00 0.20625721E+04</pdfrwt>
<pdfrwt beam="2">  1       -2 0.32439795E-01 0.20625721E+04</pdfrwt>
<totfact> 0.25272302E-01</totfact>
</mgrwt>
</event>
<event>
 6    1  0.5040916E-004  0.4366385E+04  0.7818608E-02  0.7934456E-01
         -2   -1    0    0    0  501 -0.00000000000E+00  0.00000000000E+00  0.18564672964E+04  0.18564672964E+04  0.00000000000E+00 0. -1.
          2   -1    0    0  501    0  0.00000000000E+00 -0.00000000000E+00 -0.25674193048E+04  0.25674193048E+04  0.00000000000E+00 0.  1.
         23    2    1    2    0    0  0.20650497688E+04 -0.14186824198E+03  0.34458316446E+03  0.21003738194E+04  0.90969657471E+02 0.  0.
         11    1    3    3    0    0  0.32340365784E+03 -0.54988245247E+02  0.60318838709E+02  0.33354459271E+03  0.00000000000E+00 0.  1.
        -11    1    3    3    0    0  0.17416461109E+04 -0.86879996733E+02  0.28426432575E+03  0.17668292267E+04  0.00000000000E+00 0. -1.
         22    1    1    2    0    0 -0.20650497688E+04  0.14186824198E+03 -0.10555351729E+04  0.23235127817E+04  0.00000000000E+00 0. -1.
<mgrwt>
<rscale>  0 0.43663852E+04</rscale>
<asrwt>0</asrwt>
<pdfrwt beam="1">  1        2 0.39498758E+00 0.43663852E+04</pdfrwt>
<pdfrwt beam="2">  1       -2 0.28561036E+00 0.43663852E+04</pdfrwt>
<totfact> 0.94795914E-02</totfact>
</mgrwt>
</event>
<event>
 6    1  0.5040916E-004  0.3180453E+04  0.7818608E-02  0.8193999E-01
          2   -1    0    0  501    0  0.00000000000E+00  0.00000000000E+00  0.18230359128E+04  0.18230359128E+04  0.00000000000E+00 0.  1.
         -2   -1    0    0    0  501 -0.00000000000E+00 -0.00000000000E+00 -0.13871476505E+04  0.13871476505E+04  0.00000000000E+00 0. -1.
         23    2    1    2    0    0 -0.13288059126E+04 -0.85554621753E+03  0.38349697612E+03  0.16289089729E+04  0.92682400597E+02 0.  0.
         13    1    3    3    0    0 -0.68939948075E+03 -0.43718333013E+03  0.24536630904E+03  0.85241159883E+03  0.00000000000E+00 0. -1.
        -13    1    3    3    0    0 -0.63940643188E+03 -0.41836288740E+03  0.13813066708E+03  0.77649737402E+03  0.00000000000E+00 0.  1.
         22    1    1    2    0    0  0.13288059126E+04  0.85554621753E+03  0.52391286179E+02  0.15812745905E+04  0.00000000000E+00 0.  1.
<mgrwt>
<rscale>  0 0.31804528E+04</rscale>
<asrwt>0</asrwt>
<pdfrwt beam="1">  1        2 0.28046706E+00 0.31804528E+04</pdfrwt>
<pdfrwt beam="2">  1       -2 0.21340733E+00 0.31804528E+04</pdfrwt>
<totfact> 0.76944955E-01</totfact>
</mgrwt>
</event>
<event>
 6    1  0.5040916E-004  0.1336628E+04  0.7818608E-02  0.9001013E-01
         -2   -1    0    0    0  501 -0.00000000000E+00  0.00000000000E+00  0.72073731291E+03  0.72073731291E+03  0.00000000000E+00 0. -1.
          2   -1    0    0  501    0  0.00000000000E+00 -0.00000000000E+00 -0.61970352352E+03  0.61970352352E+03  0.00000000000E+00 0.  1.
         23    2    1    2    0    0 -0.53845261581E+03  0.12728006157E+03  0.42140250383E+03  0.70109152132E+03  0.88418422820E+02 0.  0.
         11    1    3    3    0    0 -0.41364166957E+03  0.12635630581E+03  0.29558248481E+03  0.52386482240E+03  0.00000000000E+00 0.  1.
        -11    1    3    3    0    0 -0.12481094624E+03  0.92375576245E+00  0.12582001901E+03  0.17722669892E+03  0.00000000000E+00 0. -1.
         22    1    1    2    0    0  0.53845261581E+03 -0.12728006157E+03 -0.32036871444E+03  0.63934931511E+03  0.00000000000E+00 0.  1.
<mgrwt>
<rscale>  0 0.13366278E+04</rscale>
<asrwt>0</asrwt>
<pdfrwt beam="1">  1        2 0.95339003E-01 0.13366278E+04</pdfrwt>
<pdfrwt beam="2">  1       -2 0.11088266E+00 0.13366278E+04</pdfrwt>
<totfact> 0.30042343E+01</totfact>
</mgrwt>
</event>
<event>
 6    1  0.5040916E-004  0.1694344E+04  0.7818608E-02  0.8764596E-01
         -1   -1    0    0    0  501 -0.00000000000E+00  0.00000000000E+00  0.67224708965E+03  0.67224708965E+03  0.00000000000E+00 0. -1.
          1   -1    0    0  501    0  0.00000000000E+00 -0.00000000000E+00 -0.10676146125E+04  0.10676146125E+04  0.00000000000E+00 0.  1.
         23    2    1    2    0    0  0.58479611373E+03 -0.55085395096E+03 -0.46660812137E+03  0.93332478863E+03  0.89137266205E+02 0.  0.
         13    1    3    3    0    0  0.31584064473E+03 -0.23771689555E+03 -0.21723741195E+03  0.45106177897E+03  0.00000000000E+00 0. -1.
        -13    1    3    3    0    0  0.26895546899E+03 -0.31313705541E+03 -0.24937070942E+03  0.48226300966E+03  0.00000000000E+00 0.  1.
         22    1    1    2    0    0 -0.58479611373E+03  0.55085395096E+03  0.71240598563E+02  0.80653691348E+03  0.00000000000E+00 0.  1.
<mgrwt>
<rscale>  0 0.16943445E+04</rscale>
<asrwt>0</asrwt>
<pdfrwt beam="1">  1        1 0.16424840E+00 0.16943445E+04</pdfrwt>
<pdfrwt beam="2">  1       -1 0.10342263E+00 0.16943445E+04</pdfrwt>
<totfact> 0.11266562E+01</totfact>
</mgrwt>
</event>
<event>
 6    1  0.5040916E-004  0.2757302E+04  0.7818608E-02  0.8316648E-01
          2   -1    0    0  501    0  0.00000000000E+00  0.00000000000E+00  0.13089722443E+04  0.13089722443E+04  0.00000000000E+00 0.  1.
         -2   -1    0    0    0  501 -0.00000000000E+00 -0.00000000000E+00 -0.14520390696E+04  0.14520390696E+04  0.00000000000E+00 0. -1.
         23    2    1    2    0    0 -0.53457525165E+03 -0.46705850720E+03 -0.12532918179E+04  0.14432427899E+04  0.91077005000E+02 0.  0.
         13    1    3    3    0    0 -0.41598482828E+03 -0.31228825814E+03 -0.93626476364E+03  0.10710551065E+04  0.00000000000E+00 0. -1.
        -13    1    3    3    0    0 -0.11859042338E+03 -0.15477024906E+03 -0.31702705425E+03  0.37218768335E+03  0.00000000000E+00 0.  1.
         22    1    1    2    0    0  0.53457525165E+03  0.46705850720E+03  0.11102249926E+04  0.13177685241E+04  0.00000000000E+00 0.  1.
<mgrwt>
<rscale>  0 0.27573022E+04</rscale>
<asrwt>0</asrwt>
<pdfrwt beam="1">  1        2 0.20138034E+00 0.27573022E+04</pdfrwt>
<pdfrwt beam="2">  1       -2 0.22339063E+00 0.27573022E+04</pdfrwt>
<totfact> 0.13417513E+00</totfact>
</mgrwt>
</event>
<event>
 6    1  0.5040916E-004  0.1293188E+04  0.7818608E-02  0.9034985E-01
          2   -1    0    0  501    0  0.00000000000E+00  0.00000000000E+00  0.73066845731E+03  0.73066845731E+03  0.00000000000E+00 0.  1.
         -2   -1    0    0    0  501 -0.00000000000E+00 -0.00000000000E+00 -0.57219369310E+03  0.57219369310E+03  0.00000000000E+00 0. -1.
         23    2    1    2    0    0  0.21309368908E+02  0.23461328150E+03  0.68286284358E+03  0.72798795649E+03  0.90373229404E+02 0.  0.
         13    1    3    3    0    0  0.53967848557E+02  0.14351991473E+03  0.46421384630E+03  0.48888136567E+03  0.00000000000E+00 0.  1.
        -13    1    3    3    0    0 -0.32658479649E+02  0.91093366766E+02  0.21864899728E+03  0.23910659082E+03  0.00000000000E+00 0. -1.
         22    1    1    2    0    0 -0.21309368908E+02 -0.23461328150E+03 -0.52438807936E+03  0.57487419392E+03  0.00000000000E+00 0. -1.
<mgrwt>
<rscale>  0 0.12931881E+04</rscale>
<asrwt>0</asrwt>
<pdfrwt beam="1">  1        2 0.11241053E+00 0.12931881E+04</pdfrwt>
<pdfrwt beam="2">  1       -2 0.88029799E-01 0.12931881E+04</pdfrwt>
<totfact> 0.42317836E+01</totfact>
</mgrwt>
</event>
<event>
 6    1  0.5040916E-004  0.2485452E+04  0.7818608E-02  0.8408187E-01
         -2   -1    0    0    0  501 -0.00000000000E+00  0.00000000000E+00  0.94859557381E+03  0.94859557381E+03  0.00000000000E+00 0. -1.
          2   -1    0    0  501    0  0.00000000000E+00 -0.00000000000E+00 -0.16280571024E+04  0.16280571024E+04  0.00000000000E+00 0.  1.
         23    2    1    2    0    0 -0.10422489432E+03  0.19109295759E+03 -0.16068425050E+04  0.16240694397E+04  0.90990999740E+02 0.  0.
         11    1    3    3    0    0 -0.49587219120E+02  0.14609752709E+03 -0.13024442133E+04  0.13115503454E+04  0.00000000000E+00 0.  1.
        -11    1    3    3    0    0 -0.54637675198E+02  0.44995430506E+02 -0.30439829172E+03  0.31251909432E+03  0.00000000000E+00 0. -1.
         22    1    1    2    0    0  0.10422489432E+03 -0.19109295759E+03  0.92738097642E+03  0.95258323650E+03  0.00000000000E+00 0. -1.
<mgrwt>
<rscale>  0 0.24854519E+04</rscale>
<asrwt>0</asrwt>
<pdfrwt beam="1">  1        2 0.25047032E+00 0.24854519E+04</pdfrwt>
<pdfrwt beam="2">  1       -2 0.14593778E+00 0.24854519E+04</pdfrwt>
<totfact> 0.30948152E+00</totfact>
</mgrwt>
</event>
<event>
 6    1  0.5040916E-004  0.2342562E+04  0.7818608E-02  0.8461326E-01
         -2   -1    0    0    0  501 -0.00000000000E+00  0.00000000000E+00  0.17293378013E+04  0.17293378013E+04  0.00000000000E+00 0. -1.
          2   -1    0    0  501    0  0.00000000000E+00 -0.00000000000E+00 -0.79330891655E+03  0.79330891655E+03  0.00000000000E+00 0.  1.
         23    2    1    2    0    0  0.54149161182E+03  0.67872699099E+03  0.13124568700E+04  0.15762950273E+04  0.90991667375E+02 0.  0.
         13    1    3    3    0    0  0.34809137998E+03  0.47425913910E+03  0.82209457119E+03  0.10109049529E+04  0.00000000000E+00 0.  1.
        -13    1    3    3    0    0  0.19340023183E+03  0.20446785189E+03  0.49036229883E+03  0.56539007441E+03  0.00000000000E+00 0. -1.
         22    1    1    2    0    0 -0.54149161182E+03 -0.67872699099E+03 -0.37642798531E+03  0.94635169049E+03  0.00000000000E+00 0.  1.
<mgrwt>
<rscale>  0 0.23425619E+04</rscale>
<asrwt>0</asrwt>
<pdfrwt beam="1">  1        2 0.12204753E+00 0.23425619E+04</pdfrwt>
<pdfrwt beam="2">  1       -2 0.26605197E+00 0.23425619E+04</pdfrwt>
<totfact> 0.16123603E+00</totfact>
</mgrwt>
</event>
<event>
 6    1  0.5040916E-004  0.1005657E+04  0.7818608E-02  0.9302362E-01
         -2   -1    0    0    0  501 -0.00000000000E+00  0.00000000000E+00  0.20852095206E+03  0.20852095206E+03  0.00000000000E+00 0. -1.
          2   -1    0    0  501    0  0.00000000000E+00 -0.00000000000E+00 -0.12125223232E+04  0.12125223232E+04  0.00000000000E+00 0.  1.
         23    2    1    2    0    0 -0.23892077605E+03  0.59463454959E+02 -0.11180482867E+04  0.11497026430E+04  0.10566530283E+03 0.  0.
         11    1    3    3    0    0 -0.18810510101E+03  0.73130264542E+02 -0.70509636063E+03  0.73341150958E+03  0.00000000000E+00 0.  1.
        -11    1    3    3    0    0 -0.50815675041E+02 -0.13666809583E+02 -0.41295192612E+03  0.41629113346E+03  0.00000000000E+00 0. -1.
         22    1    1    2    0    0  0.23892077605E+03 -0.59463454959E+02  0.11404691565E+03  0.27134063218E+03  0.00000000000E+00 0. -1.
<mgrwt>
<rscale>  0 0.10056566E+04</rscale>
<asrwt>0</asrwt>
<pdfrwt beam="1">  1        2 0.18654189E+00 0.10056566E+04</pdfrwt>
<pdfrwt beam="2">  1       -2 0.32080147E-01 0.10056566E+04</pdfrwt>
<totfact> 0.16776941E+02</totfact>
</mgrwt>
</event>
<event>
 6    1  0.7341588E-004  0.3794464E+04  0.7818608E-02  0.8047344E-01
          2   -1    0    0  501    0  0.00000000000E+00  0.00000000000E+00  0.18376512659E+04  0.18376512659E+04  0.00000000000E+00 0.  1.
         -2   -1    0    0    0  501 -0.00000000000E+00 -0.00000000000E+00 -0.19587439692E+04  0.19587439692E+04  0.00000000000E+00 0. -1.
         23    2    1    2    0    0 -0.12485861867E+03 -0.28520172938E+03 -0.19319754011E+04  0.19589443252E+04  0.89466293581E+02 0.  0.
         13    1    3    3    0    0 -0.39320532375E+02 -0.19551768361E+03 -0.11343843755E+04  0.11517817416E+04  0.00000000000E+00 0. -1.
        -13    1    3    3    0    0 -0.85538086297E+02 -0.89684045768E+02 -0.79759102556E+03  0.80716258358E+03  0.00000000000E+00 0.  1.
         22    1    1    2    0    0  0.12485861867E+03  0.28520172938E+03  0.18108826978E+04  0.18374509099E+04  0.00000000000E+00 0.  1.
<mgrwt>
<rscale>  0 0.37944635E+04</rscale>
<asrwt>0</asrwt>
<pdfrwt beam="1">  1        2 0.28271558E+00 0.37944635E+04</pdfrwt>
<pdfrwt beam="2">  1       -2 0.30134523E+00 0.37944635E+04</pdfrwt>
<totfact> 0.20571836E-01</totfact>
</mgrwt>
</event>
<event>
 6    1  0.5040916E-004  0.3180421E+04  0.7818608E-02  0.8194007E-01
          2   -1    0    0  501    0  0.00000000000E+00  0.00000000000E+00  0.24839608912E+04  0.24839608912E+04  0.00000000000E+00 0.  1.
         -2   -1    0    0    0  501 -0.00000000000E+00 -0.00000000000E+00 -0.10180390622E+04  0.10180390622E+04  0.00000000000E+00 0. -1.
         23    2    1    2    0    0 -0.62061204702E+03  0.38391703665E+03  0.22877079845E+04  0.24029621518E+04  0.89820246038E+02 0.  0.
         11    1    3    3    0    0 -0.52028422787E+03  0.35828675464E+03  0.19634324751E+04  0.20625547654E+04  0.00000000000E+00 0. -1.
        -11    1    3    3    0    0 -0.10032781915E+03  0.25630282014E+02  0.32427550947E+03  0.34040738637E+03  0.00000000000E+00 0.  1.
         22    1    1    2    0    0  0.62061204702E+03 -0.38391703665E+03 -0.82178615548E+03  0.10990378016E+04  0.00000000000E+00 0. -1.
<mgrwt>
<rscale>  0 0.31804209E+04</rscale>
<asrwt>0</asrwt>
<pdfrwt beam="1">  1        2 0.38214783E+00 0.31804209E+04</pdfrwt>
<pdfrwt beam="2">  1       -2 0.15662139E+00 0.31804209E+04</pdfrwt>
<totfact> 0.80050230E-01</totfact>
</mgrwt>
</event>
<event>
 6    1  0.5040916E-004  0.2787852E+04  0.7818608E-02  0.8307050E-01
          2   -1    0    0  501    0  0.00000000000E+00  0.00000000000E+00  0.23093290876E+04  0.23093290876E+04  0.00000000000E+00 0.  1.
         -2   -1    0    0    0  501 -0.00000000000E+00 -0.00000000000E+00 -0.84138278663E+03  0.84138278663E+03  0.00000000000E+00 0. -1.
         23    2    1    2    0    0 -0.90967359596E+03 -0.74001651188E+03  0.15833022511E+04  0.19723921026E+04  0.91400760331E+02 0.  0.
         13    1    3    3    0    0 -0.18045502994E+03 -0.10727658616E+03  0.25529833228E+03  0.33052915489E+03  0.00000000000E+00 0. -1.
        -13    1    3    3    0    0 -0.72921856602E+03 -0.63273992573E+03  0.13280039188E+04  0.16418629477E+04  0.00000000000E+00 0.  1.
         22    1    1    2    0    0  0.90967359596E+03  0.74001651188E+03 -0.11535595011E+03  0.11783197717E+04  0.00000000000E+00 0.  1.
<mgrwt>
<rscale>  0 0.27878520E+04</rscale>
<asrwt>0</asrwt>
<pdfrwt beam="1">  1        2 0.35528139E+00 0.27878520E+04</pdfrwt>
<pdfrwt beam="2">  1       -2 0.12944351E+00 0.27878520E+04</pdfrwt>
<totfact> 0.17125047E+00</totfact>
</mgrwt>
</event>
<event>
 6    1  0.5040916E-004  0.1353200E+04  0.7818608E-02  0.8988409E-01
         -2   -1    0    0    0  501 -0.00000000000E+00  0.00000000000E+00  0.12523657546E+04  0.12523657546E+04  0.00000000000E+00 0. -1.
          2   -1    0    0  501    0  0.00000000000E+00 -0.00000000000E+00 -0.36553848859E+03  0.36553848859E+03  0.00000000000E+00 0.  1.
         23    2    1    2    0    0  0.28562650196E+03  0.41859164384E+02  0.11729975627E+04  0.12114216150E+04  0.91018454240E+02 0.  0.
         13    1    3    3    0    0  0.16227731614E+03  0.14684814909E+02  0.83149862477E+03  0.84731312637E+03  0.00000000000E+00 0.  1.
        -13    1    3    3    0    0  0.12334918582E+03  0.27174349475E+02  0.34149893790E+03  0.36410848864E+03  0.00000000000E+00 0. -1.
         22    1    1    2    0    0 -0.28562650196E+03 -0.41859164384E+02 -0.28617029670E+03  0.40648262814E+03  0.00000000000E+00 0.  1.
<mgrwt>
<rscale>  0 0.13532005E+04</rscale>
<asrwt>0</asrwt>
<pdfrwt beam="1">  1        2 0.56236691E-01 0.13532005E+04</pdfrwt>
<pdfrwt beam="2">  1       -2 0.19267165E+00 0.13532005E+04</pdfrwt>
<totfact> 0.12770707E+01</totfact>
</mgrwt>
</event>
<event>
 6    1  0.5040916E-004  0.3527959E+04  0.7818608E-02  0.8107196E-01
         -2   -1    0    0    0  501 -0.00000000000E+00  0.00000000000E+00  0.79445160666E+03  0.79445160666E+03  0.00000000000E+00 0. -1.
          2   -1    0    0  501    0  0.00000000000E+00 -0.00000000000E+00 -0.39166947622E+04  0.39166947622E+04  0.00000000000E+00 0.  1.
         23    2    1    2    0    0 -0.14336336946E+04  0.10195022541E+04 -0.17116053954E+04  0.24562429770E+04  0.94053792604E+02 0.  0.
         11    1    3    3    0    0 -0.11990162750E+04  0.88325702661E+03 -0.14149293469E+04  0.20542171403E+04  0.00000000000E+00 0.  1.
        -11    1    3    3    0    0 -0.23461741961E+03  0.13624522750E+03 -0.29667604849E+03  0.40202583667E+03  0.00000000000E+00 0. -1.
         22    1    1    2    0    0  0.14336336946E+04 -0.10195022541E+04 -0.14106377601E+04  0.22549033919E+04  0.00000000000E+00 0. -1.
<mgrwt>
<rscale>  0 0.35279594E+04</rscale>
<asrwt>0</asrwt>
<pdfrwt beam="1">  1        2 0.60256843E+00 0.35279594E+04</pdfrwt>
<pdfrwt beam="2">  1       -2 0.12222332E+00 0.35279594E+04</pdfrwt>
<totfact> 0.16543363E-01</totfact>
</mgrwt>
</event>
<event>
 6    1  0.5040916E-004  0.1841733E+04  0.7818608E-02  0.8684416E-01
         -2   -1    0    0    0  501 -0.00000000000E+00  0.00000000000E+00  0.77777220957E+03  0.77777220957E+03  0.00000000000E+00 0.  1.
          2   -1    0    0  501    0  0.00000000000E+00 -0.00000000000E+00 -0.10902869972E+04  0.10902869972E+04  0.00000000000E+00 0. -1.
         23    2    1    2    0    0  0.46228831185E+03  0.50490667407E+03  0.46469341270E+03  0.83234987522E+03  0.90692415223E+02 0.  0.
         13    1    3    3    0    0  0.32484840421E+03  0.41198348735E+03  0.35361725472E+03  0.63269427246E+03  0.00000000000E+00 0.  1.
        -13    1    3    3    0    0  0.13743990764E+03  0.92923186721E+02  0.11107615797E+03  0.19965560276E+03  0.00000000000E+00 0. -1.
         22    1    1    2    0    0 -0.46228831185E+03 -0.50490667407E+03 -0.77720820030E+03  0.10357093315E+04  0.00000000000E+00 0. -1.
<mgrwt>
<rscale>  0 0.18417328E+04</rscale>
<asrwt>0</asrwt>
<pdfrwt beam="1">  1        2 0.16773646E+00 0.18417328E+04</pdfrwt>
<pdfrwt beam="2">  1       -2 0.11965726E+00 0.18417328E+04</pdfrwt>
<totfact> 0.11116960E+01</totfact>
</mgrwt>
</event>
<event>
 6    1  0.6414184E-004  0.4410652E+04  0.7818608E-02  0.7926468E-01
          2   -1    0    0  501    0  0.00000000000E+00  0.00000000000E+00  0.21800381253E+04  0.21800381253E+04  0.00000000000E+00 0.  1.
         -2   -1    0    0    0  501 -0.00000000000E+00 -0.00000000000E+00 -0.22309071217E+04  0.22309071217E+04  0.00000000000E+00 0. -1.
         23    2    1    2    0    0 -0.50380831867E+03  0.17295952620E+04  0.12449709697E+04  0.21918184344E+04  0.93769620045E+02 0.  0.
         13    1    3    3    0    0 -0.18349203751E+03  0.76700228781E+03  0.57660179787E+03  0.97695008605E+03  0.00000000000E+00 0. -1.
        -13    1    3    3    0    0 -0.32031628116E+03  0.96259297421E+03  0.66836917185E+03  0.12148683484E+04  0.00000000000E+00 0.  1.
         22    1    1    2    0    0  0.50380831867E+03 -0.17295952620E+04 -0.12958399662E+04  0.22191268126E+04  0.00000000000E+00 0. -1.
<mgrwt>
<rscale>  0 0.44106519E+04</rscale>
<asrwt>0</asrwt>
<pdfrwt beam="1">  1        2 0.33539048E+00 0.44106519E+04</pdfrwt>
<pdfrwt beam="2">  1       -2 0.34321648E+00 0.44106519E+04</pdfrwt>
<totfact> 0.69415866E-02</totfact>
</mgrwt>
</event>
<event>
 6    1  0.5040916E-004  0.1525454E+04  0.7818608E-02  0.8867701E-01
         -2   -1    0    0    0  501 -0.00000000000E+00  0.00000000000E+00  0.68597621899E+03  0.68597621899E+03  0.00000000000E+00 0. -1.
          2   -1    0    0  501    0  0.00000000000E+00 -0.00000000000E+00 -0.84806464362E+03  0.84806464362E+03  0.00000000000E+00 0.  1.
         23    2    1    2    0    0 -0.56749189995E+03 -0.45502349460E+03 -0.30149691798E+03  0.79341398951E+03  0.97529124091E+02 0.  0.
         13    1    3    3    0    0 -0.12309193515E+03 -0.13591054771E+03 -0.43131720264E+02  0.18837103485E+03  0.00000000000E+00 0. -1.
        -13    1    3    3    0    0 -0.44439996480E+03 -0.31911294689E+03 -0.25836519772E+03  0.60504295465E+03  0.00000000000E+00 0.  1.
         22    1    1    2    0    0  0.56749189995E+03  0.45502349460E+03  0.13940849335E+03  0.74062687311E+03  0.00000000000E+00 0. -1.
<mgrwt>
<rscale>  0 0.15254536E+04</rscale>
<asrwt>0</asrwt>
<pdfrwt beam="1">  1        2 0.13047148E+00 0.15254536E+04</pdfrwt>
<pdfrwt beam="2">  1       -2 0.10553480E+00 0.15254536E+04</pdfrwt>
<totfact> 0.22298672E+01</totfact>
</mgrwt>
</event>
<event>
 6    1  0.5040916E-004  0.9144851E+03  0.7818608E-02  0.9407653E-01
          2   -1    0    0  501    0  0.00000000000E+00  0.00000000000E+00  0.53766077929E+03  0.53766077929E+03  0.00000000000E+00 0.  1.
         -2   -1    0    0    0  501 -0.00000000000E+00 -0.00000000000E+00 -0.38885251660E+03  0.38885251660E+03  0.00000000000E+00 0. -1.
         23    2    1    2    0    0  0.33236628598E+03 -0.11897607570E+03  0.36178855377E+03  0.51422303523E+03  0.94401894415E+02 0.  0.
         13    1    3    3    0    0  0.14528037494E+03 -0.99657483851E+02  0.15450077434E+03  0.23432560829E+03  0.00000000000E+00 0. -1.
        -13    1    3    3    0    0  0.18708591105E+03 -0.19318591853E+02  0.20728777944E+03  0.27989742694E+03  0.00000000000E+00 0.  1.
         22    1    1    2    0    0 -0.33236628598E+03  0.11897607570E+03 -0.21298029108E+03  0.41229026066E+03  0.00000000000E+00 0. -1.
<mgrwt>
<rscale>  0 0.91448509E+03</rscale>
<asrwt>0</asrwt>
<pdfrwt beam="1">  1        2 0.82717043E-01 0.91448509E+03</pdfrwt>
<pdfrwt beam="2">  1       -2 0.59823464E-01 0.91448509E+03</pdfrwt>
<totfact> 0.14785456E+02</totfact>
</mgrwt>
</event>
<event>
 6    1  0.5040916E-004  0.1592420E+04  0.7818608E-02  0.8825218E-01
         -2   -1    0    0    0  501 -0.00000000000E+00  0.00000000000E+00  0.63066403881E+03  0.63066403881E+03  0.00000000000E+00 0. -1.
          2   -1    0    0  501    0  0.00000000000E+00 -0.00000000000E+00 -0.10052109067E+04  0.10052109067E+04  0.00000000000E+00 0.  1.
         23    2    1    2    0    0 -0.76706515906E+03 -0.20297664258E+03 -0.20586672737E+03  0.82467739526E+03  0.90128914022E+02 0.  0.
         11    1    3    3    0    0 -0.31507015153E+03 -0.40958030419E+02 -0.65215502583E+02  0.32434522105E+03  0.00000000000E+00 0. -1.
        -11    1    3    3    0    0 -0.45199500753E+03 -0.16201861216E+03 -0.14065122478E+03  0.50033217421E+03  0.00000000000E+00 0.  1.
         22    1    1    2    0    0  0.76706515906E+03  0.20297664258E+03 -0.16868014049E+03  0.81119755021E+03  0.00000000000E+00 0. -1.
<mgrwt>
<rscale>  0 0.15924200E+04</rscale>
<asrwt>0</asrwt>
<pdfrwt beam="1">  1        2 0.15464783E+00 0.15924200E+04</pdfrwt>
<pdfrwt beam="2">  1       -2 0.97025237E-01 0.15924200E+04</pdfrwt>
<totfact> 0.21277256E+01</totfact>
</mgrwt>
</event>
<event>
 6    1  0.5040916E-004  0.4293101E+04  0.7818608E-02  0.7947895E-01
         -2   -1    0    0    0  501 -0.00000000000E+00  0.00000000000E+00  0.12994554318E+04  0.12994554318E+04  0.00000000000E+00 0.  1.
          2   -1    0    0  501    0  0.00000000000E+00 -0.00000000000E+00 -0.35458538266E+04  0.35458538266E+04  0.00000000000E+00 0. -1.
         23    2    1    2    0    0  0.89000701923E+03  0.18607995770E+04 -0.45703978715E+03  0.21146515013E+04  0.90432544350E+02 0.  0.
         13    1    3    3    0    0  0.47366052715E+03  0.10931854965E+04 -0.26892522850E+03  0.12213638292E+04  0.00000000000E+00 0.  1.
        -13    1    3    3    0    0  0.41634649208E+03  0.76761408049E+03 -0.18811455866E+03  0.89328767215E+03  0.00000000000E+00 0. -1.
         22    1    1    2    0    0 -0.89000701923E+03 -0.18607995770E+04 -0.17893586076E+04  0.27306577571E+04  0.00000000000E+00 0. -1.
<mgrwt>
<rscale>  0 0.42931010E+04</rscale>
<asrwt>0</asrwt>
<pdfrwt beam="1">  1        2 0.54551597E+00 0.42931010E+04</pdfrwt>
<pdfrwt beam="2">  1       -2 0.19991622E+00 0.42931010E+04</pdfrwt>
<totfact> 0.77273808E-02</totfact>
</mgrwt>
</event>
<event>
 6    1  0.5040916E-004  0.2096847E+04  0.7818608E-02  0.8562633E-01
         -3   -1    0    0    0  501 -0.00000000000E+00  0.00000000000E+00  0.68568150592E+03  0.68568150592E+03  0.00000000000E+00 0. -1.
          3   -1    0    0  501    0  0.00000000000E+00 -0.00000000000E+00 -0.16030651922E+04  0.16030651922E+04  0.00000000000E+00 0.  1.
         23    2    1    2    0    0 -0.24796127119E+03  0.61159456831E+03 -0.13458193704E+04  0.15019240729E+04  0.94939113007E+02 0.  0.
         11    1    3    3    0    0 -0.12410594643E+03  0.32571529970E+03 -0.60441422975E+03  0.69771720885E+03  0.00000000000E+00 0.  1.
        -11    1    3    3    0    0 -0.12385532475E+03  0.28587926860E+03 -0.74140514064E+03  0.80420686410E+03  0.00000000000E+00 0. -1.
         22    1    1    2    0    0  0.24796127119E+03 -0.61159456831E+03  0.42843568414E+03  0.78682262514E+03  0.00000000000E+00 0. -1.
<mgrwt>
<rscale>  0 0.20968473E+04</rscale>
<asrwt>0</asrwt>
<pdfrwt beam="1">  1        3 0.24662542E+00 0.20968473E+04</pdfrwt>
<pdfrwt beam="2">  1       -3 0.10548946E+00 0.20968473E+04</pdfrwt>
<totfact> 0.14331686E-01</totfact>
</mgrwt>
</event>
<event>
 6    1  0.5040916E-004  0.2748205E+04  0.7818608E-02  0.8319531E-01
         -1   -1    0    0    0  501 -0.00000000000E+00  0.00000000000E+00  0.95418716143E+03  0.95418716143E+03  0.00000000000E+00 0. -1.
          1   -1    0    0  501    0  0.00000000000E+00 -0.00000000000E+00 -0.19788127333E+04  0.19788127333E+04  0.00000000000E+00 0.  1.
         23    2    1    2    0    0 -0.34209246841E+03  0.13282314395E+04 -0.45688877572E+03  0.14485636100E+04  0.91450341146E+02 0.  0.
         13    1    3    3    0    0 -0.31867864554E+03  0.11950501644E+04 -0.38459290634E+03  0.12952268829E+04  0.00000000000E+00 0. -1.
        -13    1    3    3    0    0 -0.23413822877E+02  0.13318127512E+03 -0.72295869381E+02  0.15333672708E+03  0.00000000000E+00 0.  1.
         22    1    1    2    0    0  0.34209246841E+03 -0.13282314395E+04 -0.56773679610E+03  0.14844362847E+04  0.00000000000E+00 0. -1.
<mgrwt>
<rscale>  0 0.27482050E+04</rscale>
<asrwt>0</asrwt>
<pdfrwt beam="1">  1        1 0.30443273E+00 0.27482050E+04</pdfrwt>
<pdfrwt beam="2">  1       -1 0.14679803E+00 0.27482050E+04</pdfrwt>
<totfact> 0.99023287E-01</totfact>
</mgrwt>
</event>
<event>
 6    1  0.5040916E-004  0.2566644E+04  0.7818608E-02  0.8379621E-01
          2   -1    0    0  501    0  0.00000000000E+00  0.00000000000E+00  0.34370747320E+04  0.34370747320E+04  0.00000000000E+00 0.  1.
         -2   -1    0    0    0  501 -0.00000000000E+00 -0.00000000000E+00 -0.47916189499E+03  0.47916189499E+03  0.00000000000E+00 0. -1.
         23    2    1    2    0    0 -0.33216331472E+02  0.30251611644E+03  0.33806133999E+04  0.33953766734E+04  0.86118927678E+02 0.  0.
         11    1    3    3    0    0 -0.57837138699E+02  0.26617201653E+03  0.29066780663E+04  0.29194126221E+04  0.00000000000E+00 0. -1.
        -11    1    3    3    0    0  0.24620807227E+02  0.36344099902E+02  0.47393533360E+03  0.47596405135E+03  0.00000000000E+00 0.  1.
         22    1    1    2    0    0  0.33216331472E+02 -0.30251611644E+03 -0.42270056286E+03  0.52085995356E+03  0.00000000000E+00 0. -1.
<mgrwt>
<rscale>  0 0.25666439E+04</rscale>
<asrwt>0</asrwt>
<pdfrwt beam="1">  1        2 0.52878071E+00 0.25666439E+04</pdfrwt>
<pdfrwt beam="2">  1       -2 0.73717217E-01 0.25666439E+04</pdfrwt>
<totfact> 0.13240873E+00</totfact>
</mgrwt>
</event>
<event>
 6    1  0.5040916E-004  0.1104710E+04  0.7818608E-02  0.9200613E-01
          2   -1    0    0  501    0  0.00000000000E+00  0.00000000000E+00  0.75804486946E+03  0.75804486946E+03  0.00000000000E+00 0.  1.
         -2   -1    0    0    0  501 -0.00000000000E+00 -0.00000000000E+00 -0.40247749952E+03  0.40247749952E+03  0.00000000000E+00 0. -1.
         23    2    1    2    0    0 -0.43373251592E+03 -0.13489355069E+03 -0.14314908069E+03  0.48595712862E+03  0.96656640561E+02 0.  0.
         13    1    3    3    0    0 -0.26027465773E+03 -0.11124916913E+03 -0.12672448727E+03  0.31012637869E+03  0.00000000000E+00 0.  1.
        -13    1    3    3    0    0 -0.17345785820E+03 -0.23644381557E+02 -0.16424593413E+02  0.17583074992E+03  0.00000000000E+00 0. -1.
         22    1    1    2    0    0  0.43373251592E+03  0.13489355069E+03  0.49871645063E+03  0.67456524037E+03  0.00000000000E+00 0.  1.
<mgrwt>
<rscale>  0 0.11047099E+04</rscale>
<asrwt>0</asrwt>
<pdfrwt beam="1">  1        2 0.11662229E+00 0.11047099E+04</pdfrwt>
<pdfrwt beam="2">  1       -2 0.61919615E-01 0.11047099E+04</pdfrwt>
<totfact> 0.88959685E+01</totfact>
</mgrwt>
</event>
<event>
 6    1  0.5040916E-004  0.1685177E+04  0.7818608E-02  0.8769864E-01
          2   -1    0    0  501    0  0.00000000000E+00  0.00000000000E+00  0.25765484328E+04  0.25765484328E+04  0.00000000000E+00 0.  1.
         -2   -1    0    0    0  501 -0.00000000000E+00 -0.00000000000E+00 -0.27554500235E+03  0.27554500235E+03  0.00000000000E+00 0. -1.
         23    2    1    2    0    0  0.58298224361E+03  0.56924046217E+02  0.21731266218E+04  0.22525426687E+04  0.91435858842E+02 0.  0.
         13    1    3    3    0    0  0.12457510905E+03  0.19156501381E+01  0.61303088906E+03  0.62556334488E+03  0.00000000000E+00 0. -1.
        -13    1    3    3    0    0  0.45840713456E+03  0.55008396079E+02  0.15600957328E+04  0.16269793238E+04  0.00000000000E+00 0.  1.
         22    1    1    2    0    0 -0.58298224361E+03 -0.56924046217E+02  0.12787680863E+03  0.59955076648E+03  0.00000000000E+00 0. -1.
<mgrwt>
<rscale>  0 0.16851766E+04</rscale>
<asrwt>0</asrwt>
<pdfrwt beam="1">  1        2 0.39639205E+00 0.16851766E+04</pdfrwt>
<pdfrwt beam="2">  1       -2 0.42391541E-01 0.16851766E+04</pdfrwt>
<totfact> 0.15817556E+01</totfact>
</mgrwt>
</event>
<event>
 6    1  0.5040916E-004  0.8730003E+03  0.7818608E-02  0.9459976E-01
         -1   -1    0    0    0  501 -0.00000000000E+00  0.00000000000E+00  0.12711942233E+04  0.12711942233E+04  0.00000000000E+00 0. -1.
          1   -1    0    0  501    0  0.00000000000E+00 -0.00000000000E+00 -0.14988453836E+03  0.14988453836E+03  0.00000000000E+00 0.  1.
         23    2    1    2    0    0  0.21137098536E+03 -0.30588727804E+03  0.20948319878E+03  0.43635937971E+03  0.91003172307E+02 0.  0.
         11    1    3    3    0    0  0.89671717440E+02 -0.17408403314E+03  0.66011862288E+02  0.20664905871E+03  0.00000000000E+00 0. -1.
        -11    1    3    3    0    0  0.12169926792E+03 -0.13180324490E+03  0.14347133649E+03  0.22971032099E+03  0.00000000000E+00 0.  1.
         22    1    1    2    0    0 -0.21137098536E+03  0.30588727804E+03  0.91182648614E+03  0.98471938193E+03  0.00000000000E+00 0. -1.
<mgrwt>
<rscale>  0 0.87300025E+03</rscale>
<asrwt>0</asrwt>
<pdfrwt beam="1">  1        1 0.23059161E-01 0.87300025E+03</pdfrwt>
<pdfrwt beam="2">  1       -1 0.19556834E+00 0.87300025E+03</pdfrwt>
<totfact> 0.35565712E+01</totfact>
</mgrwt>
</event>
<event>
 6    1  0.5040916E-004  0.1492994E+04  0.7818608E-02  0.8889125E-01
         -2   -1    0    0    0  501 -0.00000000000E+00  0.00000000000E+00  0.42794969476E+03  0.42794969476E+03  0.00000000000E+00 0. -1.
          2   -1    0    0  501    0  0.00000000000E+00 -0.00000000000E+00 -0.13021573958E+04  0.13021573958E+04  0.00000000000E+00 0.  1.
         23    2    1    2    0    0 -0.70394567092E+03 -0.16757070905E+03 -0.24362843400E+03  0.77028957553E+03  0.10184186847E+03 0.  0.
         11    1    3    3    0    0 -0.47801069977E+03 -0.74207482468E+02 -0.19190813741E+03  0.52041302131E+03  0.00000000000E+00 0.  1.
        -11    1    3    3    0    0 -0.22593497115E+03 -0.93363226580E+02 -0.51720296591E+02  0.24987655422E+03  0.00000000000E+00 0. -1.
         22    1    1    2    0    0  0.70394567092E+03  0.16757070905E+03 -0.63057926701E+03  0.95981751501E+03  0.00000000000E+00 0.  1.
<mgrwt>
<rscale>  0 0.14929941E+04</rscale>
<asrwt>0</asrwt>
<pdfrwt beam="1">  1        2 0.20033190E+00 0.14929941E+04</pdfrwt>
<pdfrwt beam="2">  1       -2 0.65838416E-01 0.14929941E+04</pdfrwt>
<totfact> 0.33839544E+01</totfact>
</mgrwt>
</event>
<event>
 6    1  0.5040916E-004  0.6231626E+03  0.7818608E-02  0.9858483E-01
          2   -1    0    0  501    0  0.00000000000E+00  0.00000000000E+00  0.24176466769E+03  0.24176466769E+03  0.00000000000E+00 0.  1.
         -2   -1    0    0    0  501 -0.00000000000E+00 -0.00000000000E+00 -0.40155952441E+03  0.40155952441E+03  0.00000000000E+00 0. -1.
         23    2    1    2    0    0 -0.29175266607E+02  0.89026984265E+02  0.21800352490E+03  0.25408311350E+03  0.90860836406E+02 0.  0.
         13    1    3    3    0    0 -0.61774837860E+02  0.65772406484E+02  0.15783141875E+03  0.18180455657E+03  0.00000000000E+00 0. -1.
        -13    1    3    3    0    0  0.32599571253E+02  0.23254577781E+02  0.60172106150E+02  0.72278556932E+02  0.00000000000E+00 0.  1.
         22    1    1    2    0    0  0.29175266607E+02 -0.89026984265E+02 -0.37779838161E+03  0.38924107859E+03  0.00000000000E+00 0. -1.
<mgrwt>
<rscale>  0 0.62316260E+03</rscale>
<asrwt>0</asrwt>
<pdfrwt beam="1">  1        2 0.37194564E-01 0.62316260E+03</pdfrwt>
<pdfrwt beam="2">  1       -2 0.61778388E-01 0.62316260E+03</pdfrwt>
<totfact> 0.34349569E+02</totfact>
</mgrwt>
</event>
<event>
 6    1  0.5040916E-004  0.3035738E+04  0.7818608E-02  0.8233599E-01
         -2   -1    0    0    0  501 -0.00000000000E+00  0.00000000000E+00  0.68407481302E+03  0.68407481302E+03  0.00000000000E+00 0. -1.
          2   -1    0    0  501    0  0.00000000000E+00 -0.00000000000E+00 -0.33679451654E+04  0.33679451654E+04  0.00000000000E+00 0.  1.
         23    2    1    2    0    0  0.14125629451E+04  0.41880728853E+02 -0.20774895121E+04  0.25142339748E+04  0.91223559064E+02 0.  0.
         13    1    3    3    0    0  0.85958705056E+03 -0.17488396503E+02 -0.12823683425E+04  0.15439120141E+04  0.00000000000E+00 0. -1.
        -13    1    3    3    0    0  0.55297589457E+03  0.59369125355E+02 -0.79512116962E+03  0.97032196069E+03  0.00000000000E+00 0.  1.
         22    1    1    2    0    0 -0.14125629451E+04 -0.41880728853E+02 -0.60638084023E+03  0.15377860036E+04  0.00000000000E+00 0.  1.
<mgrwt>
<rscale>  0 0.30357381E+04</rscale>
<asrwt>0</asrwt>
<pdfrwt beam="1">  1        2 0.51814541E+00 0.30357381E+04</pdfrwt>
<pdfrwt beam="2">  1       -2 0.10524228E+00 0.30357381E+04</pdfrwt>
<totfact> 0.62498656E-01</totfact>
</mgrwt>
</event>
<event>
 6    1  0.5040916E-004  0.8289444E+03  0.7818608E-02  0.9519041E-01
         -2   -1    0    0    0  501 -0.00000000000E+00  0.00000000000E+00  0.24881955485E+03  0.24881955485E+03  0.00000000000E+00 0. -1.
          2   -1    0    0  501    0  0.00000000000E+00 -0.00000000000E+00 -0.69040869518E+03  0.69040869518E+03  0.00000000000E+00 0.  1.
         23    2    1    2    0    0  0.27471495281E+03 -0.14626223557E+03  0.77887892578E+02  0.33365634301E+03  0.91646519679E+02 0.  0.
         11    1    3    3    0    0  0.22774517796E+03 -0.14788419695E+03  0.88255357615E+02  0.28552864995E+03  0.00000000000E+00 0. -1.
        -11    1    3    3    0    0  0.46969774848E+02  0.16219613866E+01 -0.10367465037E+02  0.48127693060E+02  0.00000000000E+00 0.  1.
         22    1    1    2    0    0 -0.27471495281E+03  0.14626223557E+03 -0.51947703291E+03  0.60557190702E+03  0.00000000000E+00 0.  1.
<mgrwt>
<rscale>  0 0.82894435E+03</rscale>
<asrwt>0</asrwt>
<pdfrwt beam="1">  1        2 0.10621672E+00 0.82894435E+03</pdfrwt>
<pdfrwt beam="2">  1       -2 0.38279932E-01 0.82894435E+03</pdfrwt>
<totfact> 0.26997422E+02</totfact>
</mgrwt>
</event>
<event>
 6    1  0.5040916E-004  0.3702919E+04  0.7818608E-02  0.8067315E-01
          2   -1    0    0  501    0  0.00000000000E+00  0.00000000000E+00  0.27611485731E+04  0.27611485731E+04  0.00000000000E+00 0.  1.
         -2   -1    0    0    0  501 -0.00000000000E+00 -0.00000000000E+00 -0.12414766436E+04  0.12414766436E+04  0.00000000000E+00 0. -1.
         23    2    1    2    0    0 -0.61807557519E+03  0.73597233365E+03 -0.94868399717E+03  0.13537662786E+04  0.94916374468E+02 0.  0.
         13    1    3    3    0    0 -0.16285843600E+03  0.24921889185E+03 -0.32947018756E+03  0.44405352236E+03  0.00000000000E+00 0. -1.
        -13    1    3    3    0    0 -0.45521713919E+03  0.48675344180E+03 -0.61921380961E+03  0.90971275627E+03  0.00000000000E+00 0.  1.
         22    1    1    2    0    0  0.61807557519E+03 -0.73597233365E+03  0.24683559267E+04  0.26488589380E+04  0.00000000000E+00 0.  1.
<mgrwt>
<rscale>  0 0.37029186E+04</rscale>
<asrwt>0</asrwt>
<pdfrwt beam="1">  1        2 0.42479209E+00 0.37029186E+04</pdfrwt>
<pdfrwt beam="2">  1       -2 0.19099641E+00 0.37029186E+04</pdfrwt>
<totfact> 0.30099411E-01</totfact>
</mgrwt>
</event>
<event>
 6    1  0.5040916E-004  0.2177539E+04  0.7818608E-02  0.8527835E-01
          2   -1    0    0  501    0  0.00000000000E+00  0.00000000000E+00  0.20000651971E+04  0.20000651971E+04  0.00000000000E+00 0.  1.
         -2   -1    0    0    0  501 -0.00000000000E+00 -0.00000000000E+00 -0.59269034444E+03  0.59269034444E+03  0.00000000000E+00 0. -1.
         23    2    1    2    0    0 -0.17213971714E+03 -0.56204909517E+03 -0.38335833580E+03  0.70801242380E+03  0.93737457968E+02 0.  0.
         13    1    3    3    0    0 -0.11882002045E+03 -0.25360354043E+03 -0.15096983024E+03  0.31815851808E+03  0.00000000000E+00 0.  1.
        -13    1    3    3    0    0 -0.53319696688E+02 -0.30844555474E+03 -0.23238850556E+03  0.38985390572E+03  0.00000000000E+00 0. -1.
         22    1    1    2    0    0  0.17213971714E+03  0.56204909517E+03  0.17907331885E+04  0.18847431177E+04  0.00000000000E+00 0.  1.
<mgrwt>
<rscale>  0 0.21775393E+04</rscale>
<asrwt>0</asrwt>
<pdfrwt beam="1">  1        2 0.30770233E+00 0.21775393E+04</pdfrwt>
<pdfrwt beam="2">  1       -2 0.91183131E-01 0.21775393E+04</pdfrwt>
<totfact> 0.62722542E+00</totfact>
</mgrwt>
</event>
<event>
 6    1  0.5040916E-004  0.2141383E+04  0.7818608E-02  0.8543230E-01
          2   -1    0    0  501    0  0.00000000000E+00  0.00000000000E+00  0.17580787235E+04  0.17580787235E+04  0.00000000000E+00 0.  1.
         -2   -1    0    0    0  501 -0.00000000000E+00 -0.00000000000E+00 -0.65206444055E+03  0.65206444055E+03  0.00000000000E+00 0. -1.
         23    2    1    2    0    0  0.85793426377E+03  0.48103237863E+03  0.10246268746E+04  0.14231947051E+04  0.90441065557E+02 0.  0.
         11    1    3    3    0    0  0.28458835994E+03  0.19565466470E+03  0.31704596515E+03  0.46881705009E+03  0.00000000000E+00 0. -1.
        -11    1    3    3    0    0  0.57334590383E+03  0.28537771393E+03  0.70758090946E+03  0.95437765506E+03  0.00000000000E+00 0.  1.
         22    1    1    2    0    0 -0.85793426377E+03 -0.48103237863E+03  0.81387408299E+02  0.98694845887E+03  0.00000000000E+00 0. -1.
<mgrwt>
<rscale>  0 0.21413833E+04</rscale>
<asrwt>0</asrwt>
<pdfrwt beam="1">  1        2 0.27047365E+00 0.21413833E+04</pdfrwt>
<pdfrwt beam="2">  1       -2 0.10031761E+00 0.21413833E+04</pdfrwt>
<totfact> 0.68550246E+00</totfact>
</mgrwt>
</event>
<event>
 6    1  0.5040916E-004  0.4558227E+04  0.7818608E-02  0.7900522E-01
         -2   -1    0    0    0  501 -0.00000000000E+00  0.00000000000E+00  0.10997980225E+04  0.10997980225E+04  0.00000000000E+00 0.  1.
          2   -1    0    0  501    0  0.00000000000E+00 -0.00000000000E+00 -0.47230101404E+04  0.47230101404E+04  0.00000000000E+00 0. -1.
         23    2    1    2    0    0 -0.22033126332E+03 -0.20347134128E+04 -0.53397094744E+03  0.21171347360E+04  0.92357890877E+02 0.  0.
         11    1    3    3    0    0 -0.10117350278E+03 -0.67451344858E+03 -0.21245660802E+03  0.71438244678E+03  0.00000000000E+00 0. -1.
        -11    1    3    3    0    0 -0.11915776054E+03 -0.13601999642E+04 -0.32151433941E+03  0.14027522892E+04  0.00000000000E+00 0.  1.
         22    1    1    2    0    0  0.22033126332E+03  0.20347134128E+04 -0.30892411705E+04  0.37056734269E+04  0.00000000000E+00 0.  1.
<mgrwt>
<rscale>  0 0.45582265E+04</rscale>
<asrwt>0</asrwt>
<pdfrwt beam="1">  1        2 0.72661692E+00 0.45582265E+04</pdfrwt>
<pdfrwt beam="2">  1       -2 0.16919970E+00 0.45582265E+04</pdfrwt>
<totfact> 0.11667870E-02</totfact>
</mgrwt>
</event>
<event>
 6    1  0.5040916E-004  0.4782191E+04  0.7818608E-02  0.7863014E-01
          2   -1    0    0  501    0  0.00000000000E+00  0.00000000000E+00  0.20284106749E+04  0.20284106749E+04  0.00000000000E+00 0.  1.
         -2   -1    0    0    0  501 -0.00000000000E+00 -0.00000000000E+00 -0.28186287022E+04  0.28186287022E+04  0.00000000000E+00 0. -1.
         23    2    1    2    0    0 -0.18940072935E+04  0.55623970724E+03 -0.17612968569E+04  0.26471165754E+04  0.91614988332E+02 0.  0.
         11    1    3    3    0    0 -0.90992418096E+03  0.30109111963E+03 -0.89795586759E+03  0.13133707083E+04  0.00000000000E+00 0.  1.
        -11    1    3    3    0    0 -0.98408311255E+03  0.25514858762E+03 -0.86334098930E+03  0.13337458671E+04  0.00000000000E+00 0. -1.
         22    1    1    2    0    0  0.18940072935E+04 -0.55623970724E+03  0.97107882963E+03  0.21999228016E+04  0.00000000000E+00 0.  1.
<mgrwt>
<rscale>  0 0.47821905E+04</rscale>
<asrwt>0</asrwt>
<pdfrwt beam="1">  1        2 0.31206318E+00 0.47821905E+04</pdfrwt>
<pdfrwt beam="2">  1       -2 0.43363518E+00 0.47821905E+04</pdfrwt>
<totfact> 0.21285762E-02</totfact>
</mgrwt>
</event>
<event>
 6    1  0.5040916E-004  0.2024771E+04  0.7818608E-02  0.8595126E-01
         -2   -1    0    0    0  501 -0.00000000000E+00  0.00000000000E+00  0.64147410501E+03  0.64147410501E+03  0.00000000000E+00 0. -1.
          2   -1    0    0  501    0  0.00000000000E+00 -0.00000000000E+00 -0.15977638315E+04  0.15977638315E+04  0.00000000000E+00 0.  1.
         23    2    1    2    0    0 -0.37439274419E+03 -0.69613617916E+03  0.21683489338E+03  0.82467196754E+03  0.91054797901E+02 0.  0.
         13    1    3    3    0    0 -0.25420173287E+03 -0.47239299703E+03  0.19076750798E+03  0.56935569439E+03  0.00000000000E+00 0.  1.
        -13    1    3    3    0    0 -0.12019101132E+03 -0.22374318214E+03  0.26067385401E+02  0.25531627315E+03  0.00000000000E+00 0. -1.
         22    1    1    2    0    0  0.37439274419E+03  0.69613617916E+03 -0.11731246199E+04  0.14145659690E+04  0.00000000000E+00 0.  1.
<mgrwt>
<rscale>  0 0.20247707E+04</rscale>
<asrwt>0</asrwt>
<pdfrwt beam="1">  1        2 0.24580982E+00 0.20247707E+04</pdfrwt>
<pdfrwt beam="2">  1       -2 0.98688326E-01 0.20247707E+04</pdfrwt>
<totfact> 0.88379981E+00</totfact>
</mgrwt>
</event>
<event>
 6    1  0.5040916E-004  0.7035504E+03  0.7818608E-02  0.9711180E-01
         -2   -1    0    0    0  501 -0.00000000000E+00  0.00000000000E+00  0.45639830022E+03  0.45639830022E+03  0.00000000000E+00 0. -1.
          2   -1    0    0  501    0  0.00000000000E+00 -0.00000000000E+00 -0.27113553685E+03  0.27113553685E+03  0.00000000000E+00 0.  1.
         23    2    1    2    0    0  0.16512687324E+03  0.18836056529E+02  0.40704082490E+03  0.45039273606E+03  0.97722578075E+02 0.  0.
         13    1    3    3    0    0  0.13206260857E+03  0.54784722330E+02  0.32218812441E+03  0.35248700103E+03  0.00000000000E+00 0. -1.
        -13    1    3    3    0    0  0.33064264662E+02 -0.35948665800E+02  0.84852700498E+02  0.97905735033E+02  0.00000000000E+00 0.  1.
         22    1    1    2    0    0 -0.16512687324E+03 -0.18836056529E+02 -0.22177806153E+03  0.27714110101E+03  0.00000000000E+00 0.  1.
<mgrwt>
<rscale>  0 0.70355042E+03</rscale>
<asrwt>0</asrwt>
<pdfrwt beam="1">  1        2 0.41713160E-01 0.70355042E+03</pdfrwt>
<pdfrwt beam="2">  1       -2 0.70215123E-01 0.70355042E+03</pdfrwt>
<totfact> 0.22918293E+02</totfact>
</mgrwt>
</event>
<event>
 6    1  0.5040916E-004  0.2514627E+04  0.7818608E-02  0.8397793E-01
          2   -1    0    0  501    0  0.00000000000E+00  0.00000000000E+00  0.55535423603E+03  0.55535423603E+03  0.00000000000E+00 0.  1.
         -2   -1    0    0    0  501 -0.00000000000E+00 -0.00000000000E+00 -0.28465394424E+04  0.28465394424E+04  0.00000000000E+00 0. -1.
         23    2    1    2    0    0 -0.26100642129E+03 -0.87727061859E+03 -0.23104382001E+04  0.24864163341E+04  0.80083830870E+02 0.  0.
         11    1    3    3    0    0 -0.17770654415E+03 -0.70783897773E+03 -0.18162756014E+04  0.19574147988E+04  0.00000000000E+00 0. -1.
        -11    1    3    3    0    0 -0.83299877141E+02 -0.16943164086E+03 -0.49416259863E+03  0.52900153529E+03  0.00000000000E+00 0.  1.
         22    1    1    2    0    0  0.26100642129E+03  0.87727061859E+03  0.19252993714E+02  0.91547734432E+03  0.00000000000E+00 0.  1.
<mgrwt>
<rscale>  0 0.25146274E+04</rscale>
<asrwt>0</asrwt>
<pdfrwt beam="1">  1        2 0.85439112E-01 0.25146274E+04</pdfrwt>
<pdfrwt beam="2">  1       -2 0.43792915E+00 0.25146274E+04</pdfrwt>
<totfact> 0.20215864E-01</totfact>
</mgrwt>
</event>
<event>
 6    1  0.5040916E-004  0.1087860E+04  0.7818608E-02  0.9217106E-01
         -2   -1    0    0    0  501 -0.00000000000E+00  0.00000000000E+00  0.58451166272E+03  0.58451166272E+03  0.00000000000E+00 0. -1.
          2   -1    0    0  501    0  0.00000000000E+00 -0.00000000000E+00 -0.50616572366E+03  0.50616572366E+03  0.00000000000E+00 0.  1.
         23    2    1    2    0    0  0.32752941617E+03 -0.22726134618E+03  0.40494919385E+03  0.57532030245E+03  0.89924206320E+02 0.  0.
         11    1    3    3    0    0  0.26668826550E+03 -0.16866301274E+03  0.36309426715E+03  0.48104811574E+03  0.00000000000E+00 0. -1.
        -11    1    3    3    0    0  0.60841150671E+02 -0.58598333445E+02  0.41854926704E+02  0.94272186709E+02  0.00000000000E+00 0.  1.
         22    1    1    2    0    0 -0.32752941617E+03  0.22726134618E+03 -0.32660325479E+03  0.51535708394E+03  0.00000000000E+00 0. -1.
<mgrwt>
<rscale>  0 0.10878599E+04</rscale>
<asrwt>0</asrwt>
<pdfrwt beam="1">  1        2 0.77871650E-01 0.10878599E+04</pdfrwt>
<pdfrwt beam="2">  1       -2 0.89924871E-01 0.10878599E+04</pdfrwt>
<totfact> 0.63896870E+01</totfact>
</mgrwt>
</event>
<event>
 6    1  0.5040916E-004  0.2443621E+04  0.7818608E-02  0.8423351E-01
         -1   -1    0    0    0  501 -0.00000000000E+00  0.00000000000E+00  0.12739154246E+04  0.12739154246E+04  0.00000000000E+00 0. -1.
          1   -1    0    0  501    0  0.00000000000E+00 -0.00000000000E+00 -0.11718369640E+04  0.11718369640E+04  0.00000000000E+00 0.  1.
         23    2    1    2    0    0 -0.55121962345E+03  0.68740782380E+03  0.89582763352E+03  0.12598306631E+04  0.91068991478E+02 0.  0.
         11    1    3    3    0    0 -0.36232003404E+03  0.44213851663E+03  0.51847556252E+03  0.77173776886E+03  0.00000000000E+00 0. -1.
        -11    1    3    3    0    0 -0.18889958941E+03  0.24526930717E+03  0.37735207100E+03  0.48809289424E+03  0.00000000000E+00 0.  1.
         22    1    1    2    0    0  0.55121962345E+03 -0.68740782380E+03 -0.79374917286E+03  0.11859217255E+04  0.00000000000E+00 0.  1.
<mgrwt>
<rscale>  0 0.24436212E+04</rscale>
<asrwt>0</asrwt>
<pdfrwt beam="1">  1        1 0.18028261E+00 0.24436212E+04</pdfrwt>
<pdfrwt beam="2">  1       -1 0.19598699E+00 0.24436212E+04</pdfrwt>
<totfact> 0.16054774E+00</totfact>
</mgrwt>
</event>
<event>
 6    1  0.5040916E-004  0.4649438E+04  0.7818608E-02  0.7884984E-01
         -2   -1    0    0    0  501 -0.00000000000E+00  0.00000000000E+00  0.17225128868E+04  0.17225128868E+04  0.00000000000E+00 0. -1.
          2   -1    0    0  501    0  0.00000000000E+00 -0.00000000000E+00 -0.31374617476E+04  0.31374617476E+04  0.00000000000E+00 0.  1.
         23    2    1    2    0    0  0.18032565673E+04  0.11432857164E+04 -0.16665683256E+04  0.27100563029E+04  0.90103853019E+02 0.  0.
         13    1    3    3    0    0  0.11257074326E+04  0.66428733955E+03 -0.10366789213E+04  0.16682919646E+04  0.00000000000E+00 0.  1.
        -13    1    3    3    0    0  0.67754913471E+03  0.47899837687E+03 -0.62988940427E+03  0.10417643383E+04  0.00000000000E+00 0. -1.
         22    1    1    2    0    0 -0.18032565673E+04 -0.11432857164E+04  0.25161946476E+03  0.21499183315E+04  0.00000000000E+00 0.  1.
<mgrwt>
<rscale>  0 0.46494379E+04</rscale>
<asrwt>0</asrwt>
<pdfrwt beam="1">  1        2 0.48268642E+00 0.46494379E+04</pdfrwt>
<pdfrwt beam="2">  1       -2 0.26500198E+00 0.46494379E+04</pdfrwt>
<totfact> 0.55378349E-02</totfact>
</mgrwt>
</event>
<event>
 6    1  0.5040916E-004  0.1417555E+04  0.7818608E-02  0.8941208E-01
          2   -1    0    0  501    0  0.00000000000E+00  0.00000000000E+00  0.23047878304E+04  0.23047878304E+04  0.00000000000E+00 0.  1.
         -2   -1    0    0    0  501 -0.00000000000E+00 -0.00000000000E+00 -0.21796612421E+03  0.21796612421E+03  0.00000000000E+00 0. -1.
         23    2    1    2    0    0  0.13357176378E+03  0.67977617051E+03  0.12885295582E+04  0.14657736276E+04  0.90812152181E+02 0.  0.
         13    1    3    3    0    0  0.11190934971E+03  0.37610327008E+03  0.67217103171E+03  0.77832593955E+03  0.00000000000E+00 0. -1.
        -13    1    3    3    0    0  0.21662414065E+02  0.30367290044E+03  0.61635852649E+03  0.68744768806E+03  0.00000000000E+00 0.  1.
         22    1    1    2    0    0 -0.13357176378E+03 -0.67977617051E+03  0.79829214795E+03  0.10569803269E+04  0.00000000000E+00 0. -1.
<mgrwt>
<rscale>  0 0.14175552E+04</rscale>
<asrwt>0</asrwt>
<pdfrwt beam="1">  1        2 0.35458273E+00 0.14175552E+04</pdfrwt>
<pdfrwt beam="2">  1       -2 0.33533252E-01 0.14175552E+04</pdfrwt>
<totfact> 0.36483063E+01</totfact>
</mgrwt>
</event>
<event>
 6    1  0.5040916E-004  0.1747058E+04  0.7818608E-02  0.8734971E-01
          2   -1    0    0  501    0  0.00000000000E+00  0.00000000000E+00  0.95745226815E+03  0.95745226815E+03  0.00000000000E+00 0.  1.
         -2   -1    0    0    0  501 -0.00000000000E+00 -0.00000000000E+00 -0.79696212577E+03  0.79696212577E+03  0.00000000000E+00 0. -1.
         23    2    1    2    0    0 -0.24776783143E+03  0.82627305872E+03  0.20591971461E+03  0.89059733465E+03  0.81514524907E+02 0.  0.
         11    1    3    3    0    0 -0.18632908285E+03  0.49579640340E+03  0.14302864577E+03  0.54862536785E+03  0.00000000000E+00 0.  1.
        -11    1    3    3    0    0 -0.61438748576E+02  0.33047665532E+03  0.62891068839E+02  0.34197196680E+03  0.00000000000E+00 0. -1.
         22    1    1    2    0    0  0.24776783143E+03 -0.82627305872E+03 -0.45429572237E+02  0.86381705927E+03  0.00000000000E+00 0. -1.
<mgrwt>
<rscale>  0 0.17470583E+04</rscale>
<asrwt>0</asrwt>
<pdfrwt beam="1">  1        2 0.14730035E+00 0.17470583E+04</pdfrwt>
<pdfrwt beam="2">  1       -2 0.12260956E+00 0.17470583E+04</pdfrwt>
<totfact> 0.12808233E+01</totfact>
</mgrwt>
</event>
<event>
 6    1  0.5040916E-004  0.2783444E+04  0.7818608E-02  0.8308427E-01
          2   -1    0    0  501    0  0.00000000000E+00  0.00000000000E+00  0.11388112663E+04  0.11388112663E+04  0.00000000000E+00 0.  1.
         -2   -1    0    0    0  501 -0.00000000000E+00 -0.00000000000E+00 -0.17008003194E+04  0.17008003194E+04  0.00000000000E+00 0. -1.
         23    2    1    2    0    0 -0.12903885365E+04  0.29159818914E+03 -0.71725611636E+03  0.15076056023E+04  0.91028768738E+02 0.  0.
         11    1    3    3    0    0 -0.47976103402E+03  0.79877716136E+02 -0.22514128549E+03  0.53594747665E+03  0.00000000000E+00 0.  1.
        -11    1    3    3    0    0 -0.81062750243E+03  0.21172047301E+03 -0.49211483087E+03  0.97165812566E+03  0.00000000000E+00 0. -1.
         22    1    1    2    0    0  0.12903885365E+04 -0.29159818914E+03  0.15526706318E+03  0.13320059834E+04  0.00000000000E+00 0.  1.
<mgrwt>
<rscale>  0 0.27834443E+04</rscale>
<asrwt>0</asrwt>
<pdfrwt beam="1">  1        2 0.17520173E+00 0.27834443E+04</pdfrwt>
<pdfrwt beam="2">  1       -2 0.26166159E+00 0.27834443E+04</pdfrwt>
<totfact> 0.97935722E-01</totfact>
</mgrwt>
</event>
<event>
 6    1  0.5040916E-004  0.4748754E+04  0.7818608E-02  0.7868478E-01
         -2   -1    0    0    0  501 -0.00000000000E+00  0.00000000000E+00  0.20233220739E+04  0.20233220739E+04  0.00000000000E+00 0. -1.
          2   -1    0    0  501    0  0.00000000000E+00 -0.00000000000E+00 -0.27863419730E+04  0.27863419730E+04  0.00000000000E+00 0.  1.
         23    2    1    2    0    0  0.19450584125E+03 -0.46468545844E+03 -0.27307932646E+04  0.27784336031E+04  0.93254145166E+02 0.  0.
         13    1    3    3    0    0  0.21169354539E+02 -0.69226125503E+02 -0.59856185694E+03  0.60292345667E+03  0.00000000000E+00 0.  1.
        -13    1    3    3    0    0  0.17333648671E+03 -0.39545933293E+03 -0.21322314077E+04  0.21755101465E+04  0.00000000000E+00 0. -1.
         22    1    1    2    0    0 -0.19450584125E+03  0.46468545844E+03  0.19677733655E+04  0.20312304437E+04  0.00000000000E+00 0. -1.
<mgrwt>
<rscale>  0 0.47487545E+04</rscale>
<asrwt>0</asrwt>
<pdfrwt beam="1">  1        2 0.42866799E+00 0.47487545E+04</pdfrwt>
<pdfrwt beam="2">  1       -2 0.31128032E+00 0.47487545E+04</pdfrwt>
<totfact> 0.47424999E-02</totfact>
</mgrwt>
</event>
<event>
 6    1  0.5040916E-004  0.1615092E+04  0.7818608E-02  0.8811330E-01
         -2   -1    0    0    0  501 -0.00000000000E+00  0.00000000000E+00  0.29439342491E+03  0.29439342491E+03  0.00000000000E+00 0. -1.
          2   -1    0    0  501    0  0.00000000000E+00 -0.00000000000E+00 -0.22151670746E+04  0.22151670746E+04  0.00000000000E+00 0.  1.
         23    2    1    2    0    0 -0.73971267908E+03 -0.31752545198E+03 -0.96215643938E+03  0.12577840753E+04  0.90986295825E+02 0.  0.
         13    1    3    3    0    0 -0.52911794883E+03 -0.22555990137E+03 -0.62103735937E+03  0.84648123111E+03  0.00000000000E+00 0. -1.
        -13    1    3    3    0    0 -0.21059473025E+03 -0.91965550610E+02 -0.34111908001E+03  0.41130284421E+03  0.00000000000E+00 0.  1.
         22    1    1    2    0    0  0.73971267908E+03  0.31752545198E+03 -0.95861721030E+03  0.12517764242E+04  0.00000000000E+00 0. -1.
<mgrwt>
<rscale>  0 0.16150921E+04</rscale>
<asrwt>0</asrwt>
<pdfrwt beam="1">  1        2 0.34079493E+00 0.16150921E+04</pdfrwt>
<pdfrwt beam="2">  1       -2 0.45291297E-01 0.16150921E+04</pdfrwt>
<totfact> 0.22437682E+01</totfact>
</mgrwt>
</event>
<event>
 6    1  0.5040916E-004  0.1996597E+04  0.7818608E-02  0.8608213E-01
         -1   -1    0    0    0  501 -0.00000000000E+00  0.00000000000E+00  0.73306991456E+03  0.73306991456E+03  0.00000000000E+00 0. -1.
          1   -1    0    0  501    0  0.00000000000E+00 -0.00000000000E+00 -0.13594883356E+04  0.13594883356E+04  0.00000000000E+00 0.  1.
         23    2    1    2    0    0 -0.13149731731E+03  0.57453358666E+03  0.52788933988E+03  0.79648464363E+03  0.91324945743E+02 0.  0.
         13    1    3    3    0    0 -0.10468258647E+03  0.25389818859E+03  0.24748398063E+03  0.36969048506E+03  0.00000000000E+00 0. -1.
        -13    1    3    3    0    0 -0.26814730835E+02  0.32063539807E+03  0.28040535925E+03  0.42679415856E+03  0.00000000000E+00 0.  1.
         22    1    1    2    0    0  0.13149731731E+03 -0.57453358666E+03 -0.11543077609E+04  0.12960736066E+04  0.00000000000E+00 0.  1.
<mgrwt>
<rscale>  0 0.19965971E+04</rscale>
<asrwt>0</asrwt>
<pdfrwt beam="1">  1        1 0.20915205E+00 0.19965971E+04</pdfrwt>
<pdfrwt beam="2">  1       -1 0.11277999E+00 0.19965971E+04</pdfrwt>
<totfact> 0.54762501E+00</totfact>
</mgrwt>
</event>
<event>
 6    1  0.5040916E-004  0.3366910E+04  0.7818608E-02  0.8146076E-01
         -2   -1    0    0    0  501 -0.00000000000E+00  0.00000000000E+00  0.20544722850E+04  0.20544722850E+04  0.00000000000E+00 0. -1.
          2   -1    0    0  501    0  0.00000000000E+00 -0.00000000000E+00 -0.13794395967E+04  0.13794395967E+04  0.00000000000E+00 0.  1.
         23    2    1    2    0    0  0.93804328117E+03  0.10510565174E+04 -0.60000226191E+03  0.15338173776E+04  0.89151744614E+02 0.  0.
         11    1    3    3    0    0  0.39076014987E+03  0.38041029292E+03 -0.25429391457E+03  0.60172325921E+03  0.00000000000E+00 0.  1.
        -11    1    3    3    0    0  0.54728313130E+03  0.67064622444E+03 -0.34570834734E+03  0.93209411842E+03  0.00000000000E+00 0. -1.
         22    1    1    2    0    0 -0.93804328117E+03 -0.10510565174E+04  0.12750349502E+04  0.19000945041E+04  0.00000000000E+00 0. -1.
<mgrwt>
<rscale>  0 0.33669098E+04</rscale>
<asrwt>0</asrwt>
<pdfrwt beam="1">  1        2 0.21222148E+00 0.33669098E+04</pdfrwt>
<pdfrwt beam="2">  1       -2 0.31607266E+00 0.33669098E+04</pdfrwt>
<totfact> 0.31266248E-01</totfact>
</mgrwt>
</event>
<event>
 6    1  0.5040916E-004  0.1238617E+04  0.7818608E-02  0.9079711E-01
         -2   -1    0    0    0  501 -0.00000000000E+00  0.00000000000E+00  0.18230386480E+04  0.18230386480E+04  0.00000000000E+00 0. -1.
          2   -1    0    0  501    0  0.00000000000E+00 -0.00000000000E+00 -0.21038673060E+03  0.21038673060E+03  0.00000000000E+00 0.  1.
         23    2    1    2    0    0  0.26259344142E+03 -0.42196143462E+03  0.14064672042E+04  0.14953557700E+04  0.10455675211E+03 0.  0.
         13    1    3    3    0    0  0.12704824598E+03 -0.13996830945E+03  0.42292169349E+03  0.46324415083E+03  0.00000000000E+00 0. -1.
        -13    1    3    3    0    0  0.13554519544E+03 -0.28199312517E+03  0.98354551075E+03  0.10321116191E+04  0.00000000000E+00 0.  1.
         22    1    1    2    0    0 -0.26259344142E+03  0.42196143462E+03  0.20618471314E+03  0.53806960861E+03  0.00000000000E+00 0.  1.
<mgrwt>
<rscale>  0 0.12386172E+04</rscale>
<asrwt>0</asrwt>
<pdfrwt beam="1">  1        2 0.32367191E-01 0.12386172E+04</pdfrwt>
<pdfrwt beam="2">  1       -2 0.28046747E+00 0.12386172E+04</pdfrwt>
<totfact> 0.67649042E+00</totfact>
</mgrwt>
</event>
<event>
 6    1  0.5040916E-004  0.4562710E+04  0.7818608E-02  0.7899749E-01
          2   -1    0    0  501    0  0.00000000000E+00  0.00000000000E+00  0.27751757304E+04  0.27751757304E+04  0.00000000000E+00 0.  1.
         -2   -1    0    0    0  501 -0.00000000000E+00 -0.00000000000E+00 -0.18754060984E+04  0.18754060984E+04  0.00000000000E+00 0. -1.
         23    2    1    2    0    0  0.73073798922E+03  0.14106557276E+04 -0.12171842916E+04  0.20038061478E+04  0.98862973345E+02 0.  0.
         11    1    3    3    0    0  0.14821037590E+03  0.37532066563E+03 -0.29258535516E+03  0.49843566047E+03  0.00000000000E+00 0. -1.
        -11    1    3    3    0    0  0.58252761332E+03  0.10353350620E+04 -0.92459893645E+03  0.15053704873E+04  0.00000000000E+00 0.  1.
         22    1    1    2    0    0 -0.73073798922E+03 -0.14106557276E+04  0.21169539236E+04  0.26467756810E+04  0.00000000000E+00 0.  1.
<mgrwt>
<rscale>  0 0.45627104E+04</rscale>
<asrwt>0</asrwt>
<pdfrwt beam="1">  1        2 0.42695011E+00 0.45627104E+04</pdfrwt>
<pdfrwt beam="2">  1       -2 0.28852401E+00 0.45627104E+04</pdfrwt>
<totfact> 0.67401672E-02</totfact>
</mgrwt>
</event>
<event>
 6    1  0.5040916E-004  0.2761899E+04  0.7818608E-02  0.8315196E-01
          2   -1    0    0  501    0  0.00000000000E+00  0.00000000000E+00  0.24441052612E+04  0.24441052612E+04  0.00000000000E+00 0.  1.
         -2   -1    0    0    0  501 -0.00000000000E+00 -0.00000000000E+00 -0.78025348308E+03  0.78025348308E+03  0.00000000000E+00 0. -1.
         23    2    1    2    0    0 -0.56542803585E+03 -0.12522608825E+04  0.68854331654E+03  0.15393979802E+04  0.88249992041E+02 0.  0.
         13    1    3    3    0    0 -0.32789769548E+03 -0.79739963700E+03  0.46615160606E+03  0.98013284794E+03  0.00000000000E+00 0.  1.
        -13    1    3    3    0    0 -0.23753034037E+03 -0.45486124546E+03  0.22239171048E+03  0.55926513221E+03  0.00000000000E+00 0. -1.
         22    1    1    2    0    0  0.56542803585E+03  0.12522608825E+04  0.97530846161E+03  0.16849607642E+04  0.00000000000E+00 0.  1.
<mgrwt>
<rscale>  0 0.27618991E+04</rscale>
<asrwt>0</asrwt>
<pdfrwt beam="1">  1        2 0.37601619E+00 0.27618991E+04</pdfrwt>
<pdfrwt beam="2">  1       -2 0.12003900E+00 0.27618991E+04</pdfrwt>
<totfact> 0.17363788E+00</totfact>
</mgrwt>
</event>
<event>
 6    1  0.5040916E-004  0.2226837E+04  0.7818608E-02  0.8507340E-01
         -2   -1    0    0    0  501 -0.00000000000E+00  0.00000000000E+00  0.75858803490E+03  0.75858803490E+03  0.00000000000E+00 0. -1.
          2   -1    0    0  501    0  0.00000000000E+00 -0.00000000000E+00 -0.16342217827E+04  0.16342217827E+04  0.00000000000E+00 0.  1.
         23    2    1    2    0    0  0.84273896148E+03  0.58961600793E+03  0.14335342265E+02  0.10326991694E+04  0.91684668857E+02 0.  0.
         11    1    3    3    0    0  0.22983338549E+03  0.17335232907E+03  0.43926866141E+02  0.29121123716E+03  0.00000000000E+00 0. -1.
        -11    1    3    3    0    0  0.61290557600E+03  0.41626367885E+03 -0.29591523876E+02  0.74148793227E+03  0.00000000000E+00 0.  1.
         22    1    1    2    0    0 -0.84273896148E+03 -0.58961600793E+03 -0.88996909010E+03  0.13601106482E+04  0.00000000000E+00 0.  1.
<mgrwt>
<rscale>  0 0.22268373E+04</rscale>
<asrwt>0</asrwt>
<pdfrwt beam="1">  1        2 0.25141874E+00 0.22268373E+04</pdfrwt>
<pdfrwt beam="2">  1       -2 0.11670585E+00 0.22268373E+04</pdfrwt>
<totfact> 0.55362687E+00</totfact>
</mgrwt>
</event>
<event>
 6    1  0.5040916E-004  0.5217630E+04  0.7818608E-02  0.7795785E-01
          2   -1    0    0  501    0  0.00000000000E+00  0.00000000000E+00  0.33080621273E+04  0.33080621273E+04  0.00000000000E+00 0.  1.
         -2   -1    0    0    0  501 -0.00000000000E+00 -0.00000000000E+00 -0.20573722089E+04  0.20573722089E+04  0.00000000000E+00 0. -1.
         23    2    1    2    0    0 -0.54595253303E+03 -0.23143675709E+04 -0.47599235188E+03  0.24267623430E+04  0.90803790753E+02 0.  0.
         11    1    3    3    0    0 -0.14140880510E+03 -0.45792047293E+03 -0.11267119657E+03  0.49232347926E+03  0.00000000000E+00 0.  1.
        -11    1    3    3    0    0 -0.40454372793E+03 -0.18564470980E+04 -0.36332115531E+03  0.19344388637E+04  0.00000000000E+00 0. -1.
         22    1    1    2    0    0  0.54595253303E+03  0.23143675709E+04  0.17266822702E+04  0.29386719933E+04  0.00000000000E+00 0.  1.
<mgrwt>
<rscale>  0 0.52176298E+04</rscale>
<asrwt>0</asrwt>
<pdfrwt beam="1">  1        2 0.50893264E+00 0.52176298E+04</pdfrwt>
<pdfrwt beam="2">  1       -2 0.31651880E+00 0.52176298E+04</pdfrwt>
<totfact> 0.19780349E-02</totfact>
</mgrwt>
</event>
<event>
 6    1  0.5040916E-004  0.2458230E+04  0.7818608E-02  0.8418019E-01
          2   -1    0    0  501    0  0.00000000000E+00  0.00000000000E+00  0.27605307565E+04  0.27605307565E+04  0.00000000000E+00 0.  1.
         -2   -1    0    0    0  501 -0.00000000000E+00 -0.00000000000E+00 -0.54725844015E+03  0.54725844015E+03  0.00000000000E+00 0. -1.
         23    2    1    2    0    0  0.11956855593E+04 -0.66322596720E+02  0.74608369210E+03  0.14139293542E+04  0.92155844498E+02 0.  0.
         13    1    3    3    0    0  0.92122847825E+03 -0.74991593213E+02  0.61038801261E+03  0.11076367519E+04  0.00000000000E+00 0.  1.
        -13    1    3    3    0    0  0.27445708103E+03  0.86689964927E+01  0.13569567948E+03  0.30629260236E+03  0.00000000000E+00 0. -1.
         22    1    1    2    0    0 -0.11956855593E+04  0.66322596720E+02  0.14671886242E+04  0.18938598424E+04  0.00000000000E+00 0.  1.
<mgrwt>
<rscale>  0 0.24582301E+04</rscale>
<asrwt>0</asrwt>
<pdfrwt beam="1">  1        2 0.42469703E+00 0.24582301E+04</pdfrwt>
<pdfrwt beam="2">  1       -2 0.84193608E-01 0.24582301E+04</pdfrwt>
<totfact> 0.26919428E+00</totfact>
</mgrwt>
</event>
<event>
 6    1  0.5040916E-004  0.3312158E+04  0.7818608E-02  0.8159809E-01
         -2   -1    0    0    0  501 -0.00000000000E+00  0.00000000000E+00  0.81199717908E+03  0.81199717908E+03  0.00000000000E+00 0. -1.
          2   -1    0    0  501    0  0.00000000000E+00 -0.00000000000E+00 -0.33775958417E+04  0.33775958417E+04  0.00000000000E+00 0.  1.
         23    2    1    2    0    0 -0.14469717201E+04  0.69701130933E+03 -0.77952409826E+03  0.17875908823E+04  0.90947339025E+02 0.  0.
         13    1    3    3    0    0 -0.31722109581E+03  0.13656004638E+03 -0.20640734739E+03  0.40234545226E+03  0.00000000000E+00 0.  1.
        -13    1    3    3    0    0 -0.11297506243E+04  0.56045126295E+03 -0.57311675087E+03  0.13852454300E+04  0.00000000000E+00 0. -1.
         22    1    1    2    0    0  0.14469717201E+04 -0.69701130933E+03 -0.17860745644E+04  0.24020021386E+04  0.00000000000E+00 0.  1.
<mgrwt>
<rscale>  0 0.33121584E+04</rscale>
<asrwt>0</asrwt>
<pdfrwt beam="1">  1        2 0.51963012E+00 0.33121584E+04</pdfrwt>
<pdfrwt beam="2">  1       -2 0.12492264E+00 0.33121584E+04</pdfrwt>
<totfact> 0.39519694E-01</totfact>
</mgrwt>
</event>
<event>
 6    1  0.5040916E-004  0.2263281E+04  0.7818608E-02  0.8492541E-01
         -2   -1    0    0    0  501 -0.00000000000E+00  0.00000000000E+00  0.80204836562E+03  0.80204836562E+03  0.00000000000E+00 0. -1.
          2   -1    0    0  501    0  0.00000000000E+00 -0.00000000000E+00 -0.15966748435E+04  0.15966748435E+04  0.00000000000E+00 0.  1.
         23    2    1    2    0    0 -0.79686904561E+03 -0.84807717834E+01  0.45085511773E+03  0.92011014130E+03  0.90885288085E+02 0.  0.
         13    1    3    3    0    0 -0.43612120415E+02  0.13348091156E+02  0.45534357674E+02  0.64448167650E+02  0.00000000000E+00 0.  1.
        -13    1    3    3    0    0 -0.75325692520E+03 -0.21828862940E+02  0.40532076006E+03  0.85566197365E+03  0.00000000000E+00 0. -1.
         22    1    1    2    0    0  0.79686904561E+03  0.84807717834E+01 -0.12454815956E+04  0.14786130678E+04  0.00000000000E+00 0.  1.
<mgrwt>
<rscale>  0 0.22632812E+04</rscale>
<asrwt>0</asrwt>
<pdfrwt beam="1">  1        2 0.24564228E+00 0.22632812E+04</pdfrwt>
<pdfrwt beam="2">  1       -2 0.12339206E+00 0.22632812E+04</pdfrwt>
<totfact> 0.50451531E+00</totfact>
</mgrwt>
</event>
<event>
 6    1  0.5040916E-004  0.3143299E+04  0.7818608E-02  0.8203954E-01
          2   -1    0    0  501    0  0.00000000000E+00  0.00000000000E+00  0.23984422515E+04  0.23984422515E+04  0.00000000000E+00 0.  1.
         -2   -1    0    0    0  501 -0.00000000000E+00 -0.00000000000E+00 -0.10298691951E+04  0.10298691951E+04  0.00000000000E+00 0. -1.
         23    2    1    2    0    0 -0.82914053327E+02  0.55803640453E+03 -0.91345186404E+03  0.10775845151E+04  0.92275187550E+02 0.  0.
         11    1    3    3    0    0  0.16404310810E+02  0.18165206706E+03 -0.29178802872E+03  0.34410293312E+03  0.00000000000E+00 0. -1.
        -11    1    3    3    0    0 -0.99318364138E+02  0.37638433747E+03 -0.62166383532E+03  0.73348158197E+03  0.00000000000E+00 0.  1.
         22    1    1    2    0    0  0.82914053327E+02 -0.55803640453E+03  0.22820249205E+04  0.23507269316E+04  0.00000000000E+00 0.  1.
<mgrwt>
<rscale>  0 0.31432988E+04</rscale>
<asrwt>0</asrwt>
<pdfrwt beam="1">  1        2 0.36899111E+00 0.31432988E+04</pdfrwt>
<pdfrwt beam="2">  1       -2 0.15844142E+00 0.31432988E+04</pdfrwt>
<totfact> 0.87173253E-01</totfact>
</mgrwt>
</event>
<event>
 6    1  0.5040916E-004  0.1415808E+04  0.7818608E-02  0.8942455E-01
         -4   -1    0    0    0  501 -0.00000000000E+00  0.00000000000E+00  0.27830240967E+03  0.27830240967E+03  0.00000000000E+00 0. -1.
          4   -1    0    0  501    0  0.00000000000E+00 -0.00000000000E+00 -0.18006597885E+04  0.18006597885E+04  0.00000000000E+00 0.  1.
         23    2    1    2    0    0 -0.31417288033E+03  0.38187795452E+03 -0.26487414168E+02  0.50347423502E+03  0.90825939810E+02 0.  0.
         13    1    3    3    0    0 -0.23624463185E+03  0.24365491366E+03  0.14152059271E+02  0.33967561557E+03  0.00000000000E+00 0. -1.
        -13    1    3    3    0    0 -0.77928248479E+02  0.13822304085E+03 -0.40639473439E+02  0.16379861946E+03  0.00000000000E+00 0.  1.
         22    1    1    2    0    0  0.31417288033E+03 -0.38187795452E+03 -0.14958699647E+04  0.15754879632E+04  0.00000000000E+00 0.  1.
<mgrwt>
<rscale>  0 0.14158078E+04</rscale>
<asrwt>0</asrwt>
<pdfrwt beam="1">  1        4 0.27702458E+00 0.14158078E+04</pdfrwt>
<pdfrwt beam="2">  1       -4 0.42815757E-01 0.14158078E+04</pdfrwt>
<totfact> 0.44574824E-01</totfact>
</mgrwt>
</event>
<event>
 6    1  0.5040916E-004  0.8807863E+03  0.7818608E-02  0.9449923E-01
          2   -1    0    0  501    0  0.00000000000E+00  0.00000000000E+00  0.12704480986E+04  0.12704480986E+04  0.00000000000E+00 0.  1.
         -2   -1    0    0    0  501 -0.00000000000E+00 -0.00000000000E+00 -0.15265961877E+03  0.15265961877E+03  0.00000000000E+00 0. -1.
         23    2    1    2    0    0 -0.28999551011E+03  0.61442133216E+02  0.49189990451E+02  0.31415539057E+03  0.91659274734E+02 0.  0.
         13    1    3    3    0    0 -0.19182990953E+03 -0.20380876756E+01  0.45659147964E+02  0.19719945686E+03  0.00000000000E+00 0.  1.
        -13    1    3    3    0    0 -0.98165600574E+02  0.63480220892E+02  0.35308424863E+01  0.11695593371E+03  0.00000000000E+00 0. -1.
         22    1    1    2    0    0  0.28999551011E+03 -0.61442133216E+02  0.10685984894E+04  0.11089523268E+04  0.00000000000E+00 0.  1.
<mgrwt>
<rscale>  0 0.88078629E+03</rscale>
<asrwt>0</asrwt>
<pdfrwt beam="1">  1        2 0.19545355E+00 0.88078629E+03</pdfrwt>
<pdfrwt beam="2">  1       -2 0.23486096E-01 0.88078629E+03</pdfrwt>
<totfact> 0.27685970E+02</totfact>
</mgrwt>
</event>
<event>
 6    1  0.5040916E-004  0.7579692E+03  0.7818608E-02  0.9622930E-01
          2   -1    0    0  501    0  0.00000000000E+00  0.00000000000E+00  0.24843761725E+04  0.24843761725E+04  0.00000000000E+00 0.  1.
         -2   -1    0    0    0  501 -0.00000000000E+00 -0.00000000000E+00 -0.57813038018E+02  0.57813038018E+02  0.00000000000E+00 0. -1.
         23    2    1    2    0    0 -0.55377085705E+02 -0.35097023392E+03  0.84533950887E+03  0.92153660094E+03  0.91564703423E+02 0.  0.
         11    1    3    3    0    0 -0.77590026311E+02 -0.23409471810E+03  0.53236570317E+03  0.58671440338E+03  0.00000000000E+00 0. -1.
        -11    1    3    3    0    0  0.22212940606E+02 -0.11687551582E+03  0.31297380570E+03  0.33482219757E+03  0.00000000000E+00 0.  1.
         22    1    1    2    0    0  0.55377085705E+02  0.35097023392E+03  0.15812236256E+04  0.16206526096E+04  0.00000000000E+00 0.  1.
<mgrwt>
<rscale>  0 0.75796922E+03</rscale>
<asrwt>0</asrwt>
<pdfrwt beam="1">  1        2 0.38221164E+00 0.75796922E+03</pdfrwt>
<pdfrwt beam="2">  1       -2 0.88943155E-02 0.75796922E+03</pdfrwt>
<totfact> 0.30581661E+02</totfact>
</mgrwt>
</event>
<event>
 6    1  0.5040916E-004  0.4388219E+04  0.7818608E-02  0.7930504E-01
          2   -1    0    0  501    0  0.00000000000E+00  0.00000000000E+00  0.14670076610E+04  0.14670076610E+04  0.00000000000E+00 0.  1.
         -2   -1    0    0    0  501 -0.00000000000E+00 -0.00000000000E+00 -0.32815891255E+04  0.32815891255E+04  0.00000000000E+00 0. -1.
         23    2    1    2    0    0 -0.23752250207E+03  0.74565536018E+03  0.13093291722E+04  0.15281563631E+04  0.92196169951E+02 0.  0.
         13    1    3    3    0    0 -0.16666196755E+03  0.57732798275E+03  0.93150366163E+03  0.11085047960E+04  0.00000000000E+00 0. -1.
        -13    1    3    3    0    0 -0.70860534518E+02  0.16832737743E+03  0.37782551054E+03  0.41965156708E+03  0.00000000000E+00 0.  1.
         22    1    1    2    0    0  0.23752250207E+03 -0.74565536018E+03 -0.31239106366E+04  0.32204404234E+04  0.00000000000E+00 0. -1.
<mgrwt>
<rscale>  0 0.43882189E+04</rscale>
<asrwt>0</asrwt>
<pdfrwt beam="1">  1        2 0.22569349E+00 0.43882189E+04</pdfrwt>
<pdfrwt beam="2">  1       -2 0.50485987E+00 0.43882189E+04</pdfrwt>
<totfact> 0.15654884E-02</totfact>
</mgrwt>
</event>
<event>
 6    1  0.5040916E-004  0.2843109E+04  0.7818608E-02  0.8290008E-01
          2   -1    0    0  501    0  0.00000000000E+00  0.00000000000E+00  0.20090489799E+04  0.20090489799E+04  0.00000000000E+00 0.  1.
         -2   -1    0    0    0  501 -0.00000000000E+00 -0.00000000000E+00 -0.10058573175E+04  0.10058573175E+04  0.00000000000E+00 0. -1.
         23    2    1    2    0    0 -0.79022706497E+03  0.78435967264E+03  0.14368530242E+04  0.18200250954E+04  0.90916580459E+02 0.  0.
         13    1    3    3    0    0 -0.11527726079E+03  0.16314334432E+03  0.26273199044E+03  0.33004953636E+03  0.00000000000E+00 0. -1.
        -13    1    3    3    0    0 -0.67494980419E+03  0.62121632832E+03  0.11741210337E+04  0.14899755590E+04  0.00000000000E+00 0.  1.
         22    1    1    2    0    0  0.79022706497E+03 -0.78435967264E+03 -0.43366136177E+03  0.11948812020E+04  0.00000000000E+00 0. -1.
<mgrwt>
<rscale>  0 0.28431086E+04</rscale>
<asrwt>0</asrwt>
<pdfrwt beam="1">  1        2 0.30908446E+00 0.28431086E+04</pdfrwt>
<pdfrwt beam="2">  1       -2 0.15474728E+00 0.28431086E+04</pdfrwt>
<totfact> 0.15790505E+00</totfact>
</mgrwt>
</event>
<event>
 6    1  0.8114348E-004  0.2222627E+04  0.7818608E-02  0.8509069E-01
         -2   -1    0    0    0  501 -0.00000000000E+00  0.00000000000E+00  0.89467348146E+03  0.89467348146E+03  0.00000000000E+00 0. -1.
          2   -1    0    0  501    0  0.00000000000E+00 -0.00000000000E+00 -0.13804121056E+04  0.13804121056E+04  0.00000000000E+00 0.  1.
         23    2    1    2    0    0 -0.18280044193E+03 -0.45593656637E+03 -0.12615349219E+04  0.13568513851E+04  0.91000922631E+02 0.  0.
         11    1    3    3    0    0 -0.66310044320E+02 -0.25946256015E+03 -0.60184512971E+03  0.65873773404E+03  0.00000000000E+00 0.  1.
        -11    1    3    3    0    0 -0.11649039761E+03 -0.19647400622E+03 -0.65968979218E+03  0.69811365104E+03  0.00000000000E+00 0. -1.
         22    1    1    2    0    0  0.18280044193E+03  0.45593656637E+03  0.77579629774E+03  0.91823420199E+03  0.00000000000E+00 0. -1.
<mgrwt>
<rscale>  0 0.22226274E+04</rscale>
<asrwt>0</asrwt>
<pdfrwt beam="1">  1        2 0.21237109E+00 0.22226274E+04</pdfrwt>
<pdfrwt beam="2">  1       -2 0.13764207E+00 0.22226274E+04</pdfrwt>
<totfact> 0.50862176E+00</totfact>
</mgrwt>
</event>
<event>
 6    1  0.5040916E-004  0.6833598E+03  0.7818608E-02  0.9746120E-01
          2   -1    0    0  501    0  0.00000000000E+00  0.00000000000E+00  0.27868174154E+04  0.27868174154E+04  0.00000000000E+00 0.  1.
         -2   -1    0    0    0  501 -0.00000000000E+00 -0.00000000000E+00 -0.41891927325E+02  0.41891927325E+02  0.00000000000E+00 0. -1.
         23    2    1    2    0    0 -0.10294423655E+03 -0.30788732136E+03  0.17493906256E+04  0.17815790829E+04  0.90908467411E+02 0.  0.
         11    1    3    3    0    0 -0.56533491850E+02 -0.19108461180E+03  0.82724149325E+03  0.85090413839E+03  0.00000000000E+00 0. -1.
        -11    1    3    3    0    0 -0.46410744702E+02 -0.11680270956E+03  0.92214913230E+03  0.93067494453E+03  0.00000000000E+00 0.  1.
         22    1    1    2    0    0  0.10294423655E+03  0.30788732136E+03  0.99553486255E+03  0.10471302598E+04  0.00000000000E+00 0.  1.
<mgrwt>
<rscale>  0 0.68335980E+03</rscale>
<asrwt>0</asrwt>
<pdfrwt beam="1">  1        2 0.42874099E+00 0.68335980E+03</pdfrwt>
<pdfrwt beam="2">  1       -2 0.64449141E-02 0.68335980E+03</pdfrwt>
<totfact> 0.34458335E+02</totfact>
</mgrwt>
</event>
<event>
 6    1  0.5040916E-004  0.1616092E+04  0.7818608E-02  0.8810722E-01
         -2   -1    0    0    0  501 -0.00000000000E+00  0.00000000000E+00  0.16860031359E+04  0.16860031359E+04  0.00000000000E+00 0. -1.
          2   -1    0    0  501    0  0.00000000000E+00 -0.00000000000E+00 -0.38727011879E+03  0.38727011879E+03  0.00000000000E+00 0.  1.
         23    2    1    2    0    0 -0.33855815816E+03  0.28411659661E+03 -0.21258703465E+03  0.49865197777E+03  0.90092622920E+02 0.  0.
         11    1    3    3    0    0 -0.30921409164E+03  0.23877717966E+03 -0.21232249333E+03  0.44464450651E+03  0.00000000000E+00 0.  1.
        -11    1    3    3    0    0 -0.29344066515E+02  0.45339416954E+02 -0.26454131716E+00  0.54007471256E+02  0.00000000000E+00 0. -1.
         22    1    1    2    0    0  0.33855815816E+03 -0.28411659661E+03  0.15113200518E+04  0.15746212770E+04  0.00000000000E+00 0. -1.
<mgrwt>
<rscale>  0 0.16160924E+04</rscale>
<asrwt>0</asrwt>
<pdfrwt beam="1">  1        2 0.59580019E-01 0.16160924E+04</pdfrwt>
<pdfrwt beam="2">  1       -2 0.25938509E+00 0.16160924E+04</pdfrwt>
<totfact> 0.44483987E+00</totfact>
</mgrwt>
</event>
<event>
 6    1  0.5040916E-004  0.1105115E+04  0.7818608E-02  0.9200221E-01
          2   -1    0    0  501    0  0.00000000000E+00  0.00000000000E+00  0.10947504407E+04  0.10947504407E+04  0.00000000000E+00 0.  1.
         -2   -1    0    0    0  501 -0.00000000000E+00 -0.00000000000E+00 -0.27889437216E+03  0.27889437216E+03  0.00000000000E+00 0. -1.
         23    2    1    2    0    0  0.13744011229E+03  0.40957185702E+03 -0.10312836383E+02  0.44133909584E+03  0.89637895977E+02 0.  0.
         13    1    3    3    0    0  0.96673567415E+02  0.33522897284E+03 -0.40734523041E+02  0.35125993827E+03  0.00000000000E+00 0.  1.
        -13    1    3    3    0    0  0.40766544873E+02  0.74342884177E+02  0.30421686658E+02  0.90079157566E+02  0.00000000000E+00 0. -1.
         22    1    1    2    0    0 -0.13744011229E+03 -0.40957185702E+03  0.82616890490E+03  0.93230571700E+03  0.00000000000E+00 0.  1.
<mgrwt>
<rscale>  0 0.11051149E+04</rscale>
<asrwt>0</asrwt>
<pdfrwt beam="1">  1        2 0.16842314E+00 0.11051149E+04</pdfrwt>
<pdfrwt beam="2">  1       -2 0.42906827E-01 0.11051149E+04</pdfrwt>
<totfact> 0.11212749E+02</totfact>
</mgrwt>
</event>
<event>
 6    1  0.5040916E-004  0.2475080E+04  0.7818608E-02  0.8411918E-01
         -2   -1    0    0    0  501 -0.00000000000E+00  0.00000000000E+00  0.62939272162E+03  0.62939272162E+03  0.00000000000E+00 0. -1.
          2   -1    0    0  501    0  0.00000000000E+00 -0.00000000000E+00 -0.24333064613E+04  0.24333064613E+04  0.00000000000E+00 0.  1.
         23    2    1    2    0    0  0.14467486640E+03  0.50801137305E+03 -0.22860700460E+04  0.23475201313E+04  0.75684474277E+02 0.  0.
         13    1    3    3    0    0  0.10267246877E+03  0.25257969930E+03 -0.12762781819E+04  0.13050762959E+04  0.00000000000E+00 0. -1.
        -13    1    3    3    0    0  0.42002397634E+02  0.25543167376E+03 -0.10097918641E+04  0.10424438355E+04  0.00000000000E+00 0.  1.
         22    1    1    2    0    0 -0.14467486640E+03 -0.50801137305E+03  0.48215630632E+03  0.71517905160E+03  0.00000000000E+00 0. -1.
<mgrwt>
<rscale>  0 0.24750801E+04</rscale>
<asrwt>0</asrwt>
<pdfrwt beam="1">  1        2 0.37435484E+00 0.24750801E+04</pdfrwt>
<pdfrwt beam="2">  1       -2 0.96829650E-01 0.24750801E+04</pdfrwt>
<totfact> 0.30295308E+00</totfact>
</mgrwt>
</event>
<event>
 6    1  0.8208744E-004  0.4000582E+04  0.7818608E-02  0.8004429E-01
         -2   -1    0    0    0  501 -0.00000000000E+00  0.00000000000E+00  0.18246299264E+04  0.18246299264E+04  0.00000000000E+00 0. -1.
          2   -1    0    0  501    0  0.00000000000E+00 -0.00000000000E+00 -0.21928635808E+04  0.21928635808E+04  0.00000000000E+00 0.  1.
         23    2    1    2    0    0 -0.75881566087E+03 -0.67492481988E+03  0.15451881327E+04  0.18512738381E+04  0.91015045189E+02 0.  0.
         13    1    3    3    0    0 -0.30932295331E+03 -0.33544247014E+03  0.68409227435E+03  0.82230443270E+03  0.00000000000E+00 0. -1.
        -13    1    3    3    0    0 -0.44949270756E+03 -0.33948234975E+03  0.86109585834E+03  0.10289694054E+04  0.00000000000E+00 0.  1.
         22    1    1    2    0    0  0.75881566087E+03  0.67492481988E+03 -0.19134217871E+04  0.21662196692E+04  0.00000000000E+00 0.  1.
<mgrwt>
<rscale>  0 0.40005822E+04</rscale>
<asrwt>0</asrwt>
<pdfrwt beam="1">  1        2 0.33736363E+00 0.40005822E+04</pdfrwt>
<pdfrwt beam="2">  1       -2 0.28071230E+00 0.40005822E+04</pdfrwt>
<totfact> 0.17142441E-01</totfact>
</mgrwt>
</event>
<event>
 6    1  0.5040916E-004  0.5028599E+04  0.7818608E-02  0.7824111E-01
         -2   -1    0    0    0  501 -0.00000000000E+00  0.00000000000E+00  0.18556001593E+04  0.18556001593E+04  0.00000000000E+00 0. -1.
          2   -1    0    0  501    0  0.00000000000E+00 -0.00000000000E+00 -0.34068238139E+04  0.34068238139E+04  0.00000000000E+00 0.  1.
         23    2    1    2    0    0  0.19162198420E+04  0.67996080664E+02 -0.24765543257E+04  0.31333963077E+04  0.91264137458E+02 0.  0.
         11    1    3    3    0    0  0.10341880911E+03 -0.14198929914E+02 -0.11840275673E+03  0.15784889132E+03  0.00000000000E+00 0. -1.
        -11    1    3    3    0    0  0.18128010329E+04  0.82195010577E+02 -0.23581515690E+04  0.29755474163E+04  0.00000000000E+00 0.  1.
         22    1    1    2    0    0 -0.19162198420E+04 -0.67996080664E+02  0.92533067108E+03  0.21290276656E+04  0.00000000000E+00 0. -1.
<mgrwt>
<rscale>  0 0.50285993E+04</rscale>
<asrwt>0</asrwt>
<pdfrwt beam="1">  1        2 0.52412674E+00 0.50285993E+04</pdfrwt>
<pdfrwt beam="2">  1       -2 0.28547695E+00 0.50285993E+04</pdfrwt>
<totfact> 0.26671791E-02</totfact>
</mgrwt>
</event>
<event>
 6    1  0.5040916E-004  0.1688213E+04  0.7818608E-02  0.8768115E-01
         -2   -1    0    0    0  501 -0.00000000000E+00  0.00000000000E+00  0.38822056300E+03  0.38822056300E+03  0.00000000000E+00 0. -1.
          2   -1    0    0  501    0  0.00000000000E+00 -0.00000000000E+00 -0.18353379462E+04  0.18353379462E+04  0.00000000000E+00 0.  1.
         23    2    1    2    0    0 -0.45662894067E+03 -0.63619929654E+03 -0.31984239270E+03  0.85096664030E+03  0.92658147878E+02 0.  0.
         13    1    3    3    0    0 -0.40753495189E+03 -0.54683284173E+03 -0.24571226941E+03  0.72490372681E+03  0.00000000000E+00 0.  1.
        -13    1    3    3    0    0 -0.49093988783E+02 -0.89366454801E+02 -0.74130123287E+02  0.12606291349E+03  0.00000000000E+00 0. -1.
         22    1    1    2    0    0  0.45662894067E+03  0.63619929654E+03 -0.11272749905E+04  0.13725918689E+04  0.00000000000E+00 0.  1.
<mgrwt>
<rscale>  0 0.16882132E+04</rscale>
<asrwt>0</asrwt>
<pdfrwt beam="1">  1        2 0.28235968E+00 0.16882132E+04</pdfrwt>
<pdfrwt beam="2">  1       -2 0.59726241E-01 0.16882132E+04</pdfrwt>
<totfact> 0.20541385E+01</totfact>
</mgrwt>
</event>
<event>
 6    1  0.5040916E-004  0.1597214E+04  0.7818608E-02  0.8822261E-01
         -2   -1    0    0    0  501 -0.00000000000E+00  0.00000000000E+00  0.51500689154E+03  0.51500689154E+03  0.00000000000E+00 0. -1.
          2   -1    0    0  501    0  0.00000000000E+00 -0.00000000000E+00 -0.12383785318E+04  0.12383785318E+04  0.00000000000E+00 0.  1.
         23    2    1    2    0    0 -0.79350258474E+03  0.18157923710E+02 -0.29199426340E+03  0.85002364454E+03  0.85460424948E+02 0.  0.
         13    1    3    3    0    0 -0.64932751997E+03  0.45354765737E+02 -0.22462641904E+03  0.68857847127E+03  0.00000000000E+00 0. -1.
        -13    1    3    3    0    0 -0.14417506477E+03 -0.27196842027E+02 -0.67367844363E+02  0.16144517327E+03  0.00000000000E+00 0.  1.
         22    1    1    2    0    0  0.79350258474E+03 -0.18157923710E+02 -0.43137737690E+03  0.90336177885E+03  0.00000000000E+00 0.  1.
<mgrwt>
<rscale>  0 0.15972144E+04</rscale>
<asrwt>0</asrwt>
<pdfrwt beam="1">  1        2 0.19051977E+00 0.15972144E+04</pdfrwt>
<pdfrwt beam="2">  1       -2 0.79231830E-01 0.15972144E+04</pdfrwt>
<totfact> 0.24349931E+01</totfact>
</mgrwt>
</event>
<event>
 6    1  0.5040916E-004  0.1103245E+04  0.7818608E-02  0.9202035E-01
         -2   -1    0    0    0  501 -0.00000000000E+00  0.00000000000E+00  0.12481245105E+03  0.12481245105E+03  0.00000000000E+00 0. -1.
          2   -1    0    0  501    0  0.00000000000E+00 -0.00000000000E+00 -0.24379567952E+04  0.24379567952E+04  0.00000000000E+00 0.  1.
         23    2    1    2    0    0 -0.60677607766E+02 -0.44735273668E+03 -0.18849601797E+04  0.19405571267E+04  0.94238206660E+02 0.  0.
         11    1    3    3    0    0  0.24109635309E+02 -0.15125584922E+03 -0.63407160309E+03  0.65230851924E+03  0.00000000000E+00 0.  1.
        -11    1    3    3    0    0 -0.84787243074E+02 -0.29609688746E+03 -0.12508885766E+04  0.12882486074E+04  0.00000000000E+00 0. -1.
         22    1    1    2    0    0  0.60677607766E+02  0.44735273668E+03 -0.42818416444E+03  0.62221211960E+03  0.00000000000E+00 0. -1.
<mgrwt>
<rscale>  0 0.11032450E+04</rscale>
<asrwt>0</asrwt>
<pdfrwt beam="1">  1        2 0.37507027E+00 0.11032450E+04</pdfrwt>
<pdfrwt beam="2">  1       -2 0.19201916E-01 0.11032450E+04</pdfrwt>
<totfact> 0.86827946E+01</totfact>
</mgrwt>
</event>
<event>
 6    1  0.5040916E-004  0.1953703E+04  0.7818608E-02  0.8628577E-01
         -2   -1    0    0    0  501 -0.00000000000E+00  0.00000000000E+00  0.51458541664E+03  0.51458541664E+03  0.00000000000E+00 0. -1.
          2   -1    0    0  501    0  0.00000000000E+00 -0.00000000000E+00 -0.18543832458E+04  0.18543832458E+04  0.00000000000E+00 0.  1.
         23    2    1    2    0    0 -0.84799215822E+03  0.43125400131E+03 -0.41420309542E+03  0.10416419034E+04  0.91558378546E+02 0.  0.
         13    1    3    3    0    0 -0.33178858908E+03  0.21769521992E+03 -0.15959798841E+03  0.42772233344E+03  0.00000000000E+00 0. -1.
        -13    1    3    3    0    0 -0.51620356914E+03  0.21355878139E+03 -0.25460510702E+03  0.61391957000E+03  0.00000000000E+00 0.  1.
         22    1    1    2    0    0  0.84799215822E+03 -0.43125400131E+03 -0.92559473376E+03  0.13273267590E+04  0.00000000000E+00 0.  1.
<mgrwt>
<rscale>  0 0.19537027E+04</rscale>
<asrwt>0</asrwt>
<pdfrwt beam="1">  1        2 0.28528973E+00 0.19537027E+04</pdfrwt>
<pdfrwt beam="2">  1       -2 0.79166988E-01 0.19537027E+04</pdfrwt>
<totfact> 0.10622181E+01</totfact>
</mgrwt>
</event>
<event>
 6    1  0.5040916E-004  0.4656949E+04  0.7818608E-02  0.7883721E-01
          2   -1    0    0  501    0  0.00000000000E+00  0.00000000000E+00  0.25928085386E+04  0.25928085386E+04  0.00000000000E+00 0.  1.
         -2   -1    0    0    0  501 -0.00000000000E+00 -0.00000000000E+00 -0.20910891138E+04  0.20910891138E+04  0.00000000000E+00 0. -1.
         23    2    1    2    0    0 -0.15595688132E+04  0.12509295053E+04  0.14496945114E+04  0.24712665772E+04  0.92004395810E+02 0.  0.
         11    1    3    3    0    0 -0.52776563715E+03  0.47877064596E+03  0.50589102803E+03  0.87388994240E+03  0.00000000000E+00 0.  1.
        -11    1    3    3    0    0 -0.10318031760E+04  0.77215885930E+03  0.94380348334E+03  0.15973766348E+04  0.00000000000E+00 0. -1.
         22    1    1    2    0    0  0.15595688132E+04 -0.12509295053E+04 -0.94797508665E+03  0.22126310752E+04  0.00000000000E+00 0. -1.
<mgrwt>
<rscale>  0 0.46569491E+04</rscale>
<asrwt>0</asrwt>
<pdfrwt beam="1">  1        2 0.39889362E+00 0.46569491E+04</pdfrwt>
<pdfrwt beam="2">  1       -2 0.32170602E+00 0.46569491E+04</pdfrwt>
<totfact> 0.53727538E-02</totfact>
</mgrwt>
</event>
<event>
 6    1  0.5040916E-004  0.2425900E+04  0.7818608E-02  0.8429870E-01
          2   -1    0    0  501    0  0.00000000000E+00  0.00000000000E+00  0.31912146668E+04  0.31912146668E+04  0.00000000000E+00 0.  1.
         -2   -1    0    0    0  501 -0.00000000000E+00 -0.00000000000E+00 -0.46103068946E+03  0.46103068946E+03  0.00000000000E+00 0. -1.
         23    2    1    2    0    0 -0.20408593876E+03 -0.30804746565E+02  0.31639062834E+04  0.31719173000E+04  0.90312706580E+02 0.  0.
         13    1    3    3    0    0 -0.12245804969E+03  0.21318120530E+02  0.14706940742E+04  0.14759374974E+04  0.00000000000E+00 0. -1.
        -13    1    3    3    0    0 -0.81627889069E+02 -0.52122867095E+02  0.16932122092E+04  0.16959798026E+04  0.00000000000E+00 0.  1.
         22    1    1    2    0    0  0.20408593876E+03  0.30804746565E+02 -0.43372230610E+03  0.48032805624E+03  0.00000000000E+00 0. -1.
<mgrwt>
<rscale>  0 0.24259002E+04</rscale>
<asrwt>0</asrwt>
<pdfrwt beam="1">  1        2 0.49095609E+00 0.24259002E+04</pdfrwt>
<pdfrwt beam="2">  1       -2 0.70927801E-01 0.24259002E+04</pdfrwt>
<totfact> 0.21312280E+00</totfact>
</mgrwt>
</event>
<event>
 6    1  0.5040916E-004  0.2386741E+04  0.7818608E-02  0.8444484E-01
          2   -1    0    0  501    0  0.00000000000E+00  0.00000000000E+00  0.19652352103E+04  0.19652352103E+04  0.00000000000E+00 0.  1.
         -2   -1    0    0    0  501 -0.00000000000E+00 -0.00000000000E+00 -0.72466284978E+03  0.72466284978E+03  0.00000000000E+00 0. -1.
         23    2    1    2    0    0  0.11202740438E+04  0.11306294999E+03  0.18151006076E+03  0.11441263697E+04  0.91005955478E+02 0.  0.
         11    1    3    3    0    0  0.12084130309E+03 -0.12109209879E+02  0.34203286315E+02  0.12617098831E+03  0.00000000000E+00 0. -1.
        -11    1    3    3    0    0  0.99943274070E+03  0.12517215987E+03  0.14730677444E+03  0.10179553814E+04  0.00000000000E+00 0.  1.
         22    1    1    2    0    0 -0.11202740438E+04 -0.11306294999E+03  0.10590622998E+04  0.15457716903E+04  0.00000000000E+00 0.  1.
<mgrwt>
<rscale>  0 0.23867408E+04</rscale>
<asrwt>0</asrwt>
<pdfrwt beam="1">  1        2 0.30234388E+00 0.23867408E+04</pdfrwt>
<pdfrwt beam="2">  1       -2 0.11148659E+00 0.23867408E+04</pdfrwt>
<totfact> 0.39990826E+00</totfact>
</mgrwt>
</event>
<event>
 6    1  0.5040916E-004  0.3039264E+04  0.7818608E-02  0.8232607E-01
         -2   -1    0    0    0  501 -0.00000000000E+00  0.00000000000E+00  0.17092733422E+04  0.17092733422E+04  0.00000000000E+00 0. -1.
          2   -1    0    0  501    0  0.00000000000E+00 -0.00000000000E+00 -0.13510312689E+04  0.13510312689E+04  0.00000000000E+00 0.  1.
         23    2    1    2    0    0 -0.13412500855E+04  0.61959308770E+03  0.53090191530E+03  0.15728037515E+04  0.94907381546E+02 0.  0.
         13    1    3    3    0    0 -0.47676173552E+03  0.17119855209E+03  0.18875220748E+03  0.54059050354E+03  0.00000000000E+00 0.  1.
        -13    1    3    3    0    0 -0.86448834994E+03  0.44839453561E+03  0.34214970781E+03  0.10322132480E+04  0.00000000000E+00 0. -1.
         22    1    1    2    0    0  0.13412500855E+04 -0.61959308770E+03 -0.17265984204E+03  0.14875008595E+04  0.00000000000E+00 0.  1.
<mgrwt>
<rscale>  0 0.30392642E+04</rscale>
<asrwt>0</asrwt>
<pdfrwt beam="1">  1        2 0.20785096E+00 0.30392642E+04</pdfrwt>
<pdfrwt beam="2">  1       -2 0.26296513E+00 0.30392642E+04</pdfrwt>
<totfact> 0.70499747E-01</totfact>
</mgrwt>
</event>
<event>
 6    1  0.5040916E-004  0.3201109E+04  0.7818608E-02  0.8188524E-01
         -1   -1    0    0    0  501 -0.00000000000E+00  0.00000000000E+00  0.18930780332E+04  0.18930780332E+04  0.00000000000E+00 0. -1.
          1   -1    0    0  501    0  0.00000000000E+00 -0.00000000000E+00 -0.13532329099E+04  0.13532329099E+04  0.00000000000E+00 0.  1.
         23    2    1    2    0    0  0.13113705137E+04  0.72283259216E+03  0.83971609299E+03  0.17191887545E+04  0.91144261869E+02 0.  0.
         13    1    3    3    0    0  0.21246291022E+03  0.81510239921E+02  0.13860519016E+03  0.26645038219E+03  0.00000000000E+00 0. -1.
        -13    1    3    3    0    0  0.10989076035E+04  0.64132235224E+03  0.70111090283E+03  0.14527383723E+04  0.00000000000E+00 0.  1.
         22    1    1    2    0    0 -0.13113705137E+04 -0.72283259216E+03 -0.29987096960E+03  0.15271221886E+04  0.00000000000E+00 0. -1.
<mgrwt>
<rscale>  0 0.32011095E+04</rscale>
<asrwt>0</asrwt>
<pdfrwt beam="1">  1        1 0.20818968E+00 0.32011095E+04</pdfrwt>
<pdfrwt beam="2">  1       -1 0.29124277E+00 0.32011095E+04</pdfrwt>
<totfact> 0.26097016E-01</totfact>
</mgrwt>
</event>
<event>
 6    1  0.5040916E-004  0.2371853E+04  0.7818608E-02  0.8450117E-01
          1   -1    0    0  501    0  0.00000000000E+00  0.00000000000E+00  0.16153270848E+04  0.16153270848E+04  0.00000000000E+00 0.  1.
         -1   -1    0    0    0  501 -0.00000000000E+00 -0.00000000000E+00 -0.87067328517E+03  0.87067328517E+03  0.00000000000E+00 0. -1.
         23    2    1    2    0    0 -0.39819746527E+03  0.10380273805E+04 -0.54920647804E+02  0.11165547300E+04  0.87270404388E+02 0.  0.
         11    1    3    3    0    0 -0.66649279140E+02  0.12028286480E+03  0.14587615356E+02  0.13828554696E+03  0.00000000000E+00 0. -1.
        -11    1    3    3    0    0 -0.33154818613E+03  0.91774451566E+03 -0.69508263160E+02  0.97826918300E+03  0.00000000000E+00 0.  1.
         22    1    1    2    0    0  0.39819746527E+03 -0.10380273805E+04  0.79957444741E+03  0.13694456400E+04  0.00000000000E+00 0.  1.
<mgrwt>
<rscale>  0 0.23718534E+04</rscale>
<asrwt>0</asrwt>
<pdfrwt beam="1">  1        1 0.24851186E+00 0.23718534E+04</pdfrwt>
<pdfrwt beam="2">  1       -1 0.13394974E+00 0.23718534E+04</pdfrwt>
<totfact> 0.22992669E+00</totfact>
</mgrwt>
</event>
<event>
 6    1  0.5040916E-004  0.2238002E+04  0.7818608E-02  0.8502775E-01
         -2   -1    0    0    0  501 -0.00000000000E+00  0.00000000000E+00  0.83634707636E+03  0.83634707636E+03  0.00000000000E+00 0. -1.
          2   -1    0    0  501    0  0.00000000000E+00 -0.00000000000E+00 -0.14971818318E+04  0.14971818318E+04  0.00000000000E+00 0.  1.
         23    2    1    2    0    0 -0.66106403894E+03  0.27831863496E+03 -0.12240265572E+04  0.14215793856E+04  0.90443411499E+02 0.  0.
         11    1    3    3    0    0 -0.35614267018E+03  0.19140623606E+03 -0.63941750759E+03  0.75652408933E+03  0.00000000000E+00 0.  1.
        -11    1    3    3    0    0 -0.30492136876E+03  0.86912398901E+02 -0.58460904957E+03  0.66505529623E+03  0.00000000000E+00 0. -1.
         22    1    1    2    0    0  0.66106403894E+03 -0.27831863496E+03  0.56319180174E+03  0.91194952256E+03  0.00000000000E+00 0.  1.
<mgrwt>
<rscale>  0 0.22380024E+04</rscale>
<asrwt>0</asrwt>
<pdfrwt beam="1">  1        2 0.23033566E+00 0.22380024E+04</pdfrwt>
<pdfrwt beam="2">  1       -2 0.12866878E+00 0.22380024E+04</pdfrwt>
<totfact> 0.51758955E+00</totfact>
</mgrwt>
</event>
<event>
 6    1  0.5040916E-004  0.1711916E+04  0.7818608E-02  0.8754597E-01
         -2   -1    0    0    0  501 -0.00000000000E+00  0.00000000000E+00  0.70503119444E+03  0.70503119444E+03  0.00000000000E+00 0. -1.
          2   -1    0    0  501    0  0.00000000000E+00 -0.00000000000E+00 -0.10391941316E+04  0.10391941316E+04  0.00000000000E+00 0.  1.
         23    2    1    2    0    0 -0.42406805494E+03 -0.72833405516E+03 -0.30503291020E+03  0.90092658321E+03  0.91210859571E+02 0.  0.
         11    1    3    3    0    0 -0.18950143386E+03 -0.26603995163E+03 -0.83218571955E+02  0.33706583929E+03  0.00000000000E+00 0. -1.
        -11    1    3    3    0    0 -0.23456662108E+03 -0.46229410353E+03 -0.22181433825E+03  0.56386074393E+03  0.00000000000E+00 0.  1.
         22    1    1    2    0    0  0.42406805494E+03  0.72833405516E+03 -0.29130026924E+02  0.84329874279E+03  0.00000000000E+00 0.  1.
<mgrwt>
<rscale>  0 0.17119162E+04</rscale>
<asrwt>0</asrwt>
<pdfrwt beam="1">  1        2 0.15987602E+00 0.17119162E+04</pdfrwt>
<pdfrwt beam="2">  1       -2 0.10846634E+00 0.17119162E+04</pdfrwt>
<totfact> 0.15368242E+01</totfact>
</mgrwt>
</event>
<event>
 6    1  0.5040916E-004  0.1335005E+04  0.7818608E-02  0.9002257E-01
         -1   -1    0    0    0  501 -0.00000000000E+00  0.00000000000E+00  0.23169285619E+03  0.23169285619E+03  0.00000000000E+00 0.  1.
          1   -1    0    0  501    0  0.00000000000E+00 -0.00000000000E+00 -0.19230624601E+04  0.19230624601E+04  0.00000000000E+00 0. -1.
         23    2    1    2    0    0  0.38790351296E+03 -0.41881021836E+03 -0.13982086908E+04  0.15130276050E+04  0.91617991104E+02 0.  0.
         11    1    3    3    0    0  0.69620540223E+02 -0.74257665848E+02 -0.35317974040E+03  0.36755564148E+03  0.00000000000E+00 0. -1.
        -11    1    3    3    0    0  0.31828297274E+03 -0.34455255251E+03 -0.10450289504E+04  0.11454719636E+04  0.00000000000E+00 0.  1.
         22    1    1    2    0    0 -0.38790351296E+03  0.41881021836E+03 -0.29316091311E+03  0.64172771122E+03  0.00000000000E+00 0.  1.
<mgrwt>
<rscale>  0 0.13350054E+04</rscale>
<asrwt>0</asrwt>
<pdfrwt beam="1">  1        1 0.29585576E+00 0.13350054E+04</pdfrwt>
<pdfrwt beam="2">  1       -1 0.35645055E-01 0.13350054E+04</pdfrwt>
<totfact> 0.24751101E+01</totfact>
</mgrwt>
</event>
<event>
 6    1  0.5040916E-004  0.5104590E+04  0.7818608E-02  0.7812573E-01
         -2   -1    0    0    0  501 -0.00000000000E+00  0.00000000000E+00  0.29866158007E+04  0.29866158007E+04  0.00000000000E+00 0. -1.
          2   -1    0    0  501    0  0.00000000000E+00 -0.00000000000E+00 -0.21811338813E+04  0.21811338813E+04  0.00000000000E+00 0.  1.
         23    2    1    2    0    0 -0.24172101776E+04  0.13473328714E+03  0.12184449377E+04  0.27118187881E+04  0.91076736942E+02 0.  0.
         11    1    3    3    0    0 -0.90323429976E+03  0.76249067356E+02  0.41628496570E+03  0.99746643713E+03  0.00000000000E+00 0.  1.
        -11    1    3    3    0    0 -0.15139758778E+04  0.58484219785E+02  0.80215997200E+03  0.17143523510E+04  0.00000000000E+00 0. -1.
         22    1    1    2    0    0  0.24172101776E+04 -0.13473328714E+03 -0.41296301825E+03  0.24559308939E+04  0.00000000000E+00 0. -1.
<mgrwt>
<rscale>  0 0.51045897E+04</rscale>
<asrwt>0</asrwt>
<pdfrwt beam="1">  1        2 0.33555906E+00 0.51045897E+04</pdfrwt>
<pdfrwt beam="2">  1       -2 0.45947935E+00 0.51045897E+04</pdfrwt>
<totfact> 0.11524413E-02</totfact>
</mgrwt>
</event>
<event>
 6    1  0.5040916E-004  0.1955475E+04  0.7818608E-02  0.8627725E-01
         -2   -1    0    0    0  501 -0.00000000000E+00  0.00000000000E+00  0.86058564285E+03  0.86058564285E+03  0.00000000000E+00 0. -1.
          2   -1    0    0  501    0  0.00000000000E+00 -0.00000000000E+00 -0.11108372225E+04  0.11108372225E+04  0.00000000000E+00 0.  1.
         23    2    1    2    0    0  0.38314062817E+03  0.67100196163E+03  0.47455848096E+03  0.91199377503E+03  0.97398769946E+02 0.  0.
         13    1    3    3    0    0  0.22608626819E+03  0.42229149086E+03  0.23994883643E+03  0.53574298691E+03  0.00000000000E+00 0. -1.
        -13    1    3    3    0    0  0.15705435997E+03  0.24871047077E+03  0.23460964454E+03  0.37625078813E+03  0.00000000000E+00 0.  1.
         22    1    1    2    0    0 -0.38314062817E+03 -0.67100196163E+03 -0.72481006061E+03  0.10594290903E+04  0.00000000000E+00 0.  1.
<mgrwt>
<rscale>  0 0.19554749E+04</rscale>
<asrwt>0</asrwt>
<pdfrwt beam="1">  1        2 0.17089803E+00 0.19554749E+04</pdfrwt>
<pdfrwt beam="2">  1       -2 0.13239779E+00 0.19554749E+04</pdfrwt>
<totfact> 0.82940286E+00</totfact>
</mgrwt>
</event>
<event>
 6    1  0.5040916E-004  0.2186399E+04  0.7818608E-02  0.8524111E-01
          2   -1    0    0  501    0  0.00000000000E+00  0.00000000000E+00  0.33536155892E+04  0.33536155892E+04  0.00000000000E+00 0. -1.
         -2   -1    0    0    0  501 -0.00000000000E+00 -0.00000000000E+00 -0.35635713154E+03  0.35635713154E+03  0.00000000000E+00 0.  1.
         23    2    1    2    0    0 -0.57099680183E+03 -0.23369050156E+03  0.30288154035E+04  0.30921989442E+04  0.85574315357E+02 0.  0.
         13    1    3    3    0    0 -0.15838948314E+03 -0.33640030936E+02  0.67665785488E+03  0.69576197986E+03  0.00000000000E+00 0.  1.
        -13    1    3    3    0    0 -0.41260731870E+03 -0.20005047063E+03  0.23521575487E+04  0.23964369643E+04  0.00000000000E+00 0. -1.
         22    1    1    2    0    0  0.57099680183E+03  0.23369050156E+03 -0.31556945849E+02  0.61777377660E+03  0.00000000000E+00 0.  1.
<mgrwt>
<rscale>  0 0.21863987E+04</rscale>
<asrwt>0</asrwt>
<pdfrwt beam="1">  1        2 0.51594084E+00 0.21863987E+04</pdfrwt>
<pdfrwt beam="2">  1       -2 0.54824176E-01 0.21863987E+04</pdfrwt>
<totfact> 0.29444130E+00</totfact>
</mgrwt>
</event>
<event>
 6    1  0.5040916E-004  0.1759726E+04  0.7818608E-02  0.8728015E-01
          1   -1    0    0  501    0  0.00000000000E+00  0.00000000000E+00  0.91656353462E+03  0.91656353462E+03  0.00000000000E+00 0.  1.
         -1   -1    0    0    0  501 -0.00000000000E+00 -0.00000000000E+00 -0.84463234818E+03  0.84463234818E+03  0.00000000000E+00 0. -1.
         23    2    1    2    0    0  0.60552638993E+03 -0.27801845932E+03 -0.53385762634E+03  0.86067572293E+03  0.10863821714E+03 0.  0.
         11    1    3    3    0    0  0.57152711204E+02 -0.74112035076E+01 -0.82484466725E+02  0.10062328551E+03  0.00000000000E+00 0.  1.
        -11    1    3    3    0    0  0.54837367872E+03 -0.27060725581E+03 -0.45137315962E+03  0.76005243743E+03  0.00000000000E+00 0. -1.
         22    1    1    2    0    0 -0.60552638993E+03  0.27801845932E+03  0.60578881279E+03  0.90052015987E+03  0.00000000000E+00 0.  1.
<mgrwt>
<rscale>  0 0.17597264E+04</rscale>
<asrwt>0</asrwt>
<pdfrwt beam="1">  1        1 0.14100977E+00 0.17597264E+04</pdfrwt>
<pdfrwt beam="2">  1       -1 0.12994344E+00 0.17597264E+04</pdfrwt>
<totfact> 0.84801676E+00</totfact>
</mgrwt>
</event>
<event>
 6    1  0.5040916E-004  0.5595327E+04  0.7818608E-02  0.7742707E-01
         -2   -1    0    0    0  501 -0.00000000000E+00  0.00000000000E+00  0.17681736304E+04  0.17681736304E+04  0.00000000000E+00 0. -1.
          2   -1    0    0  501    0  0.00000000000E+00 -0.00000000000E+00 -0.44265569306E+04  0.44265569306E+04  0.00000000000E+00 0.  1.
         23    2    1    2    0    0  0.79474086154E+03  0.22150559824E+04 -0.30029446801E+04  0.38163259305E+04  0.92632683022E+02 0.  0.
         11    1    3    3    0    0  0.13728650572E+03  0.48092104171E+03 -0.60854746345E+03  0.78769451458E+03  0.00000000000E+00 0. -1.
        -11    1    3    3    0    0  0.65745435583E+03  0.17341349407E+04 -0.23943972166E+04  0.30286314159E+04  0.00000000000E+00 0.  1.
         22    1    1    2    0    0 -0.79474086154E+03 -0.22150559824E+04  0.34456137991E+03  0.23784046306E+04  0.00000000000E+00 0. -1.
<mgrwt>
<rscale>  0 0.55953271E+04</rscale>
<asrwt>0</asrwt>
<pdfrwt beam="1">  1        2 0.68100876E+00 0.55953271E+04</pdfrwt>
<pdfrwt beam="2">  1       -2 0.27202671E+00 0.55953271E+04</pdfrwt>
<totfact> 0.46927313E-03</totfact>
</mgrwt>
</event>
<event>
 6    1  0.5040916E-004  0.2855606E+04  0.7818608E-02  0.8286210E-01
          2   -1    0    0  501    0  0.00000000000E+00  0.00000000000E+00  0.11932172777E+04  0.11932172777E+04  0.00000000000E+00 0.  1.
         -2   -1    0    0    0  501 -0.00000000000E+00 -0.00000000000E+00 -0.17085081082E+04  0.17085081082E+04  0.00000000000E+00 0. -1.
         23    2    1    2    0    0  0.96300755577E+02 -0.77424460499E+03 -0.14711702761E+04  0.16678558392E+04  0.93126663316E+02 0.  0.
         11    1    3    3    0    0  0.63419703710E+02 -0.44148295082E+03 -0.74320074954E+03  0.86676214084E+03  0.00000000000E+00 0. -1.
        -11    1    3    3    0    0  0.32881051867E+02 -0.33276165417E+03 -0.72796952652E+03  0.80109369839E+03  0.00000000000E+00 0.  1.
         22    1    1    2    0    0 -0.96300755577E+02  0.77424460499E+03  0.95587944552E+03  0.12338695467E+04  0.00000000000E+00 0.  1.
<mgrwt>
<rscale>  0 0.28556060E+04</rscale>
<asrwt>0</asrwt>
<pdfrwt beam="1">  1        2 0.18357189E+00 0.28556060E+04</pdfrwt>
<pdfrwt beam="2">  1       -2 0.26284740E+00 0.28556060E+04</pdfrwt>
<totfact> 0.88763722E-01</totfact>
</mgrwt>
</event>
<event>
 6    1  0.5040916E-004  0.5000688E+04  0.7818608E-02  0.7828401E-01
         -2   -1    0    0    0  501 -0.00000000000E+00  0.00000000000E+00  0.35208940972E+04  0.35208940972E+04  0.00000000000E+00 0. -1.
          2   -1    0    0  501    0  0.00000000000E+00 -0.00000000000E+00 -0.17756055067E+04  0.17756055067E+04  0.00000000000E+00 0.  1.
         23    2    1    2    0    0  0.21413051884E+04  0.12892282922E+04  0.86855044182E+03  0.26477324793E+04  0.93861134946E+02 0.  0.
         11    1    3    3    0    0  0.71671202077E+03  0.38634768395E+03  0.30495577114E+03  0.86944733939E+03  0.00000000000E+00 0.  1.
        -11    1    3    3    0    0  0.14245931676E+04  0.90288060826E+03  0.56359467068E+03  0.17782851399E+04  0.00000000000E+00 0. -1.
         22    1    1    2    0    0 -0.21413051884E+04 -0.12892282922E+04  0.87673814871E+03  0.26487671246E+04  0.00000000000E+00 0.  1.
<mgrwt>
<rscale>  0 0.50006875E+04</rscale>
<asrwt>0</asrwt>
<pdfrwt beam="1">  1        2 0.27317008E+00 0.50006875E+04</pdfrwt>
<pdfrwt beam="2">  1       -2 0.54167601E+00 0.50006875E+04</pdfrwt>
<totfact> 0.61786448E-03</totfact>
</mgrwt>
</event>
<event>
 6    1  0.5040916E-004  0.1277630E+04  0.7818608E-02  0.9047496E-01
          2   -1    0    0  501    0  0.00000000000E+00  0.00000000000E+00  0.28227181691E+04  0.28227181691E+04  0.00000000000E+00 0.  1.
         -2   -1    0    0    0  501 -0.00000000000E+00 -0.00000000000E+00 -0.14457143541E+03  0.14457143541E+03  0.00000000000E+00 0. -1.
         23    2    1    2    0    0  0.15986062122E+03  0.51763255807E+03  0.21179819822E+04  0.21880056818E+04  0.89567311216E+02 0.  0.
         13    1    3    3    0    0  0.10045695018E+03  0.39832962394E+03  0.17168382253E+04  0.17653021214E+04  0.00000000000E+00 0.  1.
        -13    1    3    3    0    0  0.59403671046E+02  0.11930293413E+03  0.40114375691E+03  0.42270356035E+03  0.00000000000E+00 0. -1.
         22    1    1    2    0    0 -0.15986062122E+03 -0.51763255807E+03  0.56016475150E+03  0.77928392273E+03  0.00000000000E+00 0. -1.
<mgrwt>
<rscale>  0 0.12776297E+04</rscale>
<asrwt>0</asrwt>
<pdfrwt beam="1">  1        2 0.43426429E+00 0.12776297E+04</pdfrwt>
<pdfrwt beam="2">  1       -2 0.22241761E-01 0.12776297E+04</pdfrwt>
<totfact> 0.39300579E+01</totfact>
</mgrwt>
</event>
<event>
 6    1  0.5040916E-004  0.1848869E+04  0.7818608E-02  0.8680735E-01
          2   -1    0    0  501    0  0.00000000000E+00  0.00000000000E+00  0.13459046903E+04  0.13459046903E+04  0.00000000000E+00 0. -1.
         -2   -1    0    0    0  501 -0.00000000000E+00 -0.00000000000E+00 -0.63494757681E+03  0.63494757681E+03  0.00000000000E+00 0.  1.
         23    2    1    2    0    0 -0.74041082293E+03 -0.10573429997E+03 -0.22164338296E+03  0.78538933800E+03  0.91228800986E+02 0.  0.
         13    1    3    3    0    0 -0.24386275691E+03 -0.95976694904E+01 -0.10869275412E+03  0.26716151345E+03  0.00000000000E+00 0. -1.
        -13    1    3    3    0    0 -0.49654806602E+03 -0.96136630483E+02 -0.11295062885E+03  0.51822782455E+03  0.00000000000E+00 0.  1.
         22    1    1    2    0    0  0.74041082293E+03  0.10573429997E+03  0.93260049646E+03  0.11954629291E+04  0.00000000000E+00 0. -1.
<mgrwt>
<rscale>  0 0.18488688E+04</rscale>
<asrwt>0</asrwt>
<pdfrwt beam="1">  1        2 0.20706226E+00 0.18488688E+04</pdfrwt>
<pdfrwt beam="2">  1       -2 0.97684243E-01 0.18488688E+04</pdfrwt>
<totfact> 0.12764969E+01</totfact>
</mgrwt>
</event>
<event>
 6    1  0.5040916E-004  0.1706088E+04  0.7818608E-02  0.8757900E-01
         -2   -1    0    0    0  501 -0.00000000000E+00  0.00000000000E+00  0.46825572685E+03  0.46825572685E+03  0.00000000000E+00 0.  1.
          2   -1    0    0  501    0  0.00000000000E+00 -0.00000000000E+00 -0.15540315568E+04  0.15540315568E+04  0.00000000000E+00 0. -1.
         23    2    1    2    0    0 -0.86989841428E+02  0.66241794859E+03 -0.11685273328E+04  0.13490766313E+04  0.90481260877E+02 0.  0.
         11    1    3    3    0    0  0.52510019743E+01  0.17064927619E+03 -0.24331465879E+03  0.29723857702E+03  0.00000000000E+00 0.  1.
        -11    1    3    3    0    0 -0.92240843402E+02  0.49176867240E+03 -0.92521267403E+03  0.10518380543E+04  0.00000000000E+00 0. -1.
         22    1    1    2    0    0  0.86989841428E+02 -0.66241794859E+03  0.82751502891E+02  0.67321065229E+03  0.00000000000E+00 0.  1.
<mgrwt>
<rscale>  0 0.17060881E+04</rscale>
<asrwt>0</asrwt>
<pdfrwt beam="1">  1        2 0.23908178E+00 0.17060881E+04</pdfrwt>
<pdfrwt beam="2">  1       -2 0.72039342E-01 0.17060881E+04</pdfrwt>
<totfact> 0.19644356E+01</totfact>
</mgrwt>
</event>
<event>
 6    1  0.5040916E-004  0.1064480E+04  0.7818608E-02  0.9240521E-01
          2   -1    0    0  501    0  0.00000000000E+00  0.00000000000E+00  0.95143337252E+03  0.95143337252E+03  0.00000000000E+00 0.  1.
         -2   -1    0    0    0  501 -0.00000000000E+00 -0.00000000000E+00 -0.29773954522E+03  0.29773954522E+03  0.00000000000E+00 0. -1.
         23    2    1    2    0    0  0.14325750521E+03 -0.40480148387E+03 -0.32044472731E+02  0.44008456022E+03  0.90887940712E+02 0.  0.
         11    1    3    3    0    0  0.12918087511E+03 -0.23958013346E+03 -0.61693997090E+01  0.27225796652E+03  0.00000000000E+00 0. -1.
        -11    1    3    3    0    0  0.14076630095E+02 -0.16522135041E+03 -0.25875073022E+02  0.16782659370E+03  0.00000000000E+00 0.  1.
         22    1    1    2    0    0 -0.14325750521E+03  0.40480148387E+03  0.68573830003E+03  0.80908835752E+03  0.00000000000E+00 0.  1.
<mgrwt>
<rscale>  0 0.10644799E+04</rscale>
<asrwt>0</asrwt>
<pdfrwt beam="1">  1        2 0.14637436E+00 0.10644799E+04</pdfrwt>
<pdfrwt beam="2">  1       -2 0.45806084E-01 0.10644799E+04</pdfrwt>
<totfact> 0.12176001E+02</totfact>
</mgrwt>
</event>
<event>
 6    1  0.5040916E-004  0.1716909E+04  0.7818608E-02  0.8751779E-01
          2   -1    0    0  501    0  0.00000000000E+00  0.00000000000E+00  0.21978961924E+04  0.21978961924E+04  0.00000000000E+00 0.  1.
         -2   -1    0    0    0  501 -0.00000000000E+00 -0.00000000000E+00 -0.33529515576E+03  0.33529515576E+03  0.00000000000E+00 0. -1.
         23    2    1    2    0    0  0.42514166045E+03 -0.72205279820E+03  0.67472910953E+03  0.10795251588E+04  0.89495935320E+02 0.  0.
         11    1    3    3    0    0  0.20981130194E+03 -0.36570349809E+03  0.39645819839E+03  0.57873908975E+03  0.00000000000E+00 0.  1.
        -11    1    3    3    0    0  0.21533035851E+03 -0.35634930011E+03  0.27827091114E+03  0.50078606907E+03  0.00000000000E+00 0. -1.
         22    1    1    2    0    0 -0.42514166045E+03  0.72205279820E+03  0.11878719271E+04  0.14536661894E+04  0.00000000000E+00 0. -1.
<mgrwt>
<rscale>  0 0.17169088E+04</rscale>
<asrwt>0</asrwt>
<pdfrwt beam="1">  1        2 0.33813787E+00 0.17169088E+04</pdfrwt>
<pdfrwt beam="2">  1       -2 0.51583871E-01 0.17169088E+04</pdfrwt>
<totfact> 0.17475915E+01</totfact>
</mgrwt>
</event>
<event>
 6    1  0.5040916E-004  0.2766425E+04  0.7818608E-02  0.8313769E-01
          2   -1    0    0  501    0  0.00000000000E+00  0.00000000000E+00  0.16158221560E+04  0.16158221560E+04  0.00000000000E+00 0.  1.
         -2   -1    0    0    0  501 -0.00000000000E+00 -0.00000000000E+00 -0.11840886162E+04  0.11840886162E+04  0.00000000000E+00 0. -1.
         23    2    1    2    0    0  0.43807459719E+03  0.13095659105E+04  0.25524590031E+03  0.14077828637E+04  0.99145828218E+02 0.  0.
         11    1    3    3    0    0  0.30198786707E+03  0.91467589476E+03  0.22395537484E+03  0.98893107659E+03  0.00000000000E+00 0.  1.
        -11    1    3    3    0    0  0.13608673012E+03  0.39489001570E+03  0.31290525470E+02  0.41885178715E+03  0.00000000000E+00 0. -1.
         22    1    1    2    0    0 -0.43807459719E+03 -0.13095659105E+04  0.17648763945E+03  0.13921279084E+04  0.00000000000E+00 0.  1.
<mgrwt>
<rscale>  0 0.27664249E+04</rscale>
<asrwt>0</asrwt>
<pdfrwt beam="1">  1        2 0.24858803E+00 0.27664249E+04</pdfrwt>
<pdfrwt beam="2">  1       -2 0.18216748E+00 0.27664249E+04</pdfrwt>
<totfact> 0.16706041E+00</totfact>
</mgrwt>
</event>
<event>
 6    1  0.5040916E-004  0.2054877E+04  0.7818608E-02  0.8581385E-01
         -2   -1    0    0    0  501 -0.00000000000E+00  0.00000000000E+00  0.10678345293E+04  0.10678345293E+04  0.00000000000E+00 0. -1.
          2   -1    0    0  501    0  0.00000000000E+00 -0.00000000000E+00 -0.98857103234E+03  0.98857103234E+03  0.00000000000E+00 0.  1.
         23    2    1    2    0    0  0.97849717234E+03 -0.30591976849E+03  0.41754919583E+02  0.10305154533E+04  0.95786247169E+02 0.  0.
         11    1    3    3    0    0  0.14193470417E+03 -0.30287220863E+02 -0.24676025286E+02  0.14721305044E+03  0.00000000000E+00 0.  1.
        -11    1    3    3    0    0  0.83656246817E+03 -0.27563254763E+03  0.66430944869E+02  0.88330240286E+03  0.00000000000E+00 0. -1.
         22    1    1    2    0    0 -0.97849717234E+03  0.30591976849E+03  0.37508577374E+02  0.10258901083E+04  0.00000000000E+00 0. -1.
<mgrwt>
<rscale>  0 0.20548774E+04</rscale>
<asrwt>0</asrwt>
<pdfrwt beam="1">  1        2 0.15208785E+00 0.20548774E+04</pdfrwt>
<pdfrwt beam="2">  1       -2 0.16428223E+00 0.20548774E+04</pdfrwt>
<totfact> 0.55514941E+00</totfact>
</mgrwt>
</event>
<event>
 6    1  0.5040916E-004  0.2203015E+04  0.7818608E-02  0.8517174E-01
         -2   -1    0    0    0  501 -0.00000000000E+00  0.00000000000E+00  0.93671480254E+03  0.93671480254E+03  0.00000000000E+00 0. -1.
          2   -1    0    0  501    0  0.00000000000E+00 -0.00000000000E+00 -0.12952920680E+04  0.12952920680E+04  0.00000000000E+00 0.  1.
         23    2    1    2    0    0  0.45445087787E+03 -0.14336782674E+03  0.82428968982E+03  0.95676016184E+03  0.94109406535E+02 0.  0.
         13    1    3    3    0    0  0.72969418669E+01 -0.11188618662E+02  0.59952809836E+02  0.61422878111E+02  0.00000000000E+00 0. -1.
        -13    1    3    3    0    0  0.44715393600E+03 -0.13217920807E+03  0.76433687999E+03  0.89533728373E+03  0.00000000000E+00 0.  1.
         22    1    1    2    0    0 -0.45445087787E+03  0.14336782674E+03 -0.11828669553E+04  0.12752467087E+04  0.00000000000E+00 0.  1.
<mgrwt>
<rscale>  0 0.22030154E+04</rscale>
<asrwt>0</asrwt>
<pdfrwt beam="1">  1        2 0.19927570E+00 0.22030154E+04</pdfrwt>
<pdfrwt beam="2">  1       -2 0.14410997E+00 0.22030154E+04</pdfrwt>
<totfact> 0.50634716E+00</totfact>
</mgrwt>
</event>
<event>
 6    1  0.5040916E-004  0.2816308E+04  0.7818608E-02  0.8298223E-01
         -1   -1    0    0    0  501 -0.00000000000E+00  0.00000000000E+00  0.21245174850E+04  0.21245174850E+04  0.00000000000E+00 0.  1.
          1   -1    0    0  501    0  0.00000000000E+00 -0.00000000000E+00 -0.93334002020E+03  0.93334002020E+03  0.00000000000E+00 0. -1.
         23    2    1    2    0    0 -0.46507861492E+02  0.13207936485E+04  0.11193112734E+04  0.17342927759E+04  0.90856274354E+02 0.  0.
         13    1    3    3    0    0 -0.49828640906E+02  0.91306404678E+03  0.82313858388E+03  0.12303357165E+04  0.00000000000E+00 0. -1.
        -13    1    3    3    0    0  0.33207794139E+01  0.40772960176E+03  0.29617268956E+03  0.50395705945E+03  0.00000000000E+00 0.  1.
         22    1    1    2    0    0  0.46507861492E+02 -0.13207936485E+04  0.71866191398E+02  0.13235647293E+04  0.00000000000E+00 0.  1.
<mgrwt>
<rscale>  0 0.28163076E+04</rscale>
<asrwt>0</asrwt>
<pdfrwt beam="1">  1        1 0.14359077E+00 0.28163076E+04</pdfrwt>
<pdfrwt beam="2">  1       -1 0.32684884E+00 0.28163076E+04</pdfrwt>
<totfact> 0.32622199E-01</totfact>
</mgrwt>
</event>
<event>
 6    1  0.5040916E-004  0.4203652E+04  0.7818608E-02  0.7964678E-01
          2   -1    0    0  501    0  0.00000000000E+00  0.00000000000E+00  0.24932862880E+04  0.24932862880E+04  0.00000000000E+00 0.  1.
         -2   -1    0    0    0  501 -0.00000000000E+00 -0.00000000000E+00 -0.17718268622E+04  0.17718268622E+04  0.00000000000E+00 0. -1.
         23    2    1    2    0    0  0.75156783835E+03 -0.95993311064E+03  0.20968011171E+04  0.24272093006E+04  0.91892718790E+02 0.  0.
         13    1    3    3    0    0  0.81457462942E+02 -0.11296174050E+03  0.18669022313E+03  0.23291395943E+03  0.00000000000E+00 0.  1.
        -13    1    3    3    0    0  0.67011037541E+03 -0.84697137014E+03  0.19101108940E+04  0.21942953412E+04  0.00000000000E+00 0. -1.
         22    1    1    2    0    0 -0.75156783835E+03  0.95993311064E+03 -0.13753416913E+04  0.18379038496E+04  0.00000000000E+00 0. -1.
<mgrwt>
<rscale>  0 0.42036516E+04</rscale>
<asrwt>0</asrwt>
<pdfrwt beam="1">  1        2 0.38358251E+00 0.42036516E+04</pdfrwt>
<pdfrwt beam="2">  1       -2 0.27258875E+00 0.42036516E+04</pdfrwt>
<totfact> 0.12739044E-01</totfact>
</mgrwt>
</event>
<event>
 6    1  0.5040916E-004  0.1031915E+04  0.7818608E-02  0.9274217E-01
          2   -1    0    0  501    0  0.00000000000E+00  0.00000000000E+00  0.11825568842E+04  0.11825568842E+04  0.00000000000E+00 0.  1.
         -2   -1    0    0    0  501 -0.00000000000E+00 -0.00000000000E+00 -0.22511576433E+03  0.22511576433E+03  0.00000000000E+00 0. -1.
         23    2    1    2    0    0  0.31839862062E+03 -0.15895652088E+02 -0.64184206117E+02  0.33746301482E+03  0.90173835949E+02 0.  0.
         11    1    3    3    0    0  0.11798446341E+03 -0.43029934548E+02 -0.48454290428E+02  0.13460953582E+03  0.00000000000E+00 0.  1.
        -11    1    3    3    0    0  0.20041415721E+03  0.27134282460E+02 -0.15729915689E+02  0.20285347900E+03  0.00000000000E+00 0. -1.
         22    1    1    2    0    0 -0.31839862062E+03  0.15895652088E+02  0.10216253260E+04  0.10702096337E+04  0.00000000000E+00 0.  1.
<mgrwt>
<rscale>  0 0.10319151E+04</rscale>
<asrwt>0</asrwt>
<pdfrwt beam="1">  1        2 0.18193183E+00 0.10319151E+04</pdfrwt>
<pdfrwt beam="2">  1       -2 0.34633195E-01 0.10319151E+04</pdfrwt>
<totfact> 0.15098645E+02</totfact>
</mgrwt>
</event>
<event>
 6    1  0.5040916E-004  0.2285241E+04  0.7818608E-02  0.8483763E-01
          2   -1    0    0  501    0  0.00000000000E+00  0.00000000000E+00  0.31357583294E+04  0.31357583294E+04  0.00000000000E+00 0.  1.
         -2   -1    0    0    0  501 -0.00000000000E+00 -0.00000000000E+00 -0.41635270665E+03  0.41635270665E+03  0.00000000000E+00 0. -1.
         23    2    1    2    0    0 -0.33875919891E+03  0.70262638412E+03  0.70034363189E+02  0.79029827962E+03  0.10594776182E+03 0.  0.
         13    1    3    3    0    0 -0.26671079786E+03  0.60454983550E+03  0.27353368184E+02  0.66133452960E+03  0.00000000000E+00 0.  1.
        -13    1    3    3    0    0 -0.72048401054E+02  0.98076548625E+02  0.42680995005E+02  0.12896375002E+03  0.00000000000E+00 0. -1.
         22    1    1    2    0    0  0.33875919891E+03 -0.70262638412E+03  0.26493712596E+04  0.27618127564E+04  0.00000000000E+00 0.  1.
<mgrwt>
<rscale>  0 0.22852409E+04</rscale>
<asrwt>0</asrwt>
<pdfrwt beam="1">  1        2 0.48242434E+00 0.22852409E+04</pdfrwt>
<pdfrwt beam="2">  1       -2 0.64054264E-01 0.22852409E+04</pdfrwt>
<totfact> 0.29228074E+00</totfact>
</mgrwt>
</event>
<event>
 6    1  0.5040916E-004  0.7848979E+03  0.7818608E-02  0.9582138E-01
         -2   -1    0    0    0  501 -0.00000000000E+00  0.00000000000E+00  0.17655792954E+03  0.17655792954E+03  0.00000000000E+00 0. -1.
          2   -1    0    0  501    0  0.00000000000E+00 -0.00000000000E+00 -0.87232665633E+03  0.87232665633E+03  0.00000000000E+00 0.  1.
         23    2    1    2    0    0  0.16570005732E+03  0.81884514273E+01 -0.82004717427E+03  0.84159567579E+03  0.91007437813E+02 0.  0.
         13    1    3    3    0    0 -0.11653557775E+02 -0.36546852853E+00 -0.52085161687E+02  0.53374179563E+02  0.00000000000E+00 0.  1.
        -13    1    3    3    0    0  0.17735361510E+03  0.85539199558E+01 -0.76796201259E+03  0.78822149622E+03  0.00000000000E+00 0. -1.
         22    1    1    2    0    0 -0.16570005732E+03 -0.81884514273E+01  0.12427844748E+03  0.20728891008E+03  0.00000000000E+00 0. -1.
<mgrwt>
<rscale>  0 0.78489793E+03</rscale>
<asrwt>0</asrwt>
<pdfrwt beam="1">  1        2 0.13420410E+00 0.78489793E+03</pdfrwt>
<pdfrwt beam="2">  1       -2 0.27162758E-01 0.78489793E+03</pdfrwt>
<totfact> 0.37916920E+02</totfact>
</mgrwt>
</event>
<event>
 6    1  0.5040916E-004  0.3499454E+04  0.7818608E-02  0.8113919E-01
          2   -1    0    0  501    0  0.00000000000E+00  0.00000000000E+00  0.15940653638E+04  0.15940653638E+04  0.00000000000E+00 0.  1.
         -2   -1    0    0    0  501 -0.00000000000E+00 -0.00000000000E+00 -0.19205895651E+04  0.19205895651E+04  0.00000000000E+00 0. -1.
         23    2    1    2    0    0  0.12064652246E+04  0.60769904277E+02 -0.14330033905E+04  0.18765012378E+04  0.92232634613E+02 0.  0.
         11    1    3    3    0    0  0.26860925938E+03 -0.18719857972E+02 -0.35164291008E+03  0.44289288041E+03  0.00000000000E+00 0.  1.
        -11    1    3    3    0    0  0.93785596521E+03  0.79489762249E+02 -0.10813604805E+04  0.14336083574E+04  0.00000000000E+00 0. -1.
         22    1    1    2    0    0 -0.12064652246E+04 -0.60769904277E+02  0.11064791892E+04  0.16381536911E+04  0.00000000000E+00 0.  1.
<mgrwt>
<rscale>  0 0.34994544E+04</rscale>
<asrwt>0</asrwt>
<pdfrwt beam="1">  1        2 0.24524082E+00 0.34994544E+04</pdfrwt>
<pdfrwt beam="2">  1       -2 0.29547532E+00 0.34994544E+04</pdfrwt>
<totfact> 0.31280229E-01</totfact>
</mgrwt>
</event>
<event>
 6    1  0.5040916E-004  0.2220554E+04  0.7818608E-02  0.8509921E-01
          2   -1    0    0  501    0  0.00000000000E+00  0.00000000000E+00  0.20054627653E+04  0.20054627653E+04  0.00000000000E+00 0.  1.
         -2   -1    0    0    0  501 -0.00000000000E+00 -0.00000000000E+00 -0.61467864109E+03  0.61467864109E+03  0.00000000000E+00 0. -1.
         23    2    1    2    0    0 -0.27307966404E+03 -0.76738977370E+03 -0.19051209684E+03  0.84138979181E+03  0.90456370874E+02 0.  0.
         11    1    3    3    0    0 -0.14780679958E+03 -0.54020667029E+03 -0.13416374388E+03  0.57590798466E+03  0.00000000000E+00 0.  1.
        -11    1    3    3    0    0 -0.12527286446E+03 -0.22718310341E+03 -0.56348352952E+02  0.26548180715E+03  0.00000000000E+00 0. -1.
         22    1    1    2    0    0  0.27307966404E+03  0.76738977370E+03  0.15812962210E+04  0.17787516146E+04  0.00000000000E+00 0.  1.
<mgrwt>
<rscale>  0 0.22205541E+04</rscale>
<asrwt>0</asrwt>
<pdfrwt beam="1">  1        2 0.30853273E+00 0.22205541E+04</pdfrwt>
<pdfrwt beam="2">  1       -2 0.94565946E-01 0.22205541E+04</pdfrwt>
<totfact> 0.57026789E+00</totfact>
</mgrwt>
</event>
<event>
 6    1  0.5040916E-004  0.2031126E+04  0.7818608E-02  0.8592205E-01
         -2   -1    0    0    0  501 -0.00000000000E+00  0.00000000000E+00  0.67972228053E+03  0.67972228053E+03  0.00000000000E+00 0. -1.
          2   -1    0    0  501    0  0.00000000000E+00 -0.00000000000E+00 -0.15173382444E+04  0.15173382444E+04  0.00000000000E+00 0.  1.
         23    2    1    2    0    0 -0.84983196559E+03  0.33965534243E+03 -0.89060355272E+03  0.12803338448E+04  0.92195144764E+02 0.  0.
         11    1    3    3    0    0 -0.82334148642E+03  0.34516820974E+03 -0.86402368076E+03  0.12424046109E+04  0.00000000000E+00 0. -1.
        -11    1    3    3    0    0 -0.26490479180E+02 -0.55128673187E+01 -0.26579871959E+02  0.37929233931E+02  0.00000000000E+00 0.  1.
         22    1    1    2    0    0  0.84983196559E+03 -0.33965534243E+03  0.52987588879E+02  0.91672668007E+03  0.00000000000E+00 0. -1.
<mgrwt>
<rscale>  0 0.20311264E+04</rscale>
<asrwt>0</asrwt>
<pdfrwt beam="1">  1        2 0.23343665E+00 0.20311264E+04</pdfrwt>
<pdfrwt beam="2">  1       -2 0.10457266E+00 0.20311264E+04</pdfrwt>
<totfact> 0.85387452E+00</totfact>
</mgrwt>
</event>
<event>
 6    1  0.5040916E-004  0.2113040E+04  0.7818608E-02  0.8555521E-01
         -2   -1    0    0    0  501 -0.00000000000E+00  0.00000000000E+00  0.14610958991E+04  0.14610958991E+04  0.00000000000E+00 0. -1.
          2   -1    0    0  501    0  0.00000000000E+00 -0.00000000000E+00 -0.76397092009E+03  0.76397092009E+03  0.00000000000E+00 0.  1.
         23    2    1    2    0    0 -0.54870726634E+03 -0.42901887039E+03 -0.48458532182E+03  0.85336127848E+03  0.90915797336E+02 0.  0.
         11    1    3    3    0    0 -0.43004552398E+03 -0.32227628978E+03 -0.41618747480E+03  0.67971550948E+03  0.00000000000E+00 0. -1.
        -11    1    3    3    0    0 -0.11866174236E+03 -0.10674258061E+03 -0.68397847024E+02  0.17364576901E+03  0.00000000000E+00 0.  1.
         22    1    1    2    0    0  0.54870726634E+03  0.42901887039E+03  0.11817103008E+04  0.13717055407E+04  0.00000000000E+00 0. -1.
<mgrwt>
<rscale>  0 0.21130403E+04</rscale>
<asrwt>0</asrwt>
<pdfrwt beam="1">  1        2 0.11753399E+00 0.21130403E+04</pdfrwt>
<pdfrwt beam="2">  1       -2 0.22478398E+00 0.21130403E+04</pdfrwt>
<totfact> 0.31055951E+00</totfact>
</mgrwt>
</event>
<event>
 6    1  0.5040916E-004  0.1834351E+04  0.7818608E-02  0.8688242E-01
          2   -1    0    0  501    0  0.00000000000E+00  0.00000000000E+00  0.23133536443E+04  0.23133536443E+04  0.00000000000E+00 0.  1.
         -2   -1    0    0    0  501 -0.00000000000E+00 -0.00000000000E+00 -0.36363271245E+03  0.36363271245E+03  0.00000000000E+00 0. -1.
         23    2    1    2    0    0  0.90565807521E+03  0.88917122363E+02  0.84220366432E+03  0.12435578438E+04  0.94901500780E+02 0.  0.
         11    1    3    3    0    0  0.44621507435E+03  0.73702144861E+01  0.37019042061E+03  0.57983028565E+03  0.00000000000E+00 0.  1.
        -11    1    3    3    0    0  0.45944300086E+03  0.81546907877E+02  0.47201324371E+03  0.66372755816E+03  0.00000000000E+00 0. -1.
         22    1    1    2    0    0 -0.90565807521E+03 -0.88917122363E+02  0.11075172675E+04  0.14334285129E+04  0.00000000000E+00 0.  1.
<mgrwt>
<rscale>  0 0.18343512E+04</rscale>
<asrwt>0</asrwt>
<pdfrwt beam="1">  1        2 0.35590055E+00 0.18343512E+04</pdfrwt>
<pdfrwt beam="2">  1       -2 0.55943495E-01 0.18343512E+04</pdfrwt>
<totfact> 0.12591804E+01</totfact>
</mgrwt>
</event>
<event>
 6    1  0.5040916E-004  0.3854806E+04  0.7818608E-02  0.8034495E-01
          2   -1    0    0  501    0  0.00000000000E+00  0.00000000000E+00  0.32940097051E+04  0.32940097051E+04  0.00000000000E+00 0.  1.
         -2   -1    0    0    0  501 -0.00000000000E+00 -0.00000000000E+00 -0.11277688051E+04  0.11277688051E+04  0.00000000000E+00 0. -1.
         23    2    1    2    0    0  0.18527054738E+04 -0.44873080338E+02  0.48154914863E+03  0.19172391387E+04  0.96877067510E+02 0.  0.
         11    1    3    3    0    0  0.14209026764E+04  0.51148628050E+01  0.35738691942E+03  0.14651675631E+04  0.00000000000E+00 0. -1.
        -11    1    3    3    0    0  0.43180279740E+03 -0.49987943143E+02  0.12416222921E+03  0.45207157560E+03  0.00000000000E+00 0.  1.
         22    1    1    2    0    0 -0.18527054738E+04  0.44873080338E+02  0.16846917514E+04  0.25045393715E+04  0.00000000000E+00 0.  1.
<mgrwt>
<rscale>  0 0.38548055E+04</rscale>
<asrwt>0</asrwt>
<pdfrwt beam="1">  1        2 0.50677072E+00 0.38548055E+04</pdfrwt>
<pdfrwt beam="2">  1       -2 0.17350289E+00 0.38548055E+04</pdfrwt>
<totfact> 0.18041248E-01</totfact>
</mgrwt>
</event>
<event>
 6    1  0.5040916E-004  0.1699297E+04  0.7818608E-02  0.8761766E-01
         -2   -1    0    0    0  501 -0.00000000000E+00  0.00000000000E+00  0.55232633718E+03  0.55232633718E+03  0.00000000000E+00 0. -1.
          2   -1    0    0  501    0  0.00000000000E+00 -0.00000000000E+00 -0.13070213825E+04  0.13070213825E+04  0.00000000000E+00 0.  1.
         23    2    1    2    0    0 -0.26048351234E+03 -0.67252122053E+03 -0.86488976166E+03  0.11297729615E+04  0.90643214731E+02 0.  0.
         13    1    3    3    0    0 -0.83302160715E+02 -0.17205317602E+03 -0.17427735859E+03  0.25867768183E+03  0.00000000000E+00 0. -1.
        -13    1    3    3    0    0 -0.17718135162E+03 -0.50046804451E+03 -0.69061240307E+03  0.87109527964E+03  0.00000000000E+00 0.  1.
         22    1    1    2    0    0  0.26048351234E+03  0.67252122053E+03  0.11019471637E+03  0.72957475819E+03  0.00000000000E+00 0. -1.
<mgrwt>
<rscale>  0 0.16992967E+04</rscale>
<asrwt>0</asrwt>
<pdfrwt beam="1">  1        2 0.20108021E+00 0.16992967E+04</pdfrwt>
<pdfrwt beam="2">  1       -2 0.84973284E-01 0.16992967E+04</pdfrwt>
<totfact> 0.18792165E+01</totfact>
</mgrwt>
</event>
<event>
 6    1  0.5040916E-004  0.6578763E+03  0.7818608E-02  0.9792111E-01
          2   -1    0    0  501    0  0.00000000000E+00  0.00000000000E+00  0.80732485622E+03  0.80732485622E+03  0.00000000000E+00 0.  1.
         -2   -1    0    0    0  501 -0.00000000000E+00 -0.00000000000E+00 -0.13402327293E+03  0.13402327293E+03  0.00000000000E+00 0. -1.
         23    2    1    2    0    0 -0.26813554647E+03 -0.10748578427E+03  0.54867995003E+03  0.62673659633E+03  0.91099991834E+02 0.  0.
         13    1    3    3    0    0 -0.79908459361E+02 -0.69283891077E+02  0.14273253893E+03  0.17764626962E+03  0.00000000000E+00 0. -1.
        -13    1    3    3    0    0 -0.18822708711E+03 -0.38201893190E+02  0.40594741110E+03  0.44909032671E+03  0.00000000000E+00 0.  1.
         22    1    1    2    0    0  0.26813554647E+03  0.10748578427E+03  0.12462163326E+03  0.31461153281E+03  0.00000000000E+00 0. -1.
<mgrwt>
<rscale>  0 0.65787634E+03</rscale>
<asrwt>0</asrwt>
<pdfrwt beam="1">  1        2 0.12420382E+00 0.65787634E+03</pdfrwt>
<pdfrwt beam="2">  1       -2 0.20618966E-01 0.65787634E+03</pdfrwt>
<totfact> 0.69236527E+02</totfact>
</mgrwt>
</event>
<event>
 6    1  0.5040916E-004  0.2195920E+04  0.7818608E-02  0.8520128E-01
         -2   -1    0    0    0  501 -0.00000000000E+00  0.00000000000E+00  0.52333556615E+03  0.52333556615E+03  0.00000000000E+00 0. -1.
          2   -1    0    0  501    0  0.00000000000E+00 -0.00000000000E+00 -0.23035235880E+04  0.23035235880E+04  0.00000000000E+00 0.  1.
         23    2    1    2    0    0  0.61059276504E+03  0.15695624115E+03 -0.20459033167E+04  0.21427075597E+04  0.89535012587E+02 0.  0.
         11    1    3    3    0    0  0.47532313325E+03  0.83416949080E+02 -0.15268499258E+04  0.16012998359E+04  0.00000000000E+00 0. -1.
        -11    1    3    3    0    0  0.13526963178E+03  0.73539292072E+02 -0.51905339093E+03  0.54140772381E+03  0.00000000000E+00 0.  1.
         22    1    1    2    0    0 -0.61059276504E+03 -0.15695624115E+03  0.26571529486E+03  0.68415159451E+03  0.00000000000E+00 0. -1.
<mgrwt>
<rscale>  0 0.21959197E+04</rscale>
<asrwt>0</asrwt>
<pdfrwt beam="1">  1        2 0.35438824E+00 0.21959197E+04</pdfrwt>
<pdfrwt beam="2">  1       -2 0.80513165E-01 0.21959197E+04</pdfrwt>
<totfact> 0.56216959E+00</totfact>
</mgrwt>
</event>
<event>
 6    1  0.5040916E-004  0.1831403E+04  0.7818608E-02  0.8689776E-01
          2   -1    0    0  501    0  0.00000000000E+00  0.00000000000E+00  0.17260180580E+04  0.17260180580E+04  0.00000000000E+00 0.  1.
         -2   -1    0    0    0  501 -0.00000000000E+00 -0.00000000000E+00 -0.48580544739E+03  0.48580544739E+03  0.00000000000E+00 0. -1.
         23    2    1    2    0    0 -0.25781006459E+03  0.20458687036E+03 -0.40723612283E+03  0.53182078329E+03  0.93114278542E+02 0.  0.
         11    1    3    3    0    0 -0.19166393412E+03  0.96022587580E+02 -0.26992809840E+03  0.34469780863E+03  0.00000000000E+00 0.  1.
        -11    1    3    3    0    0 -0.66146130478E+02  0.10856428278E+03 -0.13730802443E+03  0.18712297466E+03  0.00000000000E+00 0. -1.
         22    1    1    2    0    0  0.25781006459E+03 -0.20458687036E+03  0.16474487335E+04  0.16800027221E+04  0.00000000000E+00 0.  1.
<mgrwt>
<rscale>  0 0.18314027E+04</rscale>
<asrwt>0</asrwt>
<pdfrwt beam="1">  1        2 0.26554124E+00 0.18314027E+04</pdfrwt>
<pdfrwt beam="2">  1       -2 0.74739300E-01 0.18314027E+04</pdfrwt>
<totfact> 0.14372577E+01</totfact>
</mgrwt>
</event>
<event>
 6    1  0.5040916E-004  0.2238069E+04  0.7818608E-02  0.8502748E-01
         -2   -1    0    0    0  501 -0.00000000000E+00  0.00000000000E+00  0.14728489714E+04  0.14728489714E+04  0.00000000000E+00 0. -1.
          2   -1    0    0  501    0  0.00000000000E+00 -0.00000000000E+00 -0.85021483416E+03  0.85021483416E+03  0.00000000000E+00 0.  1.
         23    2    1    2    0    0 -0.74852553984E+02  0.59035711759E+03 -0.66957088144E+03  0.90041900047E+03  0.91130565707E+02 0.  0.
         11    1    3    3    0    0 -0.43653240541E+02  0.17290669550E+03 -0.25577212993E+03  0.31180396599E+03  0.00000000000E+00 0. -1.
        -11    1    3    3    0    0 -0.31199313442E+02  0.41745042210E+03 -0.41379875151E+03  0.58861503448E+03  0.00000000000E+00 0.  1.
         22    1    1    2    0    0  0.74852553984E+02 -0.59035711759E+03  0.12922050186E+04  0.14226448051E+04  0.00000000000E+00 0. -1.
<mgrwt>
<rscale>  0 0.22380688E+04</rscale>
<asrwt>0</asrwt>
<pdfrwt beam="1">  1        2 0.13080228E+00 0.22380688E+04</pdfrwt>
<pdfrwt beam="2">  1       -2 0.22659215E+00 0.22380688E+04</pdfrwt>
<totfact> 0.25956126E+00</totfact>
</mgrwt>
</event>
<event>
 6    1  0.5040916E-004  0.2365210E+04  0.7818608E-02  0.8452644E-01
          2   -1    0    0  501    0  0.00000000000E+00  0.00000000000E+00  0.10979170129E+04  0.10979170129E+04  0.00000000000E+00 0.  1.
         -2   -1    0    0    0  501 -0.00000000000E+00 -0.00000000000E+00 -0.12738256352E+04  0.12738256352E+04  0.00000000000E+00 0. -1.
         23    2    1    2    0    0 -0.46290286331E+03 -0.13985791546E+03  0.99218526418E+03  0.11075106183E+04  0.91153024482E+02 0.  0.
         13    1    3    3    0    0 -0.31237180264E+03 -0.53737211880E+02  0.68428398533E+03  0.75412757781E+03  0.00000000000E+00 0. -1.
        -13    1    3    3    0    0 -0.15053106067E+03 -0.86120703576E+02  0.30790127884E+03  0.35338304052E+03  0.00000000000E+00 0.  1.
         22    1    1    2    0    0  0.46290286331E+03  0.13985791546E+03 -0.11680938865E+04  0.12642320297E+04  0.00000000000E+00 0. -1.
<mgrwt>
<rscale>  0 0.23652102E+04</rscale>
<asrwt>0</asrwt>
<pdfrwt beam="1">  1        2 0.16891031E+00 0.23652102E+04</pdfrwt>
<pdfrwt beam="2">  1       -2 0.19597317E+00 0.23652102E+04</pdfrwt>
<totfact> 0.27859141E+00</totfact>
</mgrwt>
</event>
<event>
 6    1  0.5040916E-004  0.4285443E+04  0.7818608E-02  0.7949315E-01
         -2   -1    0    0    0  501 -0.00000000000E+00  0.00000000000E+00  0.22547556662E+04  0.22547556662E+04  0.00000000000E+00 0. -1.
          2   -1    0    0  501    0  0.00000000000E+00 -0.00000000000E+00 -0.20362538210E+04  0.20362538210E+04  0.00000000000E+00 0.  1.
         23    2    1    2    0    0 -0.11633663880E+04  0.13911017181E+04 -0.10317117470E+04  0.20883703046E+04  0.90972837818E+02 0.  0.
         13    1    3    3    0    0 -0.53817830575E+03  0.64578251447E+03 -0.53050313349E+03  0.99403446591E+03  0.00000000000E+00 0. -1.
        -13    1    3    3    0    0 -0.62518808222E+03  0.74531920366E+03 -0.50120861354E+03  0.10943358387E+04  0.00000000000E+00 0.  1.
         22    1    1    2    0    0  0.11633663880E+04 -0.13911017181E+04  0.12502135922E+04  0.22026391827E+04  0.00000000000E+00 0. -1.
<mgrwt>
<rscale>  0 0.42854427E+04</rscale>
<asrwt>0</asrwt>
<pdfrwt beam="1">  1        2 0.31326982E+00 0.42854427E+04</pdfrwt>
<pdfrwt beam="2">  1       -2 0.34688549E+00 0.42854427E+04</pdfrwt>
<totfact> 0.80023623E-02</totfact>
</mgrwt>
</event>
<event>
 6    1  0.5040916E-004  0.3410792E+04  0.7818608E-02  0.8135263E-01
          2   -1    0    0  501    0  0.00000000000E+00  0.00000000000E+00  0.18986459615E+04  0.18986459615E+04  0.00000000000E+00 0.  1.
         -2   -1    0    0    0  501 -0.00000000000E+00 -0.00000000000E+00 -0.15318158777E+04  0.15318158777E+04  0.00000000000E+00 0. -1.
         23    2    1    2    0    0 -0.60007666669E+03  0.15669175285E+04 -0.11639307776E+03  0.16843727318E+04  0.90783281731E+02 0.  0.
         11    1    3    3    0    0 -0.16461933826E+03  0.38213621964E+03 -0.64313484645E+02  0.42102712644E+03  0.00000000000E+00 0. -1.
        -11    1    3    3    0    0 -0.43545732843E+03  0.11847813088E+04 -0.52079593115E+02  0.12633456054E+04  0.00000000000E+00 0.  1.
         22    1    1    2    0    0  0.60007666669E+03 -0.15669175285E+04  0.48322316149E+03  0.17460891073E+04  0.00000000000E+00 0.  1.
<mgrwt>
<rscale>  0 0.34107923E+04</rscale>
<asrwt>0</asrwt>
<pdfrwt beam="1">  1        2 0.29209938E+00 0.34107923E+04</pdfrwt>
<pdfrwt beam="2">  1       -2 0.23566398E+00 0.34107923E+04</pdfrwt>
<totfact> 0.49624561E-01</totfact>
</mgrwt>
</event>
<event>
 6    1  0.5040916E-004  0.1981364E+04  0.7818608E-02  0.8615383E-01
         -2   -1    0    0    0  501 -0.00000000000E+00  0.00000000000E+00  0.64709749470E+03  0.64709749470E+03  0.00000000000E+00 0. -1.
          2   -1    0    0  501    0  0.00000000000E+00 -0.00000000000E+00 -0.15166976059E+04  0.15166976059E+04  0.00000000000E+00 0.  1.
         23    2    1    2    0    0 -0.50367380066E+03 -0.62289907207E+03 -0.10684480553E+04  0.13384278755E+04  0.90096500759E+02 0.  0.
         11    1    3    3    0    0 -0.28587992849E+03 -0.29933993712E+03 -0.59886722332E+03  0.72799291386E+03  0.00000000000E+00 0.  1.
        -11    1    3    3    0    0 -0.21779387217E+03 -0.32355913494E+03 -0.46958083199E+03  0.61043496159E+03  0.00000000000E+00 0. -1.
         22    1    1    2    0    0  0.50367380066E+03  0.62289907207E+03  0.19884794412E+03  0.82536722514E+03  0.00000000000E+00 0. -1.
<mgrwt>
<rscale>  0 0.19813644E+04</rscale>
<asrwt>0</asrwt>
<pdfrwt beam="1">  1        2 0.23333809E+00 0.19813644E+04</pdfrwt>
<pdfrwt beam="2">  1       -2 0.99553461E-01 0.19813644E+04</pdfrwt>
<totfact> 0.96492683E+00</totfact>
</mgrwt>
</event>
<event>
 6    1  0.5040916E-004  0.2221606E+04  0.7818608E-02  0.8509489E-01
         -2   -1    0    0    0  501 -0.00000000000E+00  0.00000000000E+00  0.11657876857E+04  0.11657876857E+04  0.00000000000E+00 0. -1.
          2   -1    0    0  501    0  0.00000000000E+00 -0.00000000000E+00 -0.10584118120E+04  0.10584118120E+04  0.00000000000E+00 0.  1.
         23    2    1    2    0    0  0.20895854647E+03 -0.10416001933E+04  0.37217795633E+03  0.11293411600E+04  0.91106464219E+02 0.  0.
         11    1    3    3    0    0  0.90924387882E+02 -0.67331170742E+03  0.24417113107E+03  0.72196637104E+03  0.00000000000E+00 0.  1.
        -11    1    3    3    0    0  0.11803415858E+03 -0.36828848584E+03  0.12800682526E+03  0.40737478899E+03  0.00000000000E+00 0. -1.
         22    1    1    2    0    0 -0.20895854647E+03  0.10416001933E+04 -0.26480208264E+03  0.10948583377E+04  0.00000000000E+00 0.  1.
<mgrwt>
<rscale>  0 0.22216061E+04</rscale>
<asrwt>0</asrwt>
<pdfrwt beam="1">  1        2 0.16283259E+00 0.22216061E+04</pdfrwt>
<pdfrwt beam="2">  1       -2 0.17935195E+00 0.22216061E+04</pdfrwt>
<totfact> 0.38651788E+00</totfact>
</mgrwt>
</event>
<event>
 6    1  0.5040916E-004  0.3514242E+04  0.7818608E-02  0.8110423E-01
         -2   -1    0    0    0  501 -0.00000000000E+00  0.00000000000E+00  0.98453171912E+03  0.98453171912E+03  0.00000000000E+00 0. -1.
          2   -1    0    0  501    0  0.00000000000E+00 -0.00000000000E+00 -0.31359826117E+04  0.31359826117E+04  0.00000000000E+00 0.  1.
         23    2    1    2    0    0  0.12021647721E+04  0.29749303740E+03 -0.25360445671E+04  0.28237435180E+04  0.91121692855E+02 0.  0.
         11    1    3    3    0    0  0.94057685509E+03  0.26814860736E+03 -0.19651376735E+04  0.21950750720E+04  0.00000000000E+00 0.  1.
        -11    1    3    3    0    0  0.26158791698E+03  0.29344430041E+02 -0.57090689361E+03  0.62866844605E+03  0.00000000000E+00 0. -1.
         22    1    1    2    0    0 -0.12021647721E+04 -0.29749303740E+03  0.38459367447E+03  0.12967708128E+04  0.00000000000E+00 0. -1.
<mgrwt>
<rscale>  0 0.35142421E+04</rscale>
<asrwt>0</asrwt>
<pdfrwt beam="1">  1        2 0.48245887E+00 0.35142421E+04</pdfrwt>
<pdfrwt beam="2">  1       -2 0.15146642E+00 0.35142421E+04</pdfrwt>
<totfact> 0.34161699E-01</totfact>
</mgrwt>
</event>
<event>
 6    1  0.5040916E-004  0.2702887E+04  0.7818608E-02  0.8334069E-01
          1   -1    0    0  501    0  0.00000000000E+00  0.00000000000E+00  0.76640722135E+03  0.76640722135E+03  0.00000000000E+00 0. -1.
         -1   -1    0    0    0  501 -0.00000000000E+00 -0.00000000000E+00 -0.23830663481E+04  0.23830663481E+04  0.00000000000E+00 0.  1.
         23    2    1    2    0    0 -0.41411059198E+02 -0.99041041430E+03  0.25844105393E+03  0.10284765510E+04  0.91348634924E+02 0.  0.
         11    1    3    3    0    0 -0.47850017355E+02 -0.23927864423E+03  0.74278280111E+02  0.25507088552E+03  0.00000000000E+00 0. -1.
        -11    1    3    3    0    0  0.64389581571E+01 -0.75113177007E+03  0.18416277382E+03  0.77340566551E+03  0.00000000000E+00 0.  1.
         22    1    1    2    0    0  0.41411059198E+02  0.99041041430E+03 -0.18751001807E+04  0.21209970184E+04  0.00000000000E+00 0.  1.
<mgrwt>
<rscale>  0 0.27028868E+04</rscale>
<asrwt>0</asrwt>
<pdfrwt beam="1">  1        1 0.11790880E+00 0.27028868E+04</pdfrwt>
<pdfrwt beam="2">  1       -1 0.36662559E+00 0.27028868E+04</pdfrwt>
<totfact> 0.24874566E-01</totfact>
</mgrwt>
</event>
<event>
 6    1  0.5040916E-004  0.4000811E+04  0.7818608E-02  0.8004383E-01
          2   -1    0    0  501    0  0.00000000000E+00  0.00000000000E+00  0.28572422183E+04  0.28572422183E+04  0.00000000000E+00 0.  1.
         -2   -1    0    0    0  501 -0.00000000000E+00 -0.00000000000E+00 -0.14005190046E+04  0.14005190046E+04  0.00000000000E+00 0. -1.
         23    2    1    2    0    0 -0.82776678567E+02 -0.71236387582E+03 -0.12574995904E+04  0.14503924014E+04  0.89546792213E+02 0.  0.
         11    1    3    3    0    0 -0.80055721277E+02 -0.42332565500E+03 -0.81465282704E+03  0.92155995860E+03  0.00000000000E+00 0. -1.
        -11    1    3    3    0    0 -0.27209572896E+01 -0.28903822082E+03 -0.44284676337E+03  0.52883244277E+03  0.00000000000E+00 0.  1.
         22    1    1    2    0    0  0.82776678567E+02  0.71236387582E+03  0.27142228040E+04  0.28073688215E+04  0.00000000000E+00 0.  1.
<mgrwt>
<rscale>  0 0.40008109E+04</rscale>
<asrwt>0</asrwt>
<pdfrwt beam="1">  1        2 0.43957573E+00 0.40008109E+04</pdfrwt>
<pdfrwt beam="2">  1       -2 0.21546446E+00 0.40008109E+04</pdfrwt>
<totfact> 0.17775973E-01</totfact>
</mgrwt>
</event>
<event>
 6    1  0.5040916E-004  0.1370012E+04  0.7818608E-02  0.8975816E-01
         -2   -1    0    0    0  501 -0.00000000000E+00  0.00000000000E+00  0.19507611402E+03  0.19507611402E+03  0.00000000000E+00 0. -1.
          2   -1    0    0  501    0  0.00000000000E+00 -0.00000000000E+00 -0.24053835761E+04  0.24053835761E+04  0.00000000000E+00 0.  1.
         23    2    1    2    0    0  0.55687742165E+03  0.39247560696E+03 -0.11597905946E+04  0.13483673398E+04  0.93971777541E+02 0.  0.
         11    1    3    3    0    0  0.26611244190E+03  0.15825797030E+03 -0.60531044956E+03  0.67989863748E+03  0.00000000000E+00 0. -1.
        -11    1    3    3    0    0  0.29076497975E+03  0.23421763666E+03 -0.55448014505E+03  0.66846870236E+03  0.00000000000E+00 0.  1.
         22    1    1    2    0    0 -0.55687742165E+03 -0.39247560696E+03 -0.10505168675E+04  0.12520923503E+04  0.00000000000E+00 0. -1.
<mgrwt>
<rscale>  0 0.13700115E+04</rscale>
<asrwt>0</asrwt>
<pdfrwt beam="1">  1        2 0.37005900E+00 0.13700115E+04</pdfrwt>
<pdfrwt beam="2">  1       -2 0.30011711E-01 0.13700115E+04</pdfrwt>
<totfact> 0.39577978E+01</totfact>
</mgrwt>
</event>
<event>
 6    1  0.5040916E-004  0.2210659E+04  0.7818608E-02  0.8514005E-01
          2   -1    0    0  501    0  0.00000000000E+00  0.00000000000E+00  0.12901218480E+04  0.12901218480E+04  0.00000000000E+00 0.  1.
         -2   -1    0    0    0  501 -0.00000000000E+00 -0.00000000000E+00 -0.94700589573E+03  0.94700589573E+03  0.00000000000E+00 0. -1.
         23    2    1    2    0    0  0.65148324855E+03  0.38624720847E+03 -0.64029760644E+03  0.99587049535E+03  0.90330999721E+02 0.  0.
         13    1    3    3    0    0  0.39916692504E+03  0.19084949230E+03 -0.34464428813E+03  0.56083638265E+03  0.00000000000E+00 0. -1.
        -13    1    3    3    0    0  0.25231632351E+03  0.19539771616E+03 -0.29565331830E+03  0.43503411271E+03  0.00000000000E+00 0.  1.
         22    1    1    2    0    0 -0.65148324855E+03 -0.38624720847E+03  0.98341355866E+03  0.12412572483E+04  0.00000000000E+00 0.  1.
<mgrwt>
<rscale>  0 0.22106587E+04</rscale>
<asrwt>0</asrwt>
<pdfrwt beam="1">  1        2 0.19848028E+00 0.22106587E+04</pdfrwt>
<pdfrwt beam="2">  1       -2 0.14569321E+00 0.22106587E+04</pdfrwt>
<totfact> 0.49514369E+00</totfact>
</mgrwt>
</event>
<event>
 6    1  0.5040916E-004  0.1951955E+04  0.7818608E-02  0.8629419E-01
          2   -1    0    0  501    0  0.00000000000E+00  0.00000000000E+00  0.88520354780E+03  0.88520354780E+03  0.00000000000E+00 0.  1.
         -2   -1    0    0    0  501 -0.00000000000E+00 -0.00000000000E+00 -0.10760600648E+04  0.10760600648E+04  0.00000000000E+00 0. -1.
         23    2    1    2    0    0  0.64390697041E+02  0.73860241199E+03  0.53861961861E+03  0.92116019597E+03  0.93516459729E+02 0.  0.
         13    1    3    3    0    0  0.73460187666E+02  0.39489257543E+03  0.32179505748E+03  0.51467329863E+03  0.00000000000E+00 0.  1.
        -13    1    3    3    0    0 -0.90694906253E+01  0.34370983656E+03  0.21682456113E+03  0.40648689735E+03  0.00000000000E+00 0. -1.
         22    1    1    2    0    0 -0.64390697041E+02 -0.73860241199E+03 -0.72947613563E+03  0.10401034166E+04  0.00000000000E+00 0. -1.
<mgrwt>
<rscale>  0 0.19519551E+04</rscale>
<asrwt>0</asrwt>
<pdfrwt beam="1">  1        2 0.13618516E+00 0.19519551E+04</pdfrwt>
<pdfrwt beam="2">  1       -2 0.16554770E+00 0.19519551E+04</pdfrwt>
<totfact> 0.64188187E+00</totfact>
</mgrwt>
</event>
<event>
 6    1  0.5040916E-004  0.4409362E+04  0.7818608E-02  0.7926700E-01
          2   -1    0    0  501    0  0.00000000000E+00  0.00000000000E+00  0.22549440485E+04  0.22549440485E+04  0.00000000000E+00 0.  1.
         -2   -1    0    0    0  501 -0.00000000000E+00 -0.00000000000E+00 -0.21555387799E+04  0.21555387799E+04  0.00000000000E+00 0. -1.
         23    2    1    2    0    0  0.14815958981E+03  0.21711845076E+04  0.39691615463E+03  0.22140069789E+04  0.91055141909E+02 0.  0.
         11    1    3    3    0    0  0.83908958783E+02  0.10840738491E+04  0.24347183682E+03  0.11142420558E+04  0.00000000000E+00 0.  1.
        -11    1    3    3    0    0  0.64250631025E+02  0.10871106585E+04  0.15344431781E+03  0.10997649231E+04  0.00000000000E+00 0. -1.
         22    1    1    2    0    0 -0.14815958981E+03 -0.21711845076E+04 -0.29751088602E+03  0.21964758494E+04  0.00000000000E+00 0. -1.
<mgrwt>
<rscale>  0 0.44093625E+04</rscale>
<asrwt>0</asrwt>
<pdfrwt beam="1">  1        2 0.34691447E+00 0.44093625E+04</pdfrwt>
<pdfrwt beam="2">  1       -2 0.33162135E+00 0.44093625E+04</pdfrwt>
<totfact> 0.74431306E-02</totfact>
</mgrwt>
</event>
<event>
 6    1  0.5040916E-004  0.3023175E+04  0.7818608E-02  0.8237144E-01
         -2   -1    0    0    0  501 -0.00000000000E+00  0.00000000000E+00  0.10618097040E+04  0.10618097040E+04  0.00000000000E+00 0. -1.
          2   -1    0    0  501    0  0.00000000000E+00 -0.00000000000E+00 -0.21518898440E+04  0.21518898440E+04  0.00000000000E+00 0.  1.
         23    2    1    2    0    0 -0.82866230642E+03  0.62301343790E+03  0.62245931294E+03  0.12117958691E+04  0.78528148812E+02 0.  0.
         11    1    3    3    0    0 -0.63269423426E+03  0.47438230556E+03  0.43489708540E+03  0.90248326344E+03  0.00000000000E+00 0. -1.
        -11    1    3    3    0    0 -0.19596807216E+03  0.14863113233E+03  0.18756222754E+03  0.30931260563E+03  0.00000000000E+00 0.  1.
         22    1    1    2    0    0  0.82866230642E+03 -0.62301343790E+03 -0.17125394529E+04  0.20019036789E+04  0.00000000000E+00 0.  1.
<mgrwt>
<rscale>  0 0.30231755E+04</rscale>
<asrwt>0</asrwt>
<pdfrwt beam="1">  1        2 0.33105998E+00 0.30231755E+04</pdfrwt>
<pdfrwt beam="2">  1       -2 0.16335534E+00 0.30231755E+04</pdfrwt>
<totfact> 0.11174394E+00</totfact>
</mgrwt>
</event>
<event>
 6    1  0.5040916E-004  0.1352381E+04  0.7818608E-02  0.8989027E-01
          2   -1    0    0  501    0  0.00000000000E+00  0.00000000000E+00  0.29768208096E+04  0.29768208096E+04  0.00000000000E+00 0.  1.
         -2   -1    0    0    0  501 -0.00000000000E+00 -0.00000000000E+00 -0.15359805781E+03  0.15359805781E+03  0.00000000000E+00 0. -1.
         23    2    1    2    0    0  0.38858365085E+03  0.52544597582E+02  0.26839952016E+04  0.27143149150E+04  0.99584272994E+02 0.  0.
         13    1    3    3    0    0  0.30767834178E+03  0.50486787807E+02  0.18176803166E+04  0.18442279173E+04  0.00000000000E+00 0. -1.
        -13    1    3    3    0    0  0.80905309067E+02  0.20578097746E+01  0.86631488496E+03  0.87008699767E+03  0.00000000000E+00 0.  1.
         22    1    1    2    0    0 -0.38858365085E+03 -0.52544597582E+02  0.13922755020E+03  0.41610395237E+03  0.00000000000E+00 0. -1.
<mgrwt>
<rscale>  0 0.13523814E+04</rscale>
<asrwt>0</asrwt>
<pdfrwt beam="1">  1        2 0.45797239E+00 0.13523814E+04</pdfrwt>
<pdfrwt beam="2">  1       -2 0.23630473E-01 0.13523814E+04</pdfrwt>
<totfact> 0.28204388E+01</totfact>
</mgrwt>
</event>
<event>
 6    1  0.5040916E-004  0.4001614E+04  0.7818608E-02  0.8004221E-01
         -2   -1    0    0    0  501 -0.00000000000E+00  0.00000000000E+00  0.22186713539E+04  0.22186713539E+04  0.00000000000E+00 0. -1.
          2   -1    0    0  501    0  0.00000000000E+00 -0.00000000000E+00 -0.18043360191E+04  0.18043360191E+04  0.00000000000E+00 0.  1.
         23    2    1    2    0    0 -0.91637016529E+03  0.48539890439E+03 -0.15116199787E+04  0.18356230341E+04  0.95763184087E+02 0.  0.
         11    1    3    3    0    0 -0.24480686620E+03  0.17670292815E+03 -0.41644669403E+03  0.51437551995E+03  0.00000000000E+00 0. -1.
        -11    1    3    3    0    0 -0.67156329909E+03  0.30869597625E+03 -0.10951732846E+04  0.13212475142E+04  0.00000000000E+00 0.  1.
         22    1    1    2    0    0  0.91637016529E+03 -0.48539890439E+03  0.19259553134E+04  0.21873843388E+04  0.00000000000E+00 0. -1.
<mgrwt>
<rscale>  0 0.40016140E+04</rscale>
<asrwt>0</asrwt>
<pdfrwt beam="1">  1        2 0.27759016E+00 0.40016140E+04</pdfrwt>
<pdfrwt beam="2">  1       -2 0.34133405E+00 0.40016140E+04</pdfrwt>
<totfact> 0.11936186E-01</totfact>
</mgrwt>
</event>
<event>
 6    1  0.5040916E-004  0.5571491E+03  0.7818608E-02  0.9998526E-01
         -2   -1    0    0    0  501 -0.00000000000E+00  0.00000000000E+00  0.12333565750E+03  0.12333565750E+03  0.00000000000E+00 0. -1.
          2   -1    0    0  501    0  0.00000000000E+00 -0.00000000000E+00 -0.62920794276E+03  0.62920794276E+03  0.00000000000E+00 0.  1.
         23    2    1    2    0    0 -0.21788974055E+03 -0.22822090336E+02 -0.47549179016E+03  0.53136547899E+03  0.90884778196E+02 0.  0.
         11    1    3    3    0    0 -0.83487877443E+02  0.14096362879E+02 -0.10110557610E+03  0.13187596690E+03  0.00000000000E+00 0.  1.
        -11    1    3    3    0    0 -0.13440186311E+03 -0.36918453215E+02 -0.37438621406E+03  0.39948951209E+03  0.00000000000E+00 0. -1.
         22    1    1    2    0    0  0.21788974055E+03  0.22822090336E+02 -0.30380495104E+02  0.22117812127E+03  0.00000000000E+00 0. -1.
<mgrwt>
<rscale>  0 0.55714908E+03</rscale>
<asrwt>0</asrwt>
<pdfrwt beam="1">  1        2 0.96801223E-01 0.55714908E+03</pdfrwt>
<pdfrwt beam="2">  1       -2 0.18974716E-01 0.55714908E+03</pdfrwt>
<totfact> 0.10984737E+03</totfact>
</mgrwt>
</event>
<event>
 6    1  0.5040916E-004  0.1369492E+04  0.7818608E-02  0.8976203E-01
         -2   -1    0    0    0  501 -0.00000000000E+00  0.00000000000E+00  0.19165200448E+04  0.19165200448E+04  0.00000000000E+00 0. -1.
          2   -1    0    0  501    0  0.00000000000E+00 -0.00000000000E+00 -0.24465021394E+03  0.24465021394E+03  0.00000000000E+00 0.  1.
         23    2    1    2    0    0  0.17546972720E+03  0.65718874015E+03  0.76988628171E+03  0.10314530427E+04  0.92107693036E+02 0.  0.
         11    1    3    3    0    0  0.11869578625E+03  0.56904092315E+03  0.66264511708E+03  0.88147309266E+03  0.00000000000E+00 0.  1.
        -11    1    3    3    0    0  0.56773940949E+02  0.88147817004E+02  0.10724116463E+03  0.14997995001E+03  0.00000000000E+00 0. -1.
         22    1    1    2    0    0 -0.17546972720E+03 -0.65718874015E+03  0.90198354919E+03  0.11297172161E+04  0.00000000000E+00 0. -1.
<mgrwt>
<rscale>  0 0.13694919E+04</rscale>
<asrwt>0</asrwt>
<pdfrwt beam="1">  1        2 0.37638496E-01 0.13694919E+04</pdfrwt>
<pdfrwt beam="2">  1       -2 0.29484923E+00 0.13694919E+04</pdfrwt>
<totfact> 0.46190842E+00</totfact>
</mgrwt>
</event>
<event>
 6    1  0.5040916E-004  0.2795531E+04  0.7818608E-02  0.8304657E-01
          2   -1    0    0  501    0  0.00000000000E+00  0.00000000000E+00  0.26307480548E+04  0.26307480548E+04  0.00000000000E+00 0. -1.
         -2   -1    0    0    0  501 -0.00000000000E+00 -0.00000000000E+00 -0.74265861943E+03  0.74265861943E+03  0.00000000000E+00 0.  1.
         23    2    1    2    0    0 -0.13048129957E+04  0.49688316758E+03  0.93776523283E+03  0.16844585027E+04  0.92557978971E+02 0.  0.
         13    1    3    3    0    0 -0.35373116349E+03  0.15761096185E+03  0.30333074320E+03  0.49191106014E+03  0.00000000000E+00 0.  1.
        -13    1    3    3    0    0 -0.95108183225E+03  0.33927220573E+03  0.63443448963E+03  0.11925474426E+04  0.00000000000E+00 0. -1.
         22    1    1    2    0    0  0.13048129957E+04 -0.49688316758E+03  0.95032420255E+03  0.16889481715E+04  0.00000000000E+00 0. -1.
<mgrwt>
<rscale>  0 0.27955305E+04</rscale>
<asrwt>0</asrwt>
<pdfrwt beam="1">  1        2 0.40473047E+00 0.27955305E+04</pdfrwt>
<pdfrwt beam="2">  1       -2 0.11425517E+00 0.27955305E+04</pdfrwt>
<totfact> 0.15217258E+00</totfact>
</mgrwt>
</event>
<event>
 6    1  0.5040916E-004  0.1114850E+04  0.7818608E-02  0.9190838E-01
         -2   -1    0    0    0  501 -0.00000000000E+00  0.00000000000E+00  0.12555913206E+03  0.12555913206E+03  0.00000000000E+00 0. -1.
          2   -1    0    0  501    0  0.00000000000E+00 -0.00000000000E+00 -0.24747108798E+04  0.24747108798E+04  0.00000000000E+00 0.  1.
         23    2    1    2    0    0  0.89744108255E+02  0.51988716980E+03 -0.15745328899E+04  0.16630554958E+04  0.90901519646E+02 0.  0.
         11    1    3    3    0    0  0.85334882362E+02  0.36243586497E+03 -0.12087559540E+04  0.12648054217E+04  0.00000000000E+00 0. -1.
        -11    1    3    3    0    0  0.44092258925E+01  0.15745130483E+03 -0.36577693596E+03  0.39825007413E+03  0.00000000000E+00 0.  1.
         22    1    1    2    0    0 -0.89744108255E+02 -0.51988716980E+03 -0.77461885779E+03  0.93721451607E+03  0.00000000000E+00 0. -1.
<mgrwt>
<rscale>  0 0.11148499E+04</rscale>
<asrwt>0</asrwt>
<pdfrwt beam="1">  1        2 0.38072478E+00 0.11148499E+04</pdfrwt>
<pdfrwt beam="2">  1       -2 0.19316788E-01 0.11148499E+04</pdfrwt>
<totfact> 0.81796982E+01</totfact>
</mgrwt>
</event>
<event>
 6    1  0.5040916E-004  0.1847526E+04  0.7818608E-02  0.8681426E-01
         -2   -1    0    0    0  501 -0.00000000000E+00  0.00000000000E+00  0.30697230173E+03  0.30697230173E+03  0.00000000000E+00 0. -1.
          2   -1    0    0  501    0  0.00000000000E+00 -0.00000000000E+00 -0.27798526773E+04  0.27798526773E+04  0.00000000000E+00 0.  1.
         23    2    1    2    0    0 -0.85357220215E+03 -0.97887021041E+02 -0.68269085152E+03  0.11011397308E+04  0.90964469694E+02 0.  0.
         11    1    3    3    0    0 -0.25839486845E+03 -0.64040182333E+02 -0.24235909509E+03  0.36000969982E+03  0.00000000000E+00 0. -1.
        -11    1    3    3    0    0 -0.59517733370E+03 -0.33846838708E+02 -0.44033175644E+03  0.74113003095E+03  0.00000000000E+00 0.  1.
         22    1    1    2    0    0  0.85357220215E+03  0.97887021041E+02 -0.17901895240E+04  0.19856852482E+04  0.00000000000E+00 0.  1.
<mgrwt>
<rscale>  0 0.18475257E+04</rscale>
<asrwt>0</asrwt>
<pdfrwt beam="1">  1        2 0.42766965E+00 0.18475257E+04</pdfrwt>
<pdfrwt beam="2">  1       -2 0.47226507E-01 0.18475257E+04</pdfrwt>
<totfact> 0.95255686E+00</totfact>
</mgrwt>
</event>
<event>
 6    1  0.5040916E-004  0.2104730E+04  0.7818608E-02  0.8559163E-01
          2   -1    0    0  501    0  0.00000000000E+00  0.00000000000E+00  0.15426961632E+04  0.15426961632E+04  0.00000000000E+00 0.  1.
         -2   -1    0    0    0  501 -0.00000000000E+00 -0.00000000000E+00 -0.71788064722E+03  0.71788064722E+03  0.00000000000E+00 0. -1.
         23    2    1    2    0    0 -0.58032184307E+03  0.65237839015E+03  0.10402472227E+04  0.13612538286E+04  0.92340110217E+02 0.  0.
         13    1    3    3    0    0 -0.23194480745E+03  0.27577333151E+03  0.36138531745E+03  0.51034172056E+03  0.00000000000E+00 0. -1.
        -13    1    3    3    0    0 -0.34837703562E+03  0.37660505863E+03  0.67886190525E+03  0.85091210800E+03  0.00000000000E+00 0.  1.
         22    1    1    2    0    0  0.58032184307E+03 -0.65237839015E+03 -0.21543170670E+03  0.89932298187E+03  0.00000000000E+00 0. -1.
<mgrwt>
<rscale>  0 0.21047296E+04</rscale>
<asrwt>0</asrwt>
<pdfrwt beam="1">  1        2 0.23733787E+00 0.21047296E+04</pdfrwt>
<pdfrwt beam="2">  1       -2 0.11044318E+00 0.21047296E+04</pdfrwt>
<totfact> 0.71988952E+00</totfact>
</mgrwt>
</event>
<event>
 6    1  0.5040916E-004  0.8308833E+03  0.7818608E-02  0.9516360E-01
          2   -1    0    0  501    0  0.00000000000E+00  0.00000000000E+00  0.67757818392E+03  0.67757818392E+03  0.00000000000E+00 0.  1.
         -2   -1    0    0    0  501 -0.00000000000E+00 -0.00000000000E+00 -0.25471858079E+03  0.25471858079E+03  0.00000000000E+00 0. -1.
         23    2    1    2    0    0  0.19440073728E+03  0.29831488966E+03  0.44289656977E+03  0.57566684436E+03  0.91932171358E+02 0.  0.
         13    1    3    3    0    0  0.15942531193E+03  0.16420410050E+03  0.28667218157E+03  0.36682469435E+03  0.00000000000E+00 0.  1.
        -13    1    3    3    0    0  0.34975425352E+02  0.13411078917E+03  0.15622438821E+03  0.20884215001E+03  0.00000000000E+00 0. -1.
         22    1    1    2    0    0 -0.19440073728E+03 -0.29831488966E+03 -0.20036966644E+02  0.35662992034E+03  0.00000000000E+00 0. -1.
<mgrwt>
<rscale>  0 0.83088327E+03</rscale>
<asrwt>0</asrwt>
<pdfrwt beam="1">  1        2 0.10424280E+00 0.83088327E+03</pdfrwt>
<pdfrwt beam="2">  1       -2 0.39187474E-01 0.83088327E+03</pdfrwt>
<totfact> 0.26410351E+02</totfact>
</mgrwt>
</event>
<event>
 6    1  0.5040916E-004  0.4738535E+04  0.7818608E-02  0.7870157E-01
         -2   -1    0    0    0  501 -0.00000000000E+00  0.00000000000E+00  0.27986773234E+04  0.27986773234E+04  0.00000000000E+00 0. -1.
          2   -1    0    0  501    0  0.00000000000E+00 -0.00000000000E+00 -0.20057432097E+04  0.20057432097E+04  0.00000000000E+00 0.  1.
         23    2    1    2    0    0 -0.12975002075E+04  0.34305848493E+03  0.23752934341E+04  0.27295574216E+04  0.85257887016E+02 0.  0.
         11    1    3    3    0    0 -0.86072941244E+03  0.20207073046E+03  0.16277133329E+04  0.18523332302E+04  0.00000000000E+00 0.  1.
        -11    1    3    3    0    0 -0.43677079506E+03  0.14098775447E+03  0.74758010119E+03  0.87722419142E+03  0.00000000000E+00 0. -1.
         22    1    1    2    0    0  0.12975002075E+04 -0.34305848493E+03 -0.15823593205E+04  0.20748631115E+04  0.00000000000E+00 0.  1.
<mgrwt>
<rscale>  0 0.47385348E+04</rscale>
<asrwt>0</asrwt>
<pdfrwt beam="1">  1        2 0.30857588E+00 0.47385348E+04</pdfrwt>
<pdfrwt beam="2">  1       -2 0.43056574E+00 0.47385348E+04</pdfrwt>
<totfact> 0.23039131E-02</totfact>
</mgrwt>
</event>
<event>
 6    1  0.5040916E-004  0.3666195E+04  0.7818608E-02  0.8075495E-01
         -2   -1    0    0    0  501 -0.00000000000E+00  0.00000000000E+00  0.10308615745E+04  0.10308615745E+04  0.00000000000E+00 0. -1.
          2   -1    0    0  501    0  0.00000000000E+00 -0.00000000000E+00 -0.32596483989E+04  0.32596483989E+04  0.00000000000E+00 0.  1.
         23    2    1    2    0    0 -0.83489487502E+03 -0.16036906393E+04 -0.14608644480E+04  0.23261836525E+04  0.90179437565E+02 0.  0.
         11    1    3    3    0    0 -0.60074764406E+03 -0.10854958001E+04 -0.96616077006E+03  0.15724711436E+04  0.00000000000E+00 0.  1.
        -11    1    3    3    0    0 -0.23414723096E+03 -0.51819483915E+03 -0.49470367791E+03  0.75371250887E+03  0.00000000000E+00 0. -1.
         22    1    1    2    0    0  0.83489487502E+03  0.16036906393E+04 -0.76792237648E+03  0.19643263209E+04  0.00000000000E+00 0.  1.
<mgrwt>
<rscale>  0 0.36661949E+04</rscale>
<asrwt>0</asrwt>
<pdfrwt beam="1">  1        2 0.50148436E+00 0.36661949E+04</pdfrwt>
<pdfrwt beam="2">  1       -2 0.15859409E+00 0.36661949E+04</pdfrwt>
<totfact> 0.24752155E-01</totfact>
</mgrwt>
</event>
<event>
 6    1  0.5040916E-004  0.4593720E+04  0.7818608E-02  0.7894431E-01
          2   -1    0    0  501    0  0.00000000000E+00  0.00000000000E+00  0.33767596713E+04  0.33767596713E+04  0.00000000000E+00 0.  1.
         -2   -1    0    0    0  501 -0.00000000000E+00 -0.00000000000E+00 -0.15623163052E+04  0.15623163052E+04  0.00000000000E+00 0. -1.
         23    2    1    2    0    0  0.17076980292E+04 -0.14320635729E+04  0.15007457516E+04  0.26884216651E+04  0.91294044764E+02 0.  0.
         13    1    3    3    0    0  0.13403763496E+04 -0.10989145567E+04  0.12058326328E+04  0.21114578613E+04  0.00000000000E+00 0. -1.
        -13    1    3    3    0    0  0.36732167961E+03 -0.33314901624E+03  0.29491311877E+03  0.57696380386E+03  0.00000000000E+00 0.  1.
         22    1    1    2    0    0 -0.17076980292E+04  0.14320635729E+04  0.31369761443E+03  0.22506543114E+04  0.00000000000E+00 0. -1.
<mgrwt>
<rscale>  0 0.45937204E+04</rscale>
<asrwt>0</asrwt>
<pdfrwt beam="1">  1        2 0.51950148E+00 0.45937204E+04</pdfrwt>
<pdfrwt beam="2">  1       -2 0.24035636E+00 0.45937204E+04</pdfrwt>
<totfact> 0.54720682E-02</totfact>
</mgrwt>
</event>
<event>
 6    1  0.5040916E-004  0.3010302E+04  0.7818608E-02  0.8240795E-01
          2   -1    0    0  501    0  0.00000000000E+00  0.00000000000E+00  0.25372847508E+04  0.25372847508E+04  0.00000000000E+00 0.  1.
         -2   -1    0    0    0  501 -0.00000000000E+00 -0.00000000000E+00 -0.89287567123E+03  0.89287567123E+03  0.00000000000E+00 0. -1.
         23    2    1    2    0    0 -0.66796133296E+02 -0.89891039366E+03  0.21944793688E+04  0.23741874384E+04  0.92329156964E+02 0.  0.
         13    1    3    3    0    0 -0.22948697052E+02 -0.45795426379E+03  0.99836795223E+03  0.10986297459E+04  0.00000000000E+00 0. -1.
        -13    1    3    3    0    0 -0.43847436244E+02 -0.44095612987E+03  0.11961114165E+04  0.12755576925E+04  0.00000000000E+00 0.  1.
         22    1    1    2    0    0  0.66796133296E+02  0.89891039366E+03 -0.55007028918E+03  0.10559729837E+04  0.00000000000E+00 0. -1.
<mgrwt>
<rscale>  0 0.30103022E+04</rscale>
<asrwt>0</asrwt>
<pdfrwt beam="1">  1        2 0.39035150E+00 0.30103022E+04</pdfrwt>
<pdfrwt beam="2">  1       -2 0.13736549E+00 0.30103022E+04</pdfrwt>
<totfact> 0.10684152E+00</totfact>
</mgrwt>
</event>
<event>
 6    1  0.5040916E-004  0.9175113E+03  0.7818608E-02  0.9403952E-01
          2   -1    0    0  501    0  0.00000000000E+00  0.00000000000E+00  0.81237149525E+03  0.81237149525E+03  0.00000000000E+00 0.  1.
         -2   -1    0    0    0  501 -0.00000000000E+00 -0.00000000000E+00 -0.25906465876E+03  0.25906465876E+03  0.00000000000E+00 0. -1.
         23    2    1    2    0    0 -0.38135130011E+03  0.27920941825E+02 -0.58595754621E+01  0.39403267798E+03  0.94968540080E+02 0.  0.
         13    1    3    3    0    0 -0.18685467154E+03  0.60184554893E+02  0.72594070873E+01  0.19644222539E+03  0.00000000000E+00 0. -1.
        -13    1    3    3    0    0 -0.19449662857E+03 -0.32263613068E+02 -0.13118982549E+02  0.19759045259E+03  0.00000000000E+00 0.  1.
         22    1    1    2    0    0  0.38135130011E+03 -0.27920941825E+02  0.55916641195E+03  0.67740347603E+03  0.00000000000E+00 0. -1.
<mgrwt>
<rscale>  0 0.91751130E+03</rscale>
<asrwt>0</asrwt>
<pdfrwt beam="1">  1        2 0.12498023E+00 0.91751130E+03</pdfrwt>
<pdfrwt beam="2">  1       -2 0.39856102E-01 0.91751130E+03</pdfrwt>
<totfact> 0.20129865E+02</totfact>
</mgrwt>
</event>
<event>
 6    1  0.5040916E-004  0.5228784E+04  0.7818608E-02  0.7794153E-01
          2   -1    0    0  501    0  0.00000000000E+00  0.00000000000E+00  0.22467729379E+04  0.22467729379E+04  0.00000000000E+00 0.  1.
         -2   -1    0    0    0  501 -0.00000000000E+00 -0.00000000000E+00 -0.30421611340E+04  0.30421611340E+04  0.00000000000E+00 0. -1.
         23    2    1    2    0    0  0.91610029836E+03  0.68609233818E+03  0.19788631624E+04  0.22878620878E+04  0.91929670639E+02 0.  0.
         11    1    3    3    0    0  0.64664672066E+03  0.49861071105E+03  0.13292734216E+04  0.15600424519E+04  0.00000000000E+00 0. -1.
        -11    1    3    3    0    0  0.26945357771E+03  0.18748162713E+03  0.64958974080E+03  0.72781963590E+03  0.00000000000E+00 0.  1.
         22    1    1    2    0    0 -0.91610029836E+03 -0.68609233818E+03 -0.27742513585E+04  0.30010719840E+04  0.00000000000E+00 0. -1.
<mgrwt>
<rscale>  0 0.52287839E+04</rscale>
<asrwt>0</asrwt>
<pdfrwt beam="1">  1        2 0.34565738E+00 0.52287839E+04</pdfrwt>
<pdfrwt beam="2">  1       -2 0.46802479E+00 0.52287839E+04</pdfrwt>
<totfact> 0.92211187E-03</totfact>
</mgrwt>
</event>
<event>
 6    1  0.5040916E-004  0.1206381E+04  0.7818608E-02  0.9107290E-01
         -2   -1    0    0    0  501 -0.00000000000E+00  0.00000000000E+00  0.44781946607E+03  0.44781946607E+03  0.00000000000E+00 0. -1.
          2   -1    0    0  501    0  0.00000000000E+00 -0.00000000000E+00 -0.81246714551E+03  0.81246714551E+03  0.00000000000E+00 0.  1.
         23    2    1    2    0    0  0.51534321227E+03  0.22595573571E+03  0.33311746111E+02  0.57107958513E+03  0.91583836932E+02 0.  0.
         13    1    3    3    0    0  0.37781024548E+03  0.13778372017E+03  0.56401866548E+02  0.40608632787E+03  0.00000000000E+00 0.  1.
        -13    1    3    3    0    0  0.13753296679E+03  0.88172015539E+02 -0.23090120437E+02  0.16499325726E+03  0.00000000000E+00 0. -1.
         22    1    1    2    0    0 -0.51534321227E+03 -0.22595573571E+03 -0.39795942555E+03  0.68920702646E+03  0.00000000000E+00 0.  1.
<mgrwt>
<rscale>  0 0.12063807E+04</rscale>
<asrwt>0</asrwt>
<pdfrwt beam="1">  1        2 0.12499494E+00 0.12063807E+04</pdfrwt>
<pdfrwt beam="2">  1       -2 0.68895304E-01 0.12063807E+04</pdfrwt>
<totfact> 0.64077805E+01</totfact>
</mgrwt>
</event>
<event>
 6    1  0.5040916E-004  0.1248956E+04  0.7818608E-02  0.9071053E-01
          1   -1    0    0  501    0  0.00000000000E+00  0.00000000000E+00  0.26865706250E+03  0.26865706250E+03  0.00000000000E+00 0.  1.
         -1   -1    0    0    0  501 -0.00000000000E+00 -0.00000000000E+00 -0.14515625463E+04  0.14515625463E+04  0.00000000000E+00 0. -1.
         23    2    1    2    0    0  0.12529746188E+03  0.60824061926E+03 -0.57996667203E+03  0.85466122511E+03  0.91806122705E+02 0.  0.
         13    1    3    3    0    0  0.39298977237E+02  0.53649909564E+02 -0.64407653208E+02  0.92580063728E+02  0.00000000000E+00 0. -1.
        -13    1    3    3    0    0  0.85998484644E+02  0.55459070970E+03 -0.51555901882E+03  0.76208116138E+03  0.00000000000E+00 0.  1.
         22    1    1    2    0    0 -0.12529746188E+03 -0.60824061926E+03 -0.60293881181E+03  0.86555838374E+03  0.00000000000E+00 0.  1.
<mgrwt>
<rscale>  0 0.12489556E+04</rscale>
<asrwt>0</asrwt>
<pdfrwt beam="1">  1        1 0.41331856E-01 0.12489556E+04</pdfrwt>
<pdfrwt beam="2">  1       -1 0.22331731E+00 0.12489556E+04</pdfrwt>
<totfact> 0.10450089E+01</totfact>
</mgrwt>
</event>
<event>
 6    1  0.5040916E-004  0.2840991E+04  0.7818608E-02  0.8290654E-01
         -2   -1    0    0    0  501 -0.00000000000E+00  0.00000000000E+00  0.27850765583E+04  0.27850765583E+04  0.00000000000E+00 0. -1.
          2   -1    0    0  501    0  0.00000000000E+00 -0.00000000000E+00 -0.72450696543E+03  0.72450696543E+03  0.00000000000E+00 0.  1.
         23    2    1    2    0    0 -0.76021421052E+03 -0.38262975918E+03  0.24347748695E+04  0.25798734788E+04  0.57335182273E+02 0.  0.
         11    1    3    3    0    0 -0.20877939489E+03 -0.12355305522E+03  0.63449659219E+03  0.67929383825E+03  0.00000000000E+00 0. -1.
        -11    1    3    3    0    0 -0.55143481563E+03 -0.25907670396E+03  0.18002782773E+04  0.19005796406E+04  0.00000000000E+00 0.  1.
         22    1    1    2    0    0  0.76021421052E+03  0.38262975918E+03 -0.37420527665E+03  0.92971004489E+03  0.00000000000E+00 0.  1.
<mgrwt>
<rscale>  0 0.28409909E+04</rscale>
<asrwt>0</asrwt>
<pdfrwt beam="1">  1        2 0.11146261E+00 0.28409909E+04</pdfrwt>
<pdfrwt beam="2">  1       -2 0.42847331E+00 0.28409909E+04</pdfrwt>
<totfact> 0.16373747E-01</totfact>
</mgrwt>
</event>
<event>
 6    1  0.5040916E-004  0.2098246E+04  0.7818608E-02  0.8562016E-01
          2   -1    0    0  501    0  0.00000000000E+00  0.00000000000E+00  0.24138046852E+04  0.24138046852E+04  0.00000000000E+00 0.  1.
         -2   -1    0    0    0  501 -0.00000000000E+00 -0.00000000000E+00 -0.45598514584E+03  0.45598514584E+03  0.00000000000E+00 0. -1.
         23    2    1    2    0    0 -0.82959551579E+03 -0.43350783176E+03  0.33821011053E+03  0.99915024470E+03  0.88075947900E+02 0.  0.
         11    1    3    3    0    0 -0.61037274085E+03 -0.33488246221E+03  0.21270474684E+03  0.72797283988E+03  0.00000000000E+00 0. -1.
        -11    1    3    3    0    0 -0.21922277494E+03 -0.98625369552E+02  0.12550536369E+03  0.27117740482E+03  0.00000000000E+00 0.  1.
         22    1    1    2    0    0  0.82959551579E+03  0.43350783176E+03  0.16196094288E+04  0.18706395863E+04  0.00000000000E+00 0.  1.
<mgrwt>
<rscale>  0 0.20982460E+04</rscale>
<asrwt>0</asrwt>
<pdfrwt beam="1">  1        2 0.37135456E+00 0.20982460E+04</pdfrwt>
<pdfrwt beam="2">  1       -2 0.70151562E-01 0.20982460E+04</pdfrwt>
<totfact> 0.66577452E+00</totfact>
</mgrwt>
</event>
<event>
 6    1  0.5040916E-004  0.7807763E+03  0.7818608E-02  0.9588267E-01
          2   -1    0    0  501    0  0.00000000000E+00  0.00000000000E+00  0.31010787029E+03  0.31010787029E+03  0.00000000000E+00 0.  1.
         -2   -1    0    0    0  501 -0.00000000000E+00 -0.00000000000E+00 -0.49145121225E+03  0.49145121225E+03  0.00000000000E+00 0. -1.
         23    2    1    2    0    0  0.21179256484E+03  0.39041168731E+02  0.23659576637E+03  0.33139591761E+03  0.86402512479E+02 0.  0.
         11    1    3    3    0    0  0.37059320781E+02  0.58631593110E+01  0.10100999716E+03  0.10775337312E+03  0.00000000000E+00 0. -1.
        -11    1    3    3    0    0  0.17473324406E+03  0.33178009420E+02  0.13558576922E+03  0.22364254449E+03  0.00000000000E+00 0.  1.
         22    1    1    2    0    0 -0.21179256484E+03 -0.39041168731E+02 -0.41793910834E+03  0.47016316493E+03  0.00000000000E+00 0. -1.
<mgrwt>
<rscale>  0 0.78077625E+03</rscale>
<asrwt>0</asrwt>
<pdfrwt beam="1">  1        2 0.47708903E-01 0.78077625E+03</pdfrwt>
<pdfrwt beam="2">  1       -2 0.75607879E-01 0.78077625E+03</pdfrwt>
<totfact> 0.16731008E+02</totfact>
</mgrwt>
</event>
<event>
 6    1  0.5040916E-004  0.2000397E+04  0.7818608E-02  0.8606435E-01
         -2   -1    0    0    0  501 -0.00000000000E+00  0.00000000000E+00  0.51186988978E+03  0.51186988978E+03  0.00000000000E+00 0. -1.
          2   -1    0    0  501    0  0.00000000000E+00 -0.00000000000E+00 -0.19543980110E+04  0.19543980110E+04  0.00000000000E+00 0.  1.
         23    2    1    2    0    0  0.23788701562E+03  0.92979126500E+03 -0.38507836259E+03  0.10382265776E+04  0.92342040393E+02 0.  0.
         11    1    3    3    0    0  0.72443410188E+02  0.23257745046E+03 -0.57319273292E+02  0.25025150796E+03  0.00000000000E+00 0. -1.
        -11    1    3    3    0    0  0.16544360543E+03  0.69721381454E+03 -0.32775908929E+03  0.78797506964E+03  0.00000000000E+00 0.  1.
         22    1    1    2    0    0 -0.23788701562E+03 -0.92979126500E+03 -0.10574497587E+04  0.14280413232E+04  0.00000000000E+00 0.  1.
<mgrwt>
<rscale>  0 0.20003975E+04</rscale>
<asrwt>0</asrwt>
<pdfrwt beam="1">  1        2 0.30067662E+00 0.20003975E+04</pdfrwt>
<pdfrwt beam="2">  1       -2 0.78749212E-01 0.20003975E+04</pdfrwt>
<totfact> 0.94230857E+00</totfact>
</mgrwt>
</event>
<event>
 6    1  0.5712864E-004  0.3628689E+04  0.7818608E-02  0.8083951E-01
          2   -1    0    0  501    0  0.00000000000E+00  0.00000000000E+00  0.17689641431E+04  0.17689641431E+04  0.00000000000E+00 0.  1.
         -2   -1    0    0    0  501 -0.00000000000E+00 -0.00000000000E+00 -0.18608893996E+04  0.18608893996E+04  0.00000000000E+00 0. -1.
         23    2    1    2    0    0 -0.71832301419E+03  0.40423908599E+03  0.15694971012E+04  0.17752049392E+04  0.92920580133E+02 0.  0.
         13    1    3    3    0    0 -0.48785517155E+03  0.23411156975E+03  0.96802111881E+03  0.11089976474E+04  0.00000000000E+00 0. -1.
        -13    1    3    3    0    0 -0.23046784264E+03  0.17012751624E+03  0.60147598241E+03  0.66620729183E+03  0.00000000000E+00 0.  1.
         22    1    1    2    0    0  0.71832301419E+03 -0.40423908599E+03 -0.16614223577E+04  0.18546486034E+04  0.00000000000E+00 0. -1.
<mgrwt>
<rscale>  0 0.36286894E+04</rscale>
<asrwt>0</asrwt>
<pdfrwt beam="1">  1        2 0.27214833E+00 0.36286894E+04</pdfrwt>
<pdfrwt beam="2">  1       -2 0.28629068E+00 0.36286894E+04</pdfrwt>
<totfact> 0.28142241E-01</totfact>
</mgrwt>
</event>
<event>
 6    1  0.5040916E-004  0.1663040E+04  0.7818608E-02  0.8782729E-01
         -2   -1    0    0    0  501 -0.00000000000E+00  0.00000000000E+00  0.53528187254E+03  0.53528187254E+03  0.00000000000E+00 0. -1.
          2   -1    0    0  501    0  0.00000000000E+00 -0.00000000000E+00 -0.12917036234E+04  0.12917036234E+04  0.00000000000E+00 0.  1.
         23    2    1    2    0    0  0.19746689967E+03  0.33836096461E+03  0.42341332117E+03  0.58380726413E+03  0.89837421366E+02 0.  0.
         11    1    3    3    0    0  0.77761122499E+02  0.68816481352E+02  0.79676455177E+02  0.13088482642E+03  0.00000000000E+00 0. -1.
        -11    1    3    3    0    0  0.11970577717E+03  0.26954448325E+03  0.34373686599E+03  0.45292243771E+03  0.00000000000E+00 0.  1.
         22    1    1    2    0    0 -0.19746689967E+03 -0.33836096461E+03 -0.11798350720E+04  0.12431782318E+04  0.00000000000E+00 0.  1.
<mgrwt>
<rscale>  0 0.16630400E+04</rscale>
<asrwt>0</asrwt>
<pdfrwt beam="1">  1        2 0.19872363E+00 0.16630400E+04</pdfrwt>
<pdfrwt beam="2">  1       -2 0.82351058E-01 0.16630400E+04</pdfrwt>
<totfact> 0.20657325E+01</totfact>
</mgrwt>
</event>
<event>
 6    1  0.5040916E-004  0.1794987E+04  0.7818608E-02  0.8708970E-01
         -2   -1    0    0    0  501 -0.00000000000E+00  0.00000000000E+00  0.31490098028E+03  0.31490098028E+03  0.00000000000E+00 0. -1.
          2   -1    0    0  501    0  0.00000000000E+00 -0.00000000000E+00 -0.25579294244E+04  0.25579294244E+04  0.00000000000E+00 0.  1.
         23    2    1    2    0    0  0.45276504665E+03 -0.67303401493E+03 -0.17305396723E+04  0.19133431906E+04  0.90242090976E+02 0.  0.
         13    1    3    3    0    0  0.31994929694E+03 -0.49229354665E+03 -0.11555154653E+04  0.12961236358E+04  0.00000000000E+00 0.  1.
        -13    1    3    3    0    0  0.13281574971E+03 -0.18074046828E+03 -0.57502420697E+03  0.61721955481E+03  0.00000000000E+00 0. -1.
         22    1    1    2    0    0 -0.45276504665E+03  0.67303401493E+03 -0.51248877185E+03  0.95948721409E+03  0.00000000000E+00 0. -1.
<mgrwt>
<rscale>  0 0.17949869E+04</rscale>
<asrwt>0</asrwt>
<pdfrwt beam="1">  1        2 0.39352760E+00 0.17949869E+04</pdfrwt>
<pdfrwt beam="2">  1       -2 0.48446305E-01 0.17949869E+04</pdfrwt>
<totfact> 0.12294095E+01</totfact>
</mgrwt>
</event>
<event>
 6    1  0.5040916E-004  0.2988524E+04  0.7818608E-02  0.8247016E-01
         -2   -1    0    0    0  501 -0.00000000000E+00  0.00000000000E+00  0.10981547334E+04  0.10981547334E+04  0.00000000000E+00 0. -1.
          2   -1    0    0  501    0  0.00000000000E+00 -0.00000000000E+00 -0.20332455399E+04  0.20332455399E+04  0.00000000000E+00 0.  1.
         23    2    1    2    0    0 -0.14894885834E+04 -0.41764314986E+02 -0.56383512442E+03  0.15957729489E+04  0.90888715832E+02 0.  0.
         13    1    3    3    0    0 -0.63717037376E+03  0.22928851686E+02 -0.26115410296E+03  0.68899439978E+03  0.00000000000E+00 0. -1.
        -13    1    3    3    0    0 -0.85231820965E+03 -0.64693166672E+02 -0.30268102145E+03  0.90677854907E+03  0.00000000000E+00 0.  1.
         22    1    1    2    0    0  0.14894885834E+04  0.41764314986E+02 -0.37125568202E+03  0.15356273244E+04  0.00000000000E+00 0. -1.
<mgrwt>
<rscale>  0 0.29885235E+04</rscale>
<asrwt>0</asrwt>
<pdfrwt beam="1">  1        2 0.31280700E+00 0.29885235E+04</pdfrwt>
<pdfrwt beam="2">  1       -2 0.16894688E+00 0.29885235E+04</pdfrwt>
<totfact> 0.11896642E+00</totfact>
</mgrwt>
</event>
<event>
 6    1  0.5040916E-004  0.1521194E+04  0.7818608E-02  0.8870480E-01
         -2   -1    0    0    0  501 -0.00000000000E+00  0.00000000000E+00  0.14572519401E+03  0.14572519401E+03  0.00000000000E+00 0. -1.
          2   -1    0    0  501    0  0.00000000000E+00 -0.00000000000E+00 -0.39698523048E+04  0.39698523048E+04  0.00000000000E+00 0.  1.
         23    2    1    2    0    0 -0.64041641322E+03  0.35473894410E+03 -0.24492665271E+04  0.25579464368E+04  0.90612095988E+02 0.  0.
         13    1    3    3    0    0 -0.45362629148E+03  0.23333652919E+03 -0.15645106148E+04  0.16455747361E+04  0.00000000000E+00 0.  1.
        -13    1    3    3    0    0 -0.18679012174E+03  0.12140241491E+03 -0.88475591224E+03  0.91237170066E+03  0.00000000000E+00 0. -1.
         22    1    1    2    0    0  0.64041641322E+03 -0.35473894410E+03 -0.13748605837E+04  0.15576310620E+04  0.00000000000E+00 0. -1.
<mgrwt>
<rscale>  0 0.15211936E+04</rscale>
<asrwt>0</asrwt>
<pdfrwt beam="1">  1        2 0.61074653E+00 0.15211936E+04</pdfrwt>
<pdfrwt beam="2">  1       -2 0.22419260E-01 0.15211936E+04</pdfrwt>
<totfact> 0.62303641E+00</totfact>
</mgrwt>
</event>
<event>
 6    1  0.5040916E-004  0.1009535E+04  0.7818608E-02  0.9298148E-01
         -2   -1    0    0    0  501 -0.00000000000E+00  0.00000000000E+00  0.41754293960E+03  0.41754293960E+03  0.00000000000E+00 0. -1.
          2   -1    0    0  501    0  0.00000000000E+00 -0.00000000000E+00 -0.61021351373E+03  0.61021351373E+03  0.00000000000E+00 0.  1.
         23    2    1    2    0    0 -0.16457587244E+03 -0.30663203301E+03  0.26935503613E+03  0.44933093004E+03  0.90761928900E+02 0.  0.
         11    1    3    3    0    0 -0.38175407895E+02 -0.10271268125E+03  0.13664844890E+03  0.17515723006E+03  0.00000000000E+00 0.  1.
        -11    1    3    3    0    0 -0.12640046455E+03 -0.20391935176E+03  0.13270658724E+03  0.27417369998E+03  0.00000000000E+00 0. -1.
         22    1    1    2    0    0  0.16457587244E+03  0.30663203301E+03 -0.46202561026E+03  0.57842552329E+03  0.00000000000E+00 0.  1.
<mgrwt>
<rscale>  0 0.10095352E+04</rscale>
<asrwt>0</asrwt>
<pdfrwt beam="1">  1        2 0.93879002E-01 0.10095352E+04</pdfrwt>
<pdfrwt beam="2">  1       -2 0.64237375E-01 0.10095352E+04</pdfrwt>
<totfact> 0.10864937E+02</totfact>
</mgrwt>
</event>
<event>
 6    1  0.5040916E-004  0.2367431E+04  0.7818608E-02  0.8451799E-01
          2   -1    0    0  501    0  0.00000000000E+00  0.00000000000E+00  0.23088361443E+04  0.23088361443E+04  0.00000000000E+00 0.  1.
         -2   -1    0    0    0  501 -0.00000000000E+00 -0.00000000000E+00 -0.60687811085E+03  0.60687811085E+03  0.00000000000E+00 0. -1.
         23    2    1    2    0    0 -0.17252807621E+03  0.51723130574E+03  0.21437429131E+04  0.22139535832E+04  0.93073254538E+02 0.  0.
         13    1    3    3    0    0 -0.16492041115E+03  0.42393711628E+03  0.16577061443E+04  0.17189854803E+04  0.00000000000E+00 0.  1.
        -13    1    3    3    0    0 -0.76076650601E+01  0.93294189464E+02  0.48603676875E+03  0.49496810294E+03  0.00000000000E+00 0. -1.
         22    1    1    2    0    0  0.17252807621E+03 -0.51723130574E+03 -0.44178487964E+03  0.70176067188E+03  0.00000000000E+00 0. -1.
<mgrwt>
<rscale>  0 0.23674308E+04</rscale>
<asrwt>0</asrwt>
<pdfrwt beam="1">  1        2 0.35520556E+00 0.23674308E+04</pdfrwt>
<pdfrwt beam="2">  1       -2 0.93365865E-01 0.23674308E+04</pdfrwt>
<totfact> 0.39210574E+00</totfact>
</mgrwt>
</event>
<event>
 6    1  0.5040916E-004  0.1551968E+04  0.7818608E-02  0.8850611E-01
         -1   -1    0    0    0  501 -0.00000000000E+00  0.00000000000E+00  0.10483982203E+04  0.10483982203E+04  0.00000000000E+00 0. -1.
          1   -1    0    0  501    0  0.00000000000E+00 -0.00000000000E+00 -0.57435377621E+03  0.57435377621E+03  0.00000000000E+00 0.  1.
         23    2    1    2    0    0  0.43949716080E+03 -0.57443092826E+03  0.52416413954E+03  0.89774121754E+03  0.89791997389E+02 0.  0.
         13    1    3    3    0    0  0.24859455538E+03 -0.34522255929E+03  0.25518381518E+03  0.49608129167E+03  0.00000000000E+00 0.  1.
        -13    1    3    3    0    0  0.19090260542E+03 -0.22920836897E+03  0.26898032436E+03  0.40165992588E+03  0.00000000000E+00 0. -1.
         22    1    1    2    0    0 -0.43949716080E+03  0.57443092826E+03 -0.50119695481E+02  0.72501077893E+03  0.00000000000E+00 0.  1.
<mgrwt>
<rscale>  0 0.15519684E+04</rscale>
<asrwt>0</asrwt>
<pdfrwt beam="1">  1        1 0.88362119E-01 0.15519684E+04</pdfrwt>
<pdfrwt beam="2">  1       -1 0.16129203E+00 0.15519684E+04</pdfrwt>
<totfact> 0.10038353E+01</totfact>
</mgrwt>
</event>
<event>
 6    1  0.5040916E-004  0.2902765E+04  0.7818608E-02  0.8272055E-01
         -2   -1    0    0    0  501 -0.00000000000E+00  0.00000000000E+00  0.92742583535E+03  0.92742583535E+03  0.00000000000E+00 0. -1.
          2   -1    0    0  501    0  0.00000000000E+00 -0.00000000000E+00 -0.22713522665E+04  0.22713522665E+04  0.00000000000E+00 0.  1.
         23    2    1    2    0    0 -0.12107378852E+04 -0.31502971091E+03 -0.14803606869E+04  0.19403090909E+04  0.90563015284E+02 0.  0.
         13    1    3    3    0    0 -0.75144357336E+03 -0.23898069466E+03 -0.91210908333E+03  0.12057040252E+04  0.00000000000E+00 0.  1.
        -13    1    3    3    0    0 -0.45929431181E+03 -0.76049016251E+02 -0.56825160354E+03  0.73460506577E+03  0.00000000000E+00 0. -1.
         22    1    1    2    0    0  0.12107378852E+04  0.31502971091E+03  0.13643425573E+03  0.12584690109E+04  0.00000000000E+00 0. -1.
<mgrwt>
<rscale>  0 0.29027647E+04</rscale>
<asrwt>0</asrwt>
<pdfrwt beam="1">  1        2 0.34943881E+00 0.29027647E+04</pdfrwt>
<pdfrwt beam="2">  1       -2 0.14268090E+00 0.29027647E+04</pdfrwt>
<totfact> 0.13880379E+00</totfact>
</mgrwt>
</event>
<event>
 6    1  0.5040916E-004  0.5134413E+04  0.7818608E-02  0.7808101E-01
          2   -1    0    0  501    0  0.00000000000E+00  0.00000000000E+00  0.37718116157E+04  0.37718116157E+04  0.00000000000E+00 0.  1.
         -2   -1    0    0    0  501 -0.00000000000E+00 -0.00000000000E+00 -0.17473165791E+04  0.17473165791E+04  0.00000000000E+00 0. -1.
         23    2    1    2    0    0  0.93978311235E+03  0.17306416166E+04  0.27814844999E+04  0.34093069344E+04  0.91679042738E+02 0.  0.
         11    1    3    3    0    0  0.44378843423E+03  0.80794788947E+03  0.12233933622E+04  0.15318026260E+04  0.00000000000E+00 0. -1.
        -11    1    3    3    0    0  0.49599467812E+03  0.92269372711E+03  0.15580911377E+04  0.18775043084E+04  0.00000000000E+00 0.  1.
         22    1    1    2    0    0 -0.93978311235E+03 -0.17306416166E+04 -0.75698946326E+03  0.21098212604E+04  0.00000000000E+00 0. -1.
<mgrwt>
<rscale>  0 0.51344129E+04</rscale>
<asrwt>0</asrwt>
<pdfrwt beam="1">  1        2 0.58027871E+00 0.51344129E+04</pdfrwt>
<pdfrwt beam="2">  1       -2 0.26881794E+00 0.51344129E+04</pdfrwt>
<totfact> 0.18251525E-02</totfact>
</mgrwt>
</event>
<event>
 6    1  0.5040916E-004  0.2526771E+04  0.7818608E-02  0.8393510E-01
          1   -1    0    0  501    0  0.00000000000E+00  0.00000000000E+00  0.29418010119E+04  0.29418010119E+04  0.00000000000E+00 0.  1.
         -1   -1    0    0    0  501 -0.00000000000E+00 -0.00000000000E+00 -0.54257336051E+03  0.54257336051E+03  0.00000000000E+00 0. -1.
         23    2    1    2    0    0  0.80426749671E+03 -0.84641993970E+03  0.18607175889E+04  0.21985804511E+04  0.90626342272E+02 0.  0.
         11    1    3    3    0    0  0.29757970393E+03 -0.29148744063E+03  0.58847284721E+03  0.72098467400E+03  0.00000000000E+00 0.  1.
        -11    1    3    3    0    0  0.50668779278E+03 -0.55493249907E+03  0.12722447417E+04  0.14775957771E+04  0.00000000000E+00 0. -1.
         22    1    1    2    0    0 -0.80426749671E+03  0.84641993970E+03  0.53851006249E+03  0.12857939213E+04  0.00000000000E+00 0. -1.
<mgrwt>
<rscale>  0 0.25267710E+04</rscale>
<asrwt>0</asrwt>
<pdfrwt beam="1">  1        1 0.45258476E+00 0.25267710E+04</pdfrwt>
<pdfrwt beam="2">  1       -1 0.83472827E-01 0.25267710E+04</pdfrwt>
<totfact> 0.83156112E-01</totfact>
</mgrwt>
</event>
<event>
 6    1  0.5040916E-004  0.1759692E+04  0.7818608E-02  0.8728034E-01
         -2   -1    0    0    0  501 -0.00000000000E+00  0.00000000000E+00  0.69720694024E+03  0.69720694024E+03  0.00000000000E+00 0. -1.
          2   -1    0    0  501    0  0.00000000000E+00 -0.00000000000E+00 -0.11103283147E+04  0.11103283147E+04  0.00000000000E+00 0.  1.
         23    2    1    2    0    0 -0.72335530939E+03  0.13467374550E+03  0.28392800151E+03  0.79399800653E+03  0.91857514542E+02 0.  0.
         13    1    3    3    0    0 -0.66595353760E+02  0.38994539511E+02  0.39794326777E+02  0.86828012172E+02  0.00000000000E+00 0.  1.
        -13    1    3    3    0    0 -0.65675995563E+03  0.95679205993E+02  0.24413367473E+03  0.70716999436E+03  0.00000000000E+00 0. -1.
         22    1    1    2    0    0  0.72335530939E+03 -0.13467374550E+03 -0.69704937594E+03  0.10135372484E+04  0.00000000000E+00 0.  1.
<mgrwt>
<rscale>  0 0.17596916E+04</rscale>
<asrwt>0</asrwt>
<pdfrwt beam="1">  1        2 0.17081974E+00 0.17596916E+04</pdfrwt>
<pdfrwt beam="2">  1       -2 0.10726261E+00 0.17596916E+04</pdfrwt>
<totfact> 0.14201031E+01</totfact>
</mgrwt>
</event>
<event>
 6    1  0.5040916E-004  0.3527765E+04  0.7818608E-02  0.8107241E-01
          2   -1    0    0  501    0  0.00000000000E+00  0.00000000000E+00  0.24773688561E+04  0.24773688561E+04  0.00000000000E+00 0. -1.
         -2   -1    0    0    0  501 -0.00000000000E+00 -0.00000000000E+00 -0.12558812663E+04  0.12558812663E+04  0.00000000000E+00 0.  1.
         23    2    1    2    0    0 -0.15118918584E+04  0.79529028149E+03  0.15130396602E+03  0.17174136678E+04  0.91176711210E+02 0.  0.
         13    1    3    3    0    0 -0.24316362426E+03  0.15072012651E+03 -0.21076529103E+01  0.28609359814E+03  0.00000000000E+00 0.  1.
        -13    1    3    3    0    0 -0.12687282342E+04  0.64457015498E+03  0.15341161893E+03  0.14313200696E+04  0.00000000000E+00 0. -1.
         22    1    1    2    0    0  0.15118918584E+04 -0.79529028149E+03  0.10701836238E+04  0.20158364547E+04  0.00000000000E+00 0. -1.
<mgrwt>
<rscale>  0 0.35277648E+04</rscale>
<asrwt>0</asrwt>
<pdfrwt beam="1">  1        2 0.38113367E+00 0.35277648E+04</pdfrwt>
<pdfrwt beam="2">  1       -2 0.19321250E+00 0.35277648E+04</pdfrwt>
<totfact> 0.43385764E-01</totfact>
</mgrwt>
</event>
<event>
 6    1  0.5040916E-004  0.2700877E+04  0.7818608E-02  0.8334721E-01
         -2   -1    0    0    0  501 -0.00000000000E+00  0.00000000000E+00  0.20951094587E+04  0.20951094587E+04  0.00000000000E+00 0. -1.
          2   -1    0    0  501    0  0.00000000000E+00 -0.00000000000E+00 -0.87044807233E+03  0.87044807233E+03  0.00000000000E+00 0.  1.
         23    2    1    2    0    0  0.65572480958E+03  0.30665886022E+03  0.18626971790E+04  0.20006200433E+04  0.93941975257E+02 0.  0.
         13    1    3    3    0    0  0.18324113913E+03  0.92686577826E+02  0.41986215375E+03  0.46738885837E+03  0.00000000000E+00 0.  1.
        -13    1    3    3    0    0  0.47248367045E+03  0.21397228240E+03  0.14428350252E+04  0.15332311849E+04  0.00000000000E+00 0. -1.
         22    1    1    2    0    0 -0.65572480958E+03 -0.30665886022E+03 -0.63803579264E+03  0.96493748769E+03  0.00000000000E+00 0.  1.
<mgrwt>
<rscale>  0 0.27008769E+04</rscale>
<asrwt>0</asrwt>
<pdfrwt beam="1">  1        2 0.13391509E+00 0.27008769E+04</pdfrwt>
<pdfrwt beam="2">  1       -2 0.32232453E+00 0.27008769E+04</pdfrwt>
<totfact> 0.62425550E-01</totfact>
</mgrwt>
</event>
<event>
 6    1  0.5040916E-004  0.1105352E+04  0.7818608E-02  0.9199991E-01
          2   -1    0    0  501    0  0.00000000000E+00  0.00000000000E+00  0.32701567005E+04  0.32701567005E+04  0.00000000000E+00 0.  1.
         -2   -1    0    0    0  501 -0.00000000000E+00 -0.00000000000E+00 -0.93405577838E+02  0.93405577838E+02  0.00000000000E+00 0. -1.
         23    2    1    2    0    0 -0.29704976054E+03 -0.21940496757E+03  0.28350417224E+04  0.28604296773E+04  0.90660195151E+02 0.  0.
         11    1    3    3    0    0 -0.14459070309E+03 -0.13709121781E+03  0.12258634383E+04  0.12419507409E+04  0.00000000000E+00 0. -1.
        -11    1    3    3    0    0 -0.15245905744E+03 -0.82313749765E+02  0.16091782840E+04  0.16184789363E+04  0.00000000000E+00 0.  1.
         22    1    1    2    0    0  0.29704976054E+03  0.21940496757E+03  0.34170940035E+03  0.50313260113E+03  0.00000000000E+00 0. -1.
<mgrwt>
<rscale>  0 0.11053522E+04</rscale>
<asrwt>0</asrwt>
<pdfrwt beam="1">  1        2 0.50310094E+00 0.11053522E+04</pdfrwt>
<pdfrwt beam="2">  1       -2 0.14370091E-01 0.11053522E+04</pdfrwt>
<totfact> 0.44807138E+01</totfact>
</mgrwt>
</event>
<event>
 6    1  0.5040916E-004  0.2027664E+04  0.7818608E-02  0.8593795E-01
          2   -1    0    0  501    0  0.00000000000E+00  0.00000000000E+00  0.22879533032E+04  0.22879533032E+04  0.00000000000E+00 0.  1.
         -2   -1    0    0    0  501 -0.00000000000E+00 -0.00000000000E+00 -0.44924675650E+03  0.44924675650E+03  0.00000000000E+00 0. -1.
         23    2    1    2    0    0  0.80750638563E+02 -0.41040062061E+03  0.21648672263E+04  0.22067944376E+04  0.91335903382E+02 0.  0.
         11    1    3    3    0    0 -0.15115346504E+00 -0.18160484653E+03  0.10754043328E+04  0.10906304700E+04  0.00000000000E+00 0.  1.
        -11    1    3    3    0    0  0.80901792028E+02 -0.22879577408E+03  0.10894628936E+04  0.11161639676E+04  0.00000000000E+00 0. -1.
         22    1    1    2    0    0 -0.80750638563E+02  0.41040062061E+03 -0.32616067961E+03  0.53040562209E+03  0.00000000000E+00 0. -1.
<mgrwt>
<rscale>  0 0.20276643E+04</rscale>
<asrwt>0</asrwt>
<pdfrwt beam="1">  1        2 0.35199281E+00 0.20276643E+04</pdfrwt>
<pdfrwt beam="2">  1       -2 0.69114887E-01 0.20276643E+04</pdfrwt>
<totfact> 0.81605974E+00</totfact>
</mgrwt>
</event>
<event>
 6    1  0.5040916E-004  0.2054230E+04  0.7818608E-02  0.8581678E-01
          2   -1    0    0  501    0  0.00000000000E+00  0.00000000000E+00  0.12054105331E+04  0.12054105331E+04  0.00000000000E+00 0.  1.
         -2   -1    0    0    0  501 -0.00000000000E+00 -0.00000000000E+00 -0.87519206170E+03  0.87519206170E+03  0.00000000000E+00 0. -1.
         23    2    1    2    0    0 -0.27235471212E+03 -0.14583834531E+03  0.11554225883E+04  0.11994625680E+04  0.90902047353E+02 0.  0.
         13    1    3    3    0    0 -0.44057388038E+02 -0.20071683148E+02  0.85565539296E+02  0.98312702232E+02  0.00000000000E+00 0. -1.
        -13    1    3    3    0    0 -0.22829732408E+03 -0.12576666216E+03  0.10698570490E+04  0.11011498658E+04  0.00000000000E+00 0.  1.
         22    1    1    2    0    0  0.27235471212E+03  0.14583834531E+03 -0.82520411695E+03  0.88114002679E+03  0.00000000000E+00 0. -1.
<mgrwt>
<rscale>  0 0.20542305E+04</rscale>
<asrwt>0</asrwt>
<pdfrwt beam="1">  1        2 0.18544777E+00 0.20542305E+04</pdfrwt>
<pdfrwt beam="2">  1       -2 0.13464493E+00 0.20542305E+04</pdfrwt>
<totfact> 0.69078241E+00</totfact>
</mgrwt>
</event>
<event>
 6    1  0.5040916E-004  0.6839596E+03  0.7818608E-02  0.9745064E-01
         -2   -1    0    0    0  501 -0.00000000000E+00  0.00000000000E+00  0.15793698670E+03  0.15793698670E+03  0.00000000000E+00 0. -1.
          2   -1    0    0  501    0  0.00000000000E+00 -0.00000000000E+00 -0.74048636043E+03  0.74048636043E+03  0.00000000000E+00 0.  1.
         23    2    1    2    0    0  0.12557116763E+03  0.17160314168E+02  0.11260836235E+03  0.19180685103E+03  0.89703011697E+02 0.  0.
         13    1    3    3    0    0  0.59691360148E+02  0.76314414641E+01  0.10976775516E+03  0.12518089889E+03  0.00000000000E+00 0.  1.
        -13    1    3    3    0    0  0.65879807486E+02  0.95288727036E+01  0.28406071969E+01  0.66625952141E+02  0.00000000000E+00 0. -1.
         22    1    1    2    0    0 -0.12557116763E+03 -0.17160314168E+02 -0.69515773609E+03  0.70661649610E+03  0.00000000000E+00 0.  1.
<mgrwt>
<rscale>  0 0.68395960E+03</rscale>
<asrwt>0</asrwt>
<pdfrwt beam="1">  1        2 0.11392098E+00 0.68395960E+03</pdfrwt>
<pdfrwt beam="2">  1       -2 0.24297998E-01 0.68395960E+03</pdfrwt>
<totfact> 0.57874575E+02</totfact>
</mgrwt>
</event>
<event>
 6    1  0.5040916E-004  0.1084388E+04  0.7818608E-02  0.9220544E-01
         -2   -1    0    0    0  501 -0.00000000000E+00  0.00000000000E+00  0.89266375881E+02  0.89266375881E+02  0.00000000000E+00 0.  1.
          2   -1    0    0  501    0  0.00000000000E+00 -0.00000000000E+00 -0.32932240187E+04  0.32932240187E+04  0.00000000000E+00 0. -1.
         23    2    1    2    0    0  0.30133387738E+03  0.43491511422E+03 -0.13094502408E+04  0.14154846604E+04  0.94782004105E+02 0.  0.
         13    1    3    3    0    0  0.20264896697E+03  0.21343153753E+03 -0.68077008458E+03  0.74166537811E+03  0.00000000000E+00 0. -1.
        -13    1    3    3    0    0  0.98684910412E+02  0.22148357669E+03 -0.62868015626E+03  0.67381928228E+03  0.00000000000E+00 0.  1.
         22    1    1    2    0    0 -0.30133387738E+03 -0.43491511422E+03 -0.18945074020E+04  0.19670057342E+04  0.00000000000E+00 0. -1.
<mgrwt>
<rscale>  0 0.10843877E+04</rscale>
<asrwt>0</asrwt>
<pdfrwt beam="1">  1        2 0.50664976E+00 0.10843877E+04</pdfrwt>
<pdfrwt beam="2">  1       -2 0.13733291E-01 0.10843877E+04</pdfrwt>
<totfact> 0.46822968E+01</totfact>
</mgrwt>
</event>
<event>
 6    1  0.5040916E-004  0.2208971E+04  0.7818608E-02  0.8514703E-01
         -2   -1    0    0    0  501 -0.00000000000E+00  0.00000000000E+00  0.80069256700E+03  0.80069256700E+03  0.00000000000E+00 0. -1.
          2   -1    0    0  501    0  0.00000000000E+00 -0.00000000000E+00 -0.15235419249E+04  0.15235419249E+04  0.00000000000E+00 0.  1.
         23    2    1    2    0    0 -0.16605119123E+03 -0.81422650570E+03 -0.11245400485E+04  0.14012538792E+04  0.91565891968E+02 0.  0.
         13    1    3    3    0    0 -0.51886610748E+02 -0.40620623913E+03 -0.49529405919E+03  0.64266004556E+03  0.00000000000E+00 0. -1.
        -13    1    3    3    0    0 -0.11416458048E+03 -0.40802026656E+03 -0.62924598927E+03  0.75859383360E+03  0.00000000000E+00 0.  1.
         22    1    1    2    0    0  0.16605119123E+03  0.81422650570E+03  0.40169069053E+03  0.92298061277E+03  0.00000000000E+00 0. -1.
<mgrwt>
<rscale>  0 0.22089714E+04</rscale>
<asrwt>0</asrwt>
<pdfrwt beam="1">  1        2 0.23439106E+00 0.22089714E+04</pdfrwt>
<pdfrwt beam="2">  1       -2 0.12318347E+00 0.22089714E+04</pdfrwt>
<totfact> 0.55941758E+00</totfact>
</mgrwt>
</event>
<event>
 6    1  0.5040916E-004  0.4140635E+04  0.7818608E-02  0.7976762E-01
          2   -1    0    0  501    0  0.00000000000E+00  0.00000000000E+00  0.18388121654E+04  0.18388121654E+04  0.00000000000E+00 0.  1.
         -2   -1    0    0    0  501 -0.00000000000E+00 -0.00000000000E+00 -0.23309690691E+04  0.23309690691E+04  0.00000000000E+00 0. -1.
         23    2    1    2    0    0 -0.10644422775E+04 -0.10522807197E+04  0.11927711322E+04  0.19160477628E+04  0.90575827675E+02 0.  0.
         11    1    3    3    0    0 -0.70680057784E+03 -0.75041882417E+03  0.84601833927E+03  0.13335825805E+04  0.00000000000E+00 0. -1.
        -11    1    3    3    0    0 -0.35764169964E+03 -0.30186189549E+03  0.34675279290E+03  0.58246518235E+03  0.00000000000E+00 0.  1.
         22    1    1    2    0    0  0.10644422775E+04  0.10522807197E+04 -0.16849280359E+04  0.22537334716E+04  0.00000000000E+00 0. -1.
<mgrwt>
<rscale>  0 0.41406349E+04</rscale>
<asrwt>0</asrwt>
<pdfrwt beam="1">  1        2 0.28289418E+00 0.41406349E+04</pdfrwt>
<pdfrwt beam="2">  1       -2 0.35861063E+00 0.41406349E+04</pdfrwt>
<totfact> 0.87875142E-02</totfact>
</mgrwt>
</event>
<event>
 6    1  0.5040916E-004  0.2435419E+04  0.7818608E-02  0.8426361E-01
          2   -1    0    0  501    0  0.00000000000E+00  0.00000000000E+00  0.32827161391E+04  0.32827161391E+04  0.00000000000E+00 0.  1.
         -2   -1    0    0    0  501 -0.00000000000E+00 -0.00000000000E+00 -0.45170413540E+03  0.45170413540E+03  0.00000000000E+00 0. -1.
         23    2    1    2    0    0  0.51109628498E+03  0.46511649351E+03 -0.11673880340E+03  0.70674995134E+03  0.91185417926E+02 0.  0.
         13    1    3    3    0    0  0.35977595860E+03  0.27373681100E+03 -0.93765217722E+02  0.46169524379E+03  0.00000000000E+00 0. -1.
        -13    1    3    3    0    0  0.15132032638E+03  0.19137968251E+03 -0.22973585675E+02  0.24505470755E+03  0.00000000000E+00 0.  1.
         22    1    1    2    0    0 -0.51109628498E+03 -0.46511649351E+03  0.29477508071E+04  0.30276703232E+04  0.00000000000E+00 0.  1.
<mgrwt>
<rscale>  0 0.24354190E+04</rscale>
<asrwt>0</asrwt>
<pdfrwt beam="1">  1        2 0.50503324E+00 0.24354190E+04</pdfrwt>
<pdfrwt beam="2">  1       -2 0.69492946E-01 0.24354190E+04</pdfrwt>
<totfact> 0.19388832E+00</totfact>
</mgrwt>
</event>
<event>
 6    1  0.5040916E-004  0.8832076E+03  0.7818608E-02  0.9446820E-01
         -2   -1    0    0    0  501 -0.00000000000E+00  0.00000000000E+00  0.21634173147E+03  0.21634173147E+03  0.00000000000E+00 0. -1.
          2   -1    0    0  501    0  0.00000000000E+00 -0.00000000000E+00 -0.90141601940E+03  0.90141601940E+03  0.00000000000E+00 0.  1.
         23    2    1    2    0    0 -0.21943236653E+03 -0.30853242690E+03 -0.69710153202E+02  0.39525111406E+03  0.89560682122E+02 0.  0.
         11    1    3    3    0    0 -0.12748690145E+03 -0.11176543776E+03 -0.52018188147E+02  0.17734236667E+03  0.00000000000E+00 0. -1.
        -11    1    3    3    0    0 -0.91945465082E+02 -0.19676698914E+03 -0.17691965055E+02  0.21790874739E+03  0.00000000000E+00 0.  1.
         22    1    1    2    0    0  0.21943236653E+03  0.30853242690E+03 -0.61536413472E+03  0.72250663681E+03  0.00000000000E+00 0.  1.
<mgrwt>
<rscale>  0 0.88320757E+03</rscale>
<asrwt>0</asrwt>
<pdfrwt beam="1">  1        2 0.13867939E+00 0.88320757E+03</pdfrwt>
<pdfrwt beam="2">  1       -2 0.33283343E-01 0.88320757E+03</pdfrwt>
<totfact> 0.24721318E+02</totfact>
</mgrwt>
</event>
<event>
 6    1  0.5040916E-004  0.1615575E+04  0.7818608E-02  0.8811036E-01
         -2   -1    0    0    0  501 -0.00000000000E+00  0.00000000000E+00  0.47088551812E+03  0.47088551812E+03  0.00000000000E+00 0. -1.
          2   -1    0    0  501    0  0.00000000000E+00 -0.00000000000E+00 -0.13857315265E+04  0.13857315265E+04  0.00000000000E+00 0.  1.
         23    2    1    2    0    0  0.53202349777E+03  0.53572933858E+03 -0.77853304103E+03  0.10893907733E+04  0.10297395077E+03 0.  0.
         13    1    3    3    0    0  0.10006607059E+03  0.10637984127E+03 -0.21308501675E+03  0.25833140242E+03  0.00000000000E+00 0.  1.
        -13    1    3    3    0    0  0.43195742718E+03  0.42934949731E+03 -0.56544802429E+03  0.83105937087E+03  0.00000000000E+00 0. -1.
         22    1    1    2    0    0 -0.53202349777E+03 -0.53572933858E+03 -0.13631296738E+03  0.76722627136E+03  0.00000000000E+00 0. -1.
<mgrwt>
<rscale>  0 0.16155753E+04</rscale>
<asrwt>0</asrwt>
<pdfrwt beam="1">  1        2 0.21318947E+00 0.16155753E+04</pdfrwt>
<pdfrwt beam="2">  1       -2 0.72443926E-01 0.16155753E+04</pdfrwt>
<totfact> 0.24349640E+01</totfact>
</mgrwt>
</event>
<event>
 6    1  0.5040916E-004  0.2420717E+04  0.7818608E-02  0.8431788E-01
          2   -1    0    0  501    0  0.00000000000E+00  0.00000000000E+00  0.13887843499E+04  0.13887843499E+04  0.00000000000E+00 0.  1.
         -2   -1    0    0    0  501 -0.00000000000E+00 -0.00000000000E+00 -0.10548561525E+04  0.10548561525E+04  0.00000000000E+00 0. -1.
         23    2    1    2    0    0 -0.11473174116E+04 -0.35924161892E+03  0.41266721049E+02  0.12062874713E+04  0.89636697606E+02 0.  0.
         11    1    3    3    0    0 -0.57036078642E+03 -0.16866509854E+03  0.64243726625E+02  0.59823623976E+03  0.00000000000E+00 0.  1.
        -11    1    3    3    0    0 -0.57695662513E+03 -0.19057652038E+03 -0.22977005577E+02  0.60805123155E+03  0.00000000000E+00 0. -1.
         22    1    1    2    0    0  0.11473174116E+04  0.35924161892E+03  0.29266147636E+03  0.12373530310E+04  0.00000000000E+00 0.  1.
<mgrwt>
<rscale>  0 0.24207170E+04</rscale>
<asrwt>0</asrwt>
<pdfrwt beam="1">  1        2 0.21365913E+00 0.24207170E+04</pdfrwt>
<pdfrwt beam="2">  1       -2 0.16228556E+00 0.24207170E+04</pdfrwt>
<totfact> 0.31951725E+00</totfact>
</mgrwt>
</event>
<event>
 6    1  0.5040916E-004  0.1109351E+04  0.7818608E-02  0.9196125E-01
         -1   -1    0    0    0  501 -0.00000000000E+00  0.00000000000E+00  0.11897033773E+03  0.11897033773E+03  0.00000000000E+00 0. -1.
          1   -1    0    0  501    0  0.00000000000E+00 -0.00000000000E+00 -0.25860659614E+04  0.25860659614E+04  0.00000000000E+00 0.  1.
         23    2    1    2    0    0  0.37914400057E+03 -0.54064515828E+02 -0.27763783809E+03  0.48233556806E+03  0.94295737117E+02 0.  0.
         11    1    3    3    0    0  0.14612782314E+03  0.16144726037E+02 -0.13862769070E+03  0.20206837829E+03  0.00000000000E+00 0. -1.
        -11    1    3    3    0    0  0.23301617743E+03 -0.70209241865E+02 -0.13901014739E+03  0.28026718977E+03  0.00000000000E+00 0.  1.
         22    1    1    2    0    0 -0.37914400057E+03  0.54064515828E+02 -0.21894577856E+04  0.22227007311E+04  0.00000000000E+00 0.  1.
<mgrwt>
<rscale>  0 0.11093514E+04</rscale>
<asrwt>0</asrwt>
<pdfrwt beam="1">  1        1 0.39785629E+00 0.11093514E+04</pdfrwt>
<pdfrwt beam="2">  1       -1 0.18303130E-01 0.11093514E+04</pdfrwt>
<totfact> 0.28146620E+01</totfact>
</mgrwt>
</event>
<event>
 6    1  0.5040916E-004  0.4052362E+04  0.7818608E-02  0.7994066E-01
         -2   -1    0    0    0  501 -0.00000000000E+00  0.00000000000E+00  0.12508026811E+04  0.12508026811E+04  0.00000000000E+00 0. -1.
          2   -1    0    0  501    0  0.00000000000E+00 -0.00000000000E+00 -0.32822201377E+04  0.32822201377E+04  0.00000000000E+00 0.  1.
         23    2    1    2    0    0 -0.60919789889E+03 -0.17863674455E+04 -0.18374510351E+04  0.26356947756E+04  0.91814560492E+02 0.  0.
         11    1    3    3    0    0 -0.28799274196E+03 -0.72148971997E+03 -0.78575962770E+03  0.11049458937E+04  0.00000000000E+00 0. -1.
        -11    1    3    3    0    0 -0.32120515692E+03 -0.10648777255E+04 -0.10516914074E+04  0.15307488819E+04  0.00000000000E+00 0.  1.
         22    1    1    2    0    0  0.60919789889E+03  0.17863674455E+04 -0.19396642152E+03  0.18973280431E+04  0.00000000000E+00 0. -1.
<mgrwt>
<rscale>  0 0.40523621E+04</rscale>
<asrwt>0</asrwt>
<pdfrwt beam="1">  1        2 0.50495694E+00 0.40523621E+04</pdfrwt>
<pdfrwt beam="2">  1       -2 0.19243118E+00 0.40523621E+04</pdfrwt>
<totfact> 0.13408385E-01</totfact>
</mgrwt>
</event>
<event>
 6    1  0.5040916E-004  0.3946021E+03  0.7818608E-02  0.1045665E+00
          2   -1    0    0  501    0  0.00000000000E+00  0.00000000000E+00  0.48663562589E+03  0.48663562589E+03  0.00000000000E+00 0.  1.
         -2   -1    0    0    0  501 -0.00000000000E+00 -0.00000000000E+00 -0.79993528608E+02  0.79993528608E+02  0.00000000000E+00 0. -1.
         23    2    1    2    0    0 -0.12486213553E+03 -0.48217642032E+02  0.40134574839E+03  0.43267563568E+03  0.90632786953E+02 0.  0.
         11    1    3    3    0    0 -0.69442617969E+02 -0.55286663060E+01  0.91329628921E+02  0.11486489655E+03  0.00000000000E+00 0. -1.
        -11    1    3    3    0    0 -0.55419517560E+02 -0.42688975726E+02  0.31001611947E+03  0.31781073913E+03  0.00000000000E+00 0.  1.
         22    1    1    2    0    0  0.12486213553E+03  0.48217642032E+02  0.52963488933E+01  0.13395351882E+03  0.00000000000E+00 0. -1.
<mgrwt>
<rscale>  0 0.39460208E+03</rscale>
<asrwt>0</asrwt>
<pdfrwt beam="1">  1        2 0.74867018E-01 0.39460208E+03</pdfrwt>
<pdfrwt beam="2">  1       -2 0.12306697E-01 0.39460208E+03</pdfrwt>
<totfact> 0.30629753E+03</totfact>
</mgrwt>
</event>
<event>
 6    1  0.5040916E-004  0.1615107E+04  0.7818608E-02  0.8811320E-01
         -2   -1    0    0    0  501 -0.00000000000E+00  0.00000000000E+00  0.57875098788E+03  0.57875098788E+03  0.00000000000E+00 0. -1.
          2   -1    0    0  501    0  0.00000000000E+00 -0.00000000000E+00 -0.11268107814E+04  0.11268107814E+04  0.00000000000E+00 0.  1.
         23    2    1    2    0    0 -0.93008827226E+02 -0.25058043666E+03  0.52693961047E+03  0.59783214714E+03  0.91086365010E+02 0.  0.
         13    1    3    3    0    0 -0.98285650166E+02 -0.18622063309E+03  0.33863742452E+03  0.39876496649E+03  0.00000000000E+00 0.  1.
        -13    1    3    3    0    0  0.52768229400E+01 -0.64359803565E+02  0.18830218595E+03  0.19906718064E+03  0.00000000000E+00 0. -1.
         22    1    1    2    0    0  0.93008827226E+02  0.25058043666E+03 -0.10749994040E+04  0.11077296222E+04  0.00000000000E+00 0.  1.
<mgrwt>
<rscale>  0 0.16151072E+04</rscale>
<asrwt>0</asrwt>
<pdfrwt beam="1">  1        2 0.17335550E+00 0.16151072E+04</pdfrwt>
<pdfrwt beam="2">  1       -2 0.89038615E-01 0.16151072E+04</pdfrwt>
<totfact> 0.21767672E+01</totfact>
</mgrwt>
</event>
<event>
 6    1  0.5040916E-004  0.1425575E+04  0.7818608E-02  0.8935511E-01
          2   -1    0    0  501    0  0.00000000000E+00  0.00000000000E+00  0.23482179210E+04  0.23482179210E+04  0.00000000000E+00 0.  1.
         -2   -1    0    0    0  501 -0.00000000000E+00 -0.00000000000E+00 -0.21636248483E+03  0.21636248483E+03  0.00000000000E+00 0. -1.
         23    2    1    2    0    0 -0.62188863486E+03 -0.59601177546E+02  0.16771989842E+04  0.17919160130E+04  0.87571631946E+02 0.  0.
         13    1    3    3    0    0 -0.53840707597E+03 -0.80781111463E+02  0.14661011739E+04  0.15639246848E+04  0.00000000000E+00 0. -1.
        -13    1    3    3    0    0 -0.83481558889E+02  0.21179933917E+02  0.21109781025E+03  0.22799132827E+03  0.00000000000E+00 0.  1.
         22    1    1    2    0    0  0.62188863486E+03  0.59601177546E+02  0.45465645194E+03  0.77266439275E+03  0.00000000000E+00 0. -1.
<mgrwt>
<rscale>  0 0.14255753E+04</rscale>
<asrwt>0</asrwt>
<pdfrwt beam="1">  1        2 0.36126428E+00 0.14255753E+04</pdfrwt>
<pdfrwt beam="2">  1       -2 0.33286538E-01 0.14255753E+04</pdfrwt>
<totfact> 0.34939503E+01</totfact>
</mgrwt>
</event>
<event>
 6    1  0.5040916E-004  0.2815071E+04  0.7818608E-02  0.8298605E-01
          2   -1    0    0  501    0  0.00000000000E+00  0.00000000000E+00  0.38381712591E+04  0.38381712591E+04  0.00000000000E+00 0.  1.
         -2   -1    0    0    0  501 -0.00000000000E+00 -0.00000000000E+00 -0.51617178229E+03  0.51617178229E+03  0.00000000000E+00 0. -1.
         23    2    1    2    0    0  0.11872409921E+04  0.33894121865E+02  0.49866376463E+03  0.12913519333E+04  0.90742936504E+02 0.  0.
         11    1    3    3    0    0  0.51498606383E+03  0.55855575245E+02  0.19724772419E+03  0.55428977613E+03  0.00000000000E+00 0. -1.
        -11    1    3    3    0    0  0.67225492827E+03 -0.21961453380E+02  0.30141604044E+03  0.73706215712E+03  0.00000000000E+00 0.  1.
         22    1    1    2    0    0 -0.11872409921E+04 -0.33894121865E+02  0.28233357121E+04  0.30629911081E+04  0.00000000000E+00 0. -1.
<mgrwt>
<rscale>  0 0.28150707E+04</rscale>
<asrwt>0</asrwt>
<pdfrwt beam="1">  1        2 0.59048787E+00 0.28150707E+04</pdfrwt>
<pdfrwt beam="2">  1       -2 0.79411046E-01 0.28150707E+04</pdfrwt>
<totfact> 0.56101364E-01</totfact>
</mgrwt>
</event>
<event>
 6    1  0.5040916E-004  0.5834229E+04  0.7818608E-02  0.7711302E-01
          2   -1    0    0  501    0  0.00000000000E+00  0.00000000000E+00  0.34361246266E+04  0.34361246266E+04  0.00000000000E+00 0. -1.
         -2   -1    0    0    0  501 -0.00000000000E+00 -0.00000000000E+00 -0.24764980609E+04  0.24764980609E+04  0.00000000000E+00 0.  1.
         23    2    1    2    0    0  0.19127994689E+03 -0.22290224710E+04 -0.14160389553E+04  0.26493550213E+04  0.93736393178E+02 0.  0.
         13    1    3    3    0    0  0.12901971069E+03 -0.10660745656E+04 -0.64598368780E+03  0.12531783552E+04  0.00000000000E+00 0. -1.
        -13    1    3    3    0    0  0.62260236202E+02 -0.11629479054E+04 -0.77005526749E+03  0.13961766660E+04  0.00000000000E+00 0.  1.
         22    1    1    2    0    0 -0.19127994689E+03  0.22290224710E+04  0.23756655210E+04  0.32632676663E+04  0.00000000000E+00 0. -1.
<mgrwt>
<rscale>  0 0.58342286E+04</rscale>
<asrwt>0</asrwt>
<pdfrwt beam="1">  1        2 0.52863456E+00 0.58342286E+04</pdfrwt>
<pdfrwt beam="2">  1       -2 0.38099970E+00 0.58342286E+04</pdfrwt>
<totfact> 0.60487588E-03</totfact>
</mgrwt>
</event>
<event>
 6    1  0.5040916E-004  0.2919152E+04  0.7818608E-02  0.8267202E-01
         -2   -1    0    0    0  501 -0.00000000000E+00  0.00000000000E+00  0.80665779964E+03  0.80665779964E+03  0.00000000000E+00 0. -1.
          2   -1    0    0  501    0  0.00000000000E+00 -0.00000000000E+00 -0.26409737418E+04  0.26409737418E+04  0.00000000000E+00 0.  1.
         23    2    1    2    0    0  0.67026442318E+03  0.11867661386E+04 -0.15301506556E+04  0.20511413745E+04  0.90286459118E+02 0.  0.
         11    1    3    3    0    0  0.32985128640E+03  0.57855608584E+03 -0.81539180057E+03  0.10528023575E+04  0.00000000000E+00 0.  1.
        -11    1    3    3    0    0  0.34041313678E+03  0.60821005277E+03 -0.71475885504E+03  0.99833901699E+03  0.00000000000E+00 0. -1.
         22    1    1    2    0    0 -0.67026442318E+03 -0.11867661386E+04 -0.30416528653E+03  0.13964901669E+04  0.00000000000E+00 0. -1.
<mgrwt>
<rscale>  0 0.29191520E+04</rscale>
<asrwt>0</asrwt>
<pdfrwt beam="1">  1        2 0.40630365E+00 0.29191520E+04</pdfrwt>
<pdfrwt beam="2">  1       -2 0.12410120E+00 0.29191520E+04</pdfrwt>
<totfact> 0.12107301E+00</totfact>
</mgrwt>
</event>
<event>
 6    1  0.5040916E-004  0.3515735E+04  0.7818608E-02  0.8110071E-01
          2   -1    0    0  501    0  0.00000000000E+00  0.00000000000E+00  0.18647325872E+04  0.18647325872E+04  0.00000000000E+00 0.  1.
         -2   -1    0    0    0  501 -0.00000000000E+00 -0.00000000000E+00 -0.16571264457E+04  0.16571264457E+04  0.00000000000E+00 0. -1.
         23    2    1    2    0    0 -0.64422230150E+03 -0.14832380130E+04 -0.58080362244E+03  0.17228016873E+04  0.12528139836E+03 0.  0.
         11    1    3    3    0    0 -0.19215924194E+03 -0.35827612988E+03 -0.10095654144E+03  0.41890235469E+03  0.00000000000E+00 0. -1.
        -11    1    3    3    0    0 -0.45206305956E+03 -0.11249618831E+04 -0.47984708100E+03  0.13038993326E+04  0.00000000000E+00 0.  1.
         22    1    1    2    0    0  0.64422230150E+03  0.14832380130E+04  0.78840976395E+03  0.17990573456E+04  0.00000000000E+00 0.  1.
<mgrwt>
<rscale>  0 0.35157347E+04</rscale>
<asrwt>0</asrwt>
<pdfrwt beam="1">  1        2 0.28688194E+00 0.35157347E+04</pdfrwt>
<pdfrwt beam="2">  1       -2 0.25494253E+00 0.35157347E+04</pdfrwt>
<totfact> 0.39064004E-01</totfact>
</mgrwt>
</event>
<event>
 6    1  0.5040916E-004  0.1481867E+04  0.7818608E-02  0.8896602E-01
          2   -1    0    0  501    0  0.00000000000E+00  0.00000000000E+00  0.21552063569E+04  0.21552063569E+04  0.00000000000E+00 0.  1.
         -2   -1    0    0    0  501 -0.00000000000E+00 -0.00000000000E+00 -0.25472378218E+03  0.25472378218E+03  0.00000000000E+00 0. -1.
         23    2    1    2    0    0 -0.26926308914E+03  0.64648617883E+03  0.57473307885E+03  0.91057737326E+03  0.91575379739E+02 0.  0.
         13    1    3    3    0    0 -0.17663073640E+03  0.45829283252E+03  0.45239908292E+03  0.66775419700E+03  0.00000000000E+00 0. -1.
        -13    1    3    3    0    0 -0.92632352733E+02  0.18819334631E+03  0.12233399593E+03  0.24282317626E+03  0.00000000000E+00 0.  1.
         22    1    1    2    0    0  0.26926308914E+03 -0.64648617883E+03  0.13257494958E+04  0.14993527658E+04  0.00000000000E+00 0.  1.
<mgrwt>
<rscale>  0 0.14818668E+04</rscale>
<asrwt>0</asrwt>
<pdfrwt beam="1">  1        2 0.33157020E+00 0.14818668E+04</pdfrwt>
<pdfrwt beam="2">  1       -2 0.39188276E-01 0.14818668E+04</pdfrwt>
<totfact> 0.32624459E+01</totfact>
</mgrwt>
</event>
<event>
 6    1  0.5040916E-004  0.3579311E+04  0.7818608E-02  0.8095247E-01
         -2   -1    0    0    0  501 -0.00000000000E+00  0.00000000000E+00  0.13450298283E+04  0.13450298283E+04  0.00000000000E+00 0. -1.
          2   -1    0    0  501    0  0.00000000000E+00 -0.00000000000E+00 -0.23812613255E+04  0.23812613255E+04  0.00000000000E+00 0.  1.
         23    2    1    2    0    0 -0.17405332421E+04 -0.28797432997E+03 -0.21410888068E+03  0.17799430919E+04  0.99847965505E+02 0.  0.
         11    1    3    3    0    0 -0.13041431733E+04 -0.19379038553E+03 -0.12193682568E+03  0.13240893926E+04  0.00000000000E+00 0. -1.
        -11    1    3    3    0    0 -0.43639006874E+03 -0.94183944440E+02 -0.92172055004E+02  0.45585369934E+03  0.00000000000E+00 0.  1.
         22    1    1    2    0    0  0.17405332421E+04  0.28797432997E+03 -0.82212261658E+03  0.19463480619E+04  0.00000000000E+00 0.  1.
<mgrwt>
<rscale>  0 0.35793114E+04</rscale>
<asrwt>0</asrwt>
<pdfrwt beam="1">  1        2 0.36634790E+00 0.35793114E+04</pdfrwt>
<pdfrwt beam="2">  1       -2 0.20692767E+00 0.35793114E+04</pdfrwt>
<totfact> 0.39874509E-01</totfact>
</mgrwt>
</event>
<event>
 6    1  0.5040916E-004  0.2391722E+04  0.7818608E-02  0.8442609E-01
          2   -1    0    0  501    0  0.00000000000E+00  0.00000000000E+00  0.14889911872E+04  0.14889911872E+04  0.00000000000E+00 0.  1.
         -2   -1    0    0    0  501 -0.00000000000E+00 -0.00000000000E+00 -0.96043804637E+03  0.96043804637E+03  0.00000000000E+00 0. -1.
         23    2    1    2    0    0 -0.32292704010E+03 -0.49718672746E+03  0.13262777411E+04  0.14555273002E+04  0.89836295459E+02 0.  0.
         13    1    3    3    0    0 -0.24546005010E+03 -0.31972003577E+03  0.96070997115E+03  0.10418422079E+04  0.00000000000E+00 0. -1.
        -13    1    3    3    0    0 -0.77466990002E+02 -0.17746669169E+03  0.36556776995E+03  0.41368509235E+03  0.00000000000E+00 0.  1.
         22    1    1    2    0    0  0.32292704010E+03  0.49718672746E+03 -0.79772460028E+03  0.99390193333E+03  0.00000000000E+00 0. -1.
<mgrwt>
<rscale>  0 0.23917222E+04</rscale>
<asrwt>0</asrwt>
<pdfrwt beam="1">  1        2 0.22907557E+00 0.23917222E+04</pdfrwt>
<pdfrwt beam="2">  1       -2 0.14775970E+00 0.23917222E+04</pdfrwt>
<totfact> 0.36135288E+00</totfact>
</mgrwt>
</event>
<event>
 6    1  0.5040916E-004  0.3118309E+04  0.7818608E-02  0.8210731E-01
         -2   -1    0    0    0  501 -0.00000000000E+00  0.00000000000E+00  0.19550578007E+04  0.19550578007E+04  0.00000000000E+00 0. -1.
          2   -1    0    0  501    0  0.00000000000E+00 -0.00000000000E+00 -0.12434224767E+04  0.12434224767E+04  0.00000000000E+00 0.  1.
         23    2    1    2    0    0 -0.13027518338E+04 -0.76760963694E+03 -0.27961172219E+02  0.15152126598E+04  0.93277446632E+02 0.  0.
         11    1    3    3    0    0 -0.24268183030E+03 -0.15083518160E+03 -0.41248117232E+02  0.28869903003E+03  0.00000000000E+00 0. -1.
        -11    1    3    3    0    0 -0.10600700035E+04 -0.61677445534E+03  0.13286945013E+02  0.12265136298E+04  0.00000000000E+00 0.  1.
         22    1    1    2    0    0  0.13027518338E+04  0.76760963694E+03  0.73959649618E+03  0.16832676176E+04  0.00000000000E+00 0. -1.
<mgrwt>
<rscale>  0 0.31183090E+04</rscale>
<asrwt>0</asrwt>
<pdfrwt beam="1">  1        2 0.19129577E+00 0.31183090E+04</pdfrwt>
<pdfrwt beam="2">  1       -2 0.30077812E+00 0.31183090E+04</pdfrwt>
<totfact> 0.47557497E-01</totfact>
</mgrwt>
</event>
<event>
 6    1  0.5040916E-004  0.1916100E+04  0.7818608E-02  0.8646884E-01
          2   -1    0    0  501    0  0.00000000000E+00  0.00000000000E+00  0.22454836979E+04  0.22454836979E+04  0.00000000000E+00 0.  1.
         -2   -1    0    0    0  501 -0.00000000000E+00 -0.00000000000E+00 -0.40875819684E+03  0.40875819684E+03  0.00000000000E+00 0. -1.
         23    2    1    2    0    0  0.51286391427E+03 -0.71303923471E+03  0.40180014745E+03  0.97184327514E+03  0.10761806608E+03 0.  0.
         13    1    3    3    0    0  0.11249625190E+03 -0.14145339344E+03  0.13131109965E+03  0.22339891248E+03  0.00000000000E+00 0.  1.
        -13    1    3    3    0    0  0.40036766238E+03 -0.57158584127E+03  0.27048904780E+03  0.74844436266E+03  0.00000000000E+00 0. -1.
         22    1    1    2    0    0 -0.51286391427E+03  0.71303923471E+03  0.14349253536E+04  0.16823986196E+04  0.00000000000E+00 0.  1.
<mgrwt>
<rscale>  0 0.19161001E+04</rscale>
<asrwt>0</asrwt>
<pdfrwt beam="1">  1        2 0.34545902E+00 0.19161001E+04</pdfrwt>
<pdfrwt beam="2">  1       -2 0.62885878E-01 0.19161001E+04</pdfrwt>
<totfact> 0.10672485E+01</totfact>
</mgrwt>
</event>
<event>
 6    1  0.5040916E-004  0.2368331E+04  0.7818608E-02  0.8451456E-01
         -4   -1    0    0    0  501 -0.00000000000E+00  0.00000000000E+00  0.12599232767E+04  0.12599232767E+04  0.00000000000E+00 0. -1.
          4   -1    0    0  501    0  0.00000000000E+00 -0.00000000000E+00 -0.11129629929E+04  0.11129629929E+04  0.00000000000E+00 0.  1.
         23    2    1    2    0    0  0.86523961721E+02  0.24011438800E+03 -0.10833048817E+04  0.11164254892E+04  0.87835590437E+02 0.  0.
         11    1    3    3    0    0  0.17963007099E+02  0.13010368174E+03 -0.68756461772E+03  0.69999624368E+03  0.00000000000E+00 0. -1.
        -11    1    3    3    0    0  0.68560954622E+02  0.11001070626E+03 -0.39574026399E+03  0.41642924553E+03  0.00000000000E+00 0.  1.
         22    1    1    2    0    0 -0.86523961721E+02 -0.24011438800E+03  0.12302651655E+04  0.12564607804E+04  0.00000000000E+00 0. -1.
<mgrwt>
<rscale>  0 0.23683310E+04</rscale>
<asrwt>0</asrwt>
<pdfrwt beam="1">  1        4 0.17122508E+00 0.23683310E+04</pdfrwt>
<pdfrwt beam="2">  1       -4 0.19383435E+00 0.23683310E+04</pdfrwt>
<totfact> 0.53965244E-02</totfact>
</mgrwt>
</event>
<event>
 6    1  0.5040916E-004  0.8992310E+03  0.7818608E-02  0.9426543E-01
          2   -1    0    0  501    0  0.00000000000E+00  0.00000000000E+00  0.33626608451E+03  0.33626608451E+03  0.00000000000E+00 0.  1.
         -2   -1    0    0    0  501 -0.00000000000E+00 -0.00000000000E+00 -0.60117295823E+03  0.60117295823E+03  0.00000000000E+00 0. -1.
         23    2    1    2    0    0 -0.31948565234E+03  0.25401817616E+03 -0.31852167163E+03  0.52577065384E+03  0.91555498266E+02 0.  0.
         13    1    3    3    0    0 -0.67468470469E+02  0.94115580732E+02 -0.12317144882E+03  0.16905899222E+03  0.00000000000E+00 0. -1.
        -13    1    3    3    0    0 -0.25201718187E+03  0.15990259543E+03 -0.19535022281E+03  0.35671166162E+03  0.00000000000E+00 0.  1.
         22    1    1    2    0    0  0.31948565234E+03 -0.25401817616E+03  0.53614797909E+02  0.41166838891E+03  0.00000000000E+00 0.  1.
<mgrwt>
<rscale>  0 0.89923095E+03</rscale>
<asrwt>0</asrwt>
<pdfrwt beam="1">  1        2 0.51733244E-01 0.89923095E+03</pdfrwt>
<pdfrwt beam="2">  1       -2 0.92488147E-01 0.89923095E+03</pdfrwt>
<totfact> 0.96234382E+01</totfact>
</mgrwt>
</event>
<event>
 6    1  0.5040916E-004  0.2745368E+04  0.7818608E-02  0.8320433E-01
          2   -1    0    0  501    0  0.00000000000E+00  0.00000000000E+00  0.80282134519E+03  0.80282134519E+03  0.00000000000E+00 0.  1.
         -2   -1    0    0    0  501 -0.00000000000E+00 -0.00000000000E+00 -0.23470494128E+04  0.23470494128E+04  0.00000000000E+00 0. -1.
         23    2    1    2    0    0  0.88285276050E+03 -0.10463475938E+04 -0.85981842531E+03  0.16192862806E+04  0.92347443760E+02 0.  0.
         11    1    3    3    0    0  0.47197280785E+03 -0.52026544266E+03 -0.39521372448E+03  0.80599525445E+03  0.00000000000E+00 0. -1.
        -11    1    3    3    0    0  0.41087995265E+03 -0.52608215115E+03 -0.46460470084E+03  0.81329102620E+03  0.00000000000E+00 0.  1.
         22    1    1    2    0    0 -0.88285276050E+03  0.10463475938E+04 -0.68440964227E+03  0.15305844773E+04  0.00000000000E+00 0.  1.
<mgrwt>
<rscale>  0 0.27453680E+04</rscale>
<asrwt>0</asrwt>
<pdfrwt beam="1">  1        2 0.12351098E+00 0.27453680E+04</pdfrwt>
<pdfrwt beam="2">  1       -2 0.36108452E+00 0.27453680E+04</pdfrwt>
<totfact> 0.39662322E-01</totfact>
</mgrwt>
</event>
<event>
 6    1  0.5040916E-004  0.2657883E+04  0.7818608E-02  0.8348801E-01
         -2   -1    0    0    0  501 -0.00000000000E+00  0.00000000000E+00  0.54874610832E+03  0.54874610832E+03  0.00000000000E+00 0. -1.
          2   -1    0    0  501    0  0.00000000000E+00 -0.00000000000E+00 -0.32184020735E+04  0.32184020735E+04  0.00000000000E+00 0.  1.
         23    2    1    2    0    0 -0.17575708451E+03 -0.81290838457E+03 -0.28026746528E+04  0.29248866038E+04  0.90916674060E+02 0.  0.
         13    1    3    3    0    0 -0.12028075313E+02 -0.22521575033E+03 -0.69345204066E+03  0.72920678925E+03  0.00000000000E+00 0.  1.
        -13    1    3    3    0    0 -0.16372900920E+03 -0.58769263424E+03 -0.21092226121E+04  0.21956798146E+04  0.00000000000E+00 0. -1.
         22    1    1    2    0    0  0.17575708451E+03  0.81290838457E+03  0.13301868761E+03  0.84226157796E+03  0.00000000000E+00 0. -1.
<mgrwt>
<rscale>  0 0.26578831E+04</rscale>
<asrwt>0</asrwt>
<pdfrwt beam="1">  1        2 0.49513877E+00 0.26578831E+04</pdfrwt>
<pdfrwt beam="2">  1       -2 0.84422479E-01 0.26578831E+04</pdfrwt>
<totfact> 0.13588029E+00</totfact>
</mgrwt>
</event>
<event>
 6    1  0.5040916E-004  0.2169340E+04  0.7818608E-02  0.8531299E-01
          2   -1    0    0  501    0  0.00000000000E+00  0.00000000000E+00  0.19860812822E+04  0.19860812822E+04  0.00000000000E+00 0.  1.
         -2   -1    0    0    0  501 -0.00000000000E+00 -0.00000000000E+00 -0.59237726358E+03  0.59237726358E+03  0.00000000000E+00 0. -1.
         23    2    1    2    0    0  0.12765858079E+03 -0.18163426218E+03  0.19576734046E+04  0.19723651645E+04  0.91931848340E+02 0.  0.
         11    1    3    3    0    0  0.93709793076E+02 -0.62939721852E+02  0.11144193954E+04  0.11201221017E+04  0.00000000000E+00 0. -1.
        -11    1    3    3    0    0  0.33948787715E+02 -0.11869454033E+03  0.84325400919E+03  0.85224306281E+03  0.00000000000E+00 0.  1.
         22    1    1    2    0    0 -0.12765858079E+03  0.18163426218E+03 -0.56396938599E+03  0.60609338124E+03  0.00000000000E+00 0. -1.
<mgrwt>
<rscale>  0 0.21693404E+04</rscale>
<asrwt>0</asrwt>
<pdfrwt beam="1">  1        2 0.30555096E+00 0.21693404E+04</pdfrwt>
<pdfrwt beam="2">  1       -2 0.91134964E-01 0.21693404E+04</pdfrwt>
<totfact> 0.63977989E+00</totfact>
</mgrwt>
</event>
<event>
 6    1  0.5040916E-004  0.1511014E+04  0.7818608E-02  0.8877162E-01
         -2   -1    0    0    0  501 -0.00000000000E+00  0.00000000000E+00  0.21115475706E+03  0.21115475706E+03  0.00000000000E+00 0.  1.
          2   -1    0    0  501    0  0.00000000000E+00 -0.00000000000E+00 -0.27031864882E+04  0.27031864882E+04  0.00000000000E+00 0. -1.
         23    2    1    2    0    0 -0.39534417112E+03  0.12183019715E+03 -0.24634880664E+04  0.24996674562E+04  0.91784135261E+02 0.  0.
         11    1    3    3    0    0 -0.16688612837E+03  0.99176639878E+02 -0.11458400019E+04  0.11621687896E+04  0.00000000000E+00 0.  1.
        -11    1    3    3    0    0 -0.22845804275E+03  0.22653557269E+02 -0.13176480646E+04  0.13374986665E+04  0.00000000000E+00 0. -1.
         22    1    1    2    0    0  0.39534417112E+03 -0.12183019715E+03 -0.28543664749E+02  0.41467378911E+03  0.00000000000E+00 0.  1.
<mgrwt>
<rscale>  0 0.15110138E+04</rscale>
<asrwt>0</asrwt>
<pdfrwt beam="1">  1        2 0.41587485E+00 0.15110138E+04</pdfrwt>
<pdfrwt beam="2">  1       -2 0.32485347E-01 0.15110138E+04</pdfrwt>
<totfact> 0.22632260E+01</totfact>
</mgrwt>
</event>
<event>
 6    1  0.5040916E-004  0.2106623E+04  0.7818608E-02  0.8558331E-01
          2   -1    0    0  501    0  0.00000000000E+00  0.00000000000E+00  0.12964270955E+04  0.12964270955E+04  0.00000000000E+00 0.  1.
         -2   -1    0    0    0  501 -0.00000000000E+00 -0.00000000000E+00 -0.85578684280E+03  0.85578684280E+03  0.00000000000E+00 0. -1.
         23    2    1    2    0    0 -0.80386634526E+03  0.67606906936E+03  0.17655788501E+03  0.10691580835E+04  0.93036730412E+02 0.  0.
         11    1    3    3    0    0 -0.44835917861E+03  0.42718612734E+03  0.12914837407E+03  0.63260828556E+03  0.00000000000E+00 0. -1.
        -11    1    3    3    0    0 -0.35550716666E+03  0.24888294202E+03  0.47409510940E+02  0.43654979796E+03  0.00000000000E+00 0.  1.
         22    1    1    2    0    0  0.80386634526E+03 -0.67606906936E+03  0.26408236765E+03  0.10830558547E+04  0.00000000000E+00 0. -1.
<mgrwt>
<rscale>  0 0.21066231E+04</rscale>
<asrwt>0</asrwt>
<pdfrwt beam="1">  1        2 0.19945032E+00 0.21066231E+04</pdfrwt>
<pdfrwt beam="2">  1       -2 0.13165951E+00 0.21066231E+04</pdfrwt>
<totfact> 0.64351953E+00</totfact>
</mgrwt>
</event>
<event>
 6    1  0.5040916E-004  0.1452163E+04  0.7818608E-02  0.8916903E-01
         -2   -1    0    0    0  501 -0.00000000000E+00  0.00000000000E+00  0.44749130806E+03  0.44749130806E+03  0.00000000000E+00 0. -1.
          2   -1    0    0  501    0  0.00000000000E+00 -0.00000000000E+00 -0.11781103428E+04  0.11781103428E+04  0.00000000000E+00 0.  1.
         23    2    1    2    0    0 -0.50164976691E+02 -0.54450132356E+03 -0.89649527430E+03  0.10541883651E+04  0.92796099002E+02 0.  0.
         11    1    3    3    0    0 -0.67467077737E+02 -0.42607380066E+03 -0.74785199031E+03  0.86335003886E+03  0.00000000000E+00 0. -1.
        -11    1    3    3    0    0  0.17302101046E+02 -0.11842752290E+03 -0.14864328399E+03  0.19083832623E+03  0.00000000000E+00 0.  1.
         22    1    1    2    0    0  0.50164976691E+02  0.54450132356E+03  0.16587623961E+03  0.57141328573E+03  0.00000000000E+00 0. -1.
<mgrwt>
<rscale>  0 0.14521627E+04</rscale>
<asrwt>0</asrwt>
<pdfrwt beam="1">  1        2 0.18124775E+00 0.14521627E+04</pdfrwt>
<pdfrwt beam="2">  1       -2 0.68844817E-01 0.14521627E+04</pdfrwt>
<totfact> 0.36493992E+01</totfact>
</mgrwt>
</event>
<event>
 6    1  0.5040916E-004  0.1401282E+04  0.7818608E-02  0.8952891E-01
         -2   -1    0    0    0  501 -0.00000000000E+00  0.00000000000E+00  0.30370234436E+03  0.30370234436E+03  0.00000000000E+00 0. -1.
          2   -1    0    0  501    0  0.00000000000E+00 -0.00000000000E+00 -0.16163792137E+04  0.16163792137E+04  0.00000000000E+00 0.  1.
         23    2    1    2    0    0 -0.27418722226E+02  0.69678256796E+03 -0.63077573203E+03  0.94476269000E+03  0.91873733824E+02 0.  0.
         11    1    3    3    0    0 -0.12862071347E+02  0.20253852193E+03 -0.24154393469E+03  0.31548495706E+03  0.00000000000E+00 0.  1.
        -11    1    3    3    0    0 -0.14556650879E+02  0.49424404603E+03 -0.38923179733E+03  0.62927773294E+03  0.00000000000E+00 0. -1.
         22    1    1    2    0    0  0.27418722226E+02 -0.69678256796E+03 -0.68190113733E+03  0.97531886808E+03  0.00000000000E+00 0. -1.
<mgrwt>
<rscale>  0 0.14012825E+04</rscale>
<asrwt>0</asrwt>
<pdfrwt beam="1">  1        2 0.24867373E+00 0.14012825E+04</pdfrwt>
<pdfrwt beam="2">  1       -2 0.46723437E-01 0.14012825E+04</pdfrwt>
<totfact> 0.46135960E+01</totfact>
</mgrwt>
</event>
<event>
 6    1  0.5040916E-004  0.1596382E+04  0.7818608E-02  0.8822774E-01
         -2   -1    0    0    0  501 -0.00000000000E+00  0.00000000000E+00  0.13908545667E+04  0.13908545667E+04  0.00000000000E+00 0. -1.
          2   -1    0    0  501    0  0.00000000000E+00 -0.00000000000E+00 -0.45807023184E+03  0.45807023184E+03  0.00000000000E+00 0.  1.
         23    2    1    2    0    0 -0.31380574162E+03 -0.35039754700E+02  0.13136676199E+04  0.13541784953E+04  0.91514772693E+02 0.  0.
         13    1    3    3    0    0 -0.12958250231E+03 -0.59109337957E+02  0.60857991779E+03  0.62502404360E+03  0.00000000000E+00 0.  1.
        -13    1    3    3    0    0 -0.18422323931E+03  0.24069583258E+02  0.70508770208E+03  0.72915445165E+03  0.00000000000E+00 0. -1.
         22    1    1    2    0    0  0.31380574162E+03  0.35039754700E+02 -0.38088328497E+03  0.49474630333E+03  0.00000000000E+00 0.  1.
<mgrwt>
<rscale>  0 0.15963823E+04</rscale>
<asrwt>0</asrwt>
<pdfrwt beam="1">  1        2 0.70472344E-01 0.15963823E+04</pdfrwt>
<pdfrwt beam="2">  1       -2 0.21397762E+00 0.15963823E+04</pdfrwt>
<totfact> 0.70513273E+00</totfact>
</mgrwt>
</event>
<event>
 6    1  0.5040916E-004  0.1811075E+04  0.7818608E-02  0.8700432E-01
          2   -1    0    0  501    0  0.00000000000E+00  0.00000000000E+00  0.63151172667E+03  0.63151172667E+03  0.00000000000E+00 0.  1.
         -2   -1    0    0    0  501 -0.00000000000E+00 -0.00000000000E+00 -0.12984687109E+04  0.12984687109E+04  0.00000000000E+00 0. -1.
         23    2    1    2    0    0 -0.33118151101E+03 -0.25931568124E+03  0.51726616282E+03  0.67327431530E+03  0.93852036035E+02 0.  0.
         11    1    3    3    0    0 -0.15886587069E+03 -0.11891593588E+03  0.31755944832E+03  0.37446410761E+03  0.00000000000E+00 0.  1.
        -11    1    3    3    0    0 -0.17231564033E+03 -0.14039974536E+03  0.19970671450E+03  0.29881020768E+03  0.00000000000E+00 0. -1.
         22    1    1    2    0    0  0.33118151101E+03  0.25931568124E+03 -0.11842231471E+04  0.12567061223E+04  0.00000000000E+00 0. -1.
<mgrwt>
<rscale>  0 0.18110751E+04</rscale>
<asrwt>0</asrwt>
<pdfrwt beam="1">  1        2 0.97155652E-01 0.18110751E+04</pdfrwt>
<pdfrwt beam="2">  1       -2 0.19976441E+00 0.18110751E+04</pdfrwt>
<totfact> 0.58612394E+00</totfact>
</mgrwt>
</event>
<event>
 6    1  0.5040916E-004  0.4881730E+04  0.7818608E-02  0.7847015E-01
          2   -1    0    0  501    0  0.00000000000E+00  0.00000000000E+00  0.44123574166E+04  0.44123574166E+04  0.00000000000E+00 0.  1.
         -2   -1    0    0    0  501 -0.00000000000E+00 -0.00000000000E+00 -0.13502583586E+04  0.13502583586E+04  0.00000000000E+00 0. -1.
         23    2    1    2    0    0  0.41740159246E+03  0.11007519432E+04 -0.99137157282E+03  0.15416558034E+04  0.89476761647E+02 0.  0.
         11    1    3    3    0    0  0.45012634063E+02  0.15783333029E+03 -0.10351272443E+03  0.19404221575E+03  0.00000000000E+00 0.  1.
        -11    1    3    3    0    0  0.37238895840E+03  0.94291861288E+03 -0.88785884839E+03  0.13476135876E+04  0.00000000000E+00 0. -1.
         22    1    1    2    0    0 -0.41740159246E+03 -0.11007519432E+04  0.40534706308E+04  0.42209599719E+04  0.00000000000E+00 0.  1.
<mgrwt>
<rscale>  0 0.48817302E+04</rscale>
<asrwt>0</asrwt>
<pdfrwt beam="1">  1        2 0.67882421E+00 0.48817302E+04</pdfrwt>
<pdfrwt beam="2">  1       -2 0.20773206E+00 0.48817302E+04</pdfrwt>
<totfact> 0.12895171E-02</totfact>
</mgrwt>
</event>
<event>
 6    1  0.5040916E-004  0.1283306E+04  0.7818608E-02  0.9042909E-01
          1   -1    0    0  501    0  0.00000000000E+00  0.00000000000E+00  0.16612794006E+04  0.16612794006E+04  0.00000000000E+00 0.  1.
         -1   -1    0    0    0  501 -0.00000000000E+00 -0.00000000000E+00 -0.24783230207E+03  0.24783230207E+03  0.00000000000E+00 0. -1.
         23    2    1    2    0    0  0.44262238892E+03  0.23866628989E+03  0.12407639878E+03  0.52514892193E+03  0.86661758400E+02 0.  0.
         11    1    3    3    0    0  0.24251024647E+03  0.82153608011E+02  0.69324824319E+02  0.26526659462E+03  0.00000000000E+00 0.  1.
        -11    1    3    3    0    0  0.20011214244E+03  0.15651268188E+03  0.54751574459E+02  0.25988232731E+03  0.00000000000E+00 0. -1.
         22    1    1    2    0    0 -0.44262238892E+03 -0.23866628989E+03  0.12893706998E+04  0.13839627808E+04  0.00000000000E+00 0.  1.
<mgrwt>
<rscale>  0 0.12833062E+04</rscale>
<asrwt>0</asrwt>
<pdfrwt beam="1">  1        1 0.25558144E+00 0.12833062E+04</pdfrwt>
<pdfrwt beam="2">  1       -1 0.38128048E-01 0.12833062E+04</pdfrwt>
<totfact> 0.33131097E+01</totfact>
</mgrwt>
</event>
<event>
 6    1  0.5040916E-004  0.8500605E+03  0.7818608E-02  0.9490256E-01
         -2   -1    0    0    0  501 -0.00000000000E+00  0.00000000000E+00  0.98513940383E+02  0.98513940383E+02  0.00000000000E+00 0. -1.
          2   -1    0    0  501    0  0.00000000000E+00 -0.00000000000E+00 -0.18337579521E+04  0.18337579521E+04  0.00000000000E+00 0.  1.
         23    2    1    2    0    0 -0.41289834866E+03  0.68960640899E+02 -0.79874045498E+03  0.90646512310E+03  0.91935241654E+02 0.  0.
         13    1    3    3    0    0 -0.19657240065E+03  0.41339454965E+02 -0.28818799803E+03  0.35128618169E+03  0.00000000000E+00 0. -1.
        -13    1    3    3    0    0 -0.21632594801E+03  0.27621185933E+02 -0.51055245694E+03  0.55517894141E+03  0.00000000000E+00 0.  1.
         22    1    1    2    0    0  0.41289834866E+03 -0.68960640899E+02 -0.93650355674E+03  0.10258067694E+04  0.00000000000E+00 0.  1.
<mgrwt>
<rscale>  0 0.85006052E+03</rscale>
<asrwt>0</asrwt>
<pdfrwt beam="1">  1        2 0.28211660E+00 0.85006052E+03</pdfrwt>
<pdfrwt beam="2">  1       -2 0.15155991E-01 0.85006052E+03</pdfrwt>
<totfact> 0.28803423E+02</totfact>
</mgrwt>
</event>
<event>
 6    1  0.5040916E-004  0.3995069E+04  0.7818608E-02  0.8005542E-01
          2   -1    0    0  501    0  0.00000000000E+00  0.00000000000E+00  0.27943044217E+04  0.27943044217E+04  0.00000000000E+00 0.  1.
         -2   -1    0    0    0  501 -0.00000000000E+00 -0.00000000000E+00 -0.14279561295E+04  0.14279561295E+04  0.00000000000E+00 0. -1.
         23    2    1    2    0    0 -0.94635310320E+03 -0.37495592257E+03  0.24987291533E+04  0.26996107049E+04  0.89857870544E+02 0.  0.
         13    1    3    3    0    0 -0.15290409582E+03 -0.94448237561E+02  0.47558945757E+03  0.50841465778E+03  0.00000000000E+00 0. -1.
        -13    1    3    3    0    0 -0.79344900738E+03 -0.28050768500E+03  0.20231396957E+04  0.21911960471E+04  0.00000000000E+00 0.  1.
         22    1    1    2    0    0  0.94635310320E+03  0.37495592257E+03 -0.11323808610E+04  0.15226498462E+04  0.00000000000E+00 0. -1.
<mgrwt>
<rscale>  0 0.39950690E+04</rscale>
<asrwt>0</asrwt>
<pdfrwt beam="1">  1        2 0.42989299E+00 0.39950690E+04</pdfrwt>
<pdfrwt beam="2">  1       -2 0.21968556E+00 0.39950690E+04</pdfrwt>
<totfact> 0.18259275E-01</totfact>
</mgrwt>
</event>
<event>
 6    1  0.5040916E-004  0.2679465E+04  0.7818608E-02  0.8341699E-01
          2   -1    0    0  501    0  0.00000000000E+00  0.00000000000E+00  0.21839226352E+04  0.21839226352E+04  0.00000000000E+00 0.  1.
         -2   -1    0    0    0  501 -0.00000000000E+00 -0.00000000000E+00 -0.82186212792E+03  0.82186212792E+03  0.00000000000E+00 0. -1.
         23    2    1    2    0    0  0.50723014252E+03  0.11463681748E+04  0.15655668045E+03  0.12666235038E+04  0.91557066889E+02 0.  0.
         13    1    3    3    0    0  0.35392385205E+03  0.87548686078E+03  0.92436875514E+02  0.94883292123E+03  0.00000000000E+00 0.  1.
        -13    1    3    3    0    0  0.15330629047E+03  0.27088131398E+03  0.64119804932E+02  0.31779058253E+03  0.00000000000E+00 0. -1.
         22    1    1    2    0    0 -0.50723014252E+03 -0.11463681748E+04  0.12055038269E+04  0.17391612594E+04  0.00000000000E+00 0.  1.
<mgrwt>
<rscale>  0 0.26794651E+04</rscale>
<asrwt>0</asrwt>
<pdfrwt beam="1">  1        2 0.33598810E+00 0.26794651E+04</pdfrwt>
<pdfrwt beam="2">  1       -2 0.12644033E+00 0.26794651E+04</pdfrwt>
<totfact> 0.21583329E+00</totfact>
</mgrwt>
</event>
<event>
 6    1  0.5040916E-004  0.1442742E+04  0.7818608E-02  0.8923448E-01
          2   -1    0    0  501    0  0.00000000000E+00  0.00000000000E+00  0.83770338164E+03  0.83770338164E+03  0.00000000000E+00 0.  1.
         -2   -1    0    0    0  501 -0.00000000000E+00 -0.00000000000E+00 -0.62119412796E+03  0.62119412796E+03  0.00000000000E+00 0. -1.
         23    2    1    2    0    0  0.50191340099E+03 -0.22822742638E+03  0.57448667650E+03  0.80151432188E+03  0.91572083375E+02 0.  0.
         11    1    3    3    0    0  0.10591716300E+03 -0.39014255637E+02  0.17380810819E+03  0.20724337391E+03  0.00000000000E+00 0. -1.
        -11    1    3    3    0    0  0.39599623799E+03 -0.18921317074E+03  0.40067856832E+03  0.59427094796E+03  0.00000000000E+00 0.  1.
         22    1    1    2    0    0 -0.50191340099E+03  0.22822742638E+03 -0.35797742282E+03  0.65738318772E+03  0.00000000000E+00 0. -1.
<mgrwt>
<rscale>  0 0.14427424E+04</rscale>
<asrwt>0</asrwt>
<pdfrwt beam="1">  1        2 0.12887744E+00 0.14427424E+04</pdfrwt>
<pdfrwt beam="2">  1       -2 0.95568327E-01 0.14427424E+04</pdfrwt>
<totfact> 0.28879710E+01</totfact>
</mgrwt>
</event>
<event>
 6    1  0.5040916E-004  0.3352506E+04  0.7818608E-02  0.8149662E-01
          2   -1    0    0  501    0  0.00000000000E+00  0.00000000000E+00  0.87707888008E+03  0.87707888008E+03  0.00000000000E+00 0.  1.
         -2   -1    0    0    0  501 -0.00000000000E+00 -0.00000000000E+00 -0.32036156531E+04  0.32036156531E+04  0.00000000000E+00 0. -1.
         23    2    1    2    0    0  0.98357147434E+03 -0.46077474722E+03  0.38761550011E+03  0.11572806428E+04  0.96573792865E+02 0.  0.
         13    1    3    3    0    0  0.49952553056E+03 -0.23818951997E+03  0.24854155756E+03  0.60665715931E+03  0.00000000000E+00 0. -1.
        -13    1    3    3    0    0  0.48404594377E+03 -0.22258522725E+03  0.13907394255E+03  0.55062348349E+03  0.00000000000E+00 0.  1.
         22    1    1    2    0    0 -0.98357147434E+03  0.46077474722E+03 -0.27141522731E+04  0.29234138904E+04  0.00000000000E+00 0. -1.
<mgrwt>
<rscale>  0 0.33525057E+04</rscale>
<asrwt>0</asrwt>
<pdfrwt beam="1">  1        2 0.13493521E+00 0.33525057E+04</pdfrwt>
<pdfrwt beam="2">  1       -2 0.49286394E+00 0.33525057E+04</pdfrwt>
<totfact> 0.46129115E-02</totfact>
</mgrwt>
</event>
<event>
 6    1  0.5040916E-004  0.1975838E+04  0.7818608E-02  0.8618001E-01
          2   -1    0    0  501    0  0.00000000000E+00  0.00000000000E+00  0.16876528098E+04  0.16876528098E+04  0.00000000000E+00 0.  1.
         -2   -1    0    0    0  501 -0.00000000000E+00 -0.00000000000E+00 -0.57830826598E+03  0.57830826598E+03  0.00000000000E+00 0. -1.
         23    2    1    2    0    0 -0.56411162996E+03 -0.56594480756E+03  0.12179848476E+04  0.14595380033E+04  0.90822011213E+02 0.  0.
         13    1    3    3    0    0 -0.36478862426E+03 -0.32736254846E+03  0.68090118242E+03  0.83896567197E+03  0.00000000000E+00 0.  1.
        -13    1    3    3    0    0 -0.19932300570E+03 -0.23858225911E+03  0.53708366522E+03  0.62057233132E+03  0.00000000000E+00 0. -1.
         22    1    1    2    0    0  0.56411162996E+03  0.56594480756E+03 -0.10864030380E+03  0.80642307251E+03  0.00000000000E+00 0. -1.
<mgrwt>
<rscale>  0 0.19758376E+04</rscale>
<asrwt>0</asrwt>
<pdfrwt beam="1">  1        2 0.25963889E+00 0.19758376E+04</pdfrwt>
<pdfrwt beam="2">  1       -2 0.88970503E-01 0.19758376E+04</pdfrwt>
<totfact> 0.10065061E+01</totfact>
</mgrwt>
</event>
<event>
 6    1  0.5040916E-004  0.1388723E+04  0.7818608E-02  0.8962022E-01
         -2   -1    0    0    0  501 -0.00000000000E+00  0.00000000000E+00  0.11995116586E+04  0.11995116586E+04  0.00000000000E+00 0. -1.
          2   -1    0    0  501    0  0.00000000000E+00 -0.00000000000E+00 -0.40194529209E+03  0.40194529209E+03  0.00000000000E+00 0.  1.
         23    2    1    2    0    0  0.22588778600E+03  0.55276989933E+03 -0.91262588436E-02  0.60511036435E+03  0.97870830655E+02 0.  0.
         13    1    3    3    0    0  0.21041439884E+03  0.46243813416E+03 -0.29282016451E+02  0.50890144788E+03  0.00000000000E+00 0. -1.
        -13    1    3    3    0    0  0.15473387162E+02  0.90331765170E+02  0.29272890193E+02  0.96208916475E+02  0.00000000000E+00 0.  1.
         22    1    1    2    0    0 -0.22588778600E+03 -0.55276989933E+03  0.79757549280E+03  0.99634658638E+03  0.00000000000E+00 0.  1.
<mgrwt>
<rscale>  0 0.13887232E+04</rscale>
<asrwt>0</asrwt>
<pdfrwt beam="1">  1        2 0.61837738E-01 0.13887232E+04</pdfrwt>
<pdfrwt beam="2">  1       -2 0.18454025E+00 0.13887232E+04</pdfrwt>
<totfact> 0.12985908E+01</totfact>
</mgrwt>
</event>
<event>
 6    1  0.5040916E-004  0.2324117E+04  0.7818608E-02  0.8468472E-01
          2   -1    0    0  501    0  0.00000000000E+00  0.00000000000E+00  0.18207394377E+04  0.18207394377E+04  0.00000000000E+00 0.  1.
         -2   -1    0    0    0  501 -0.00000000000E+00 -0.00000000000E+00 -0.74166571629E+03  0.74166571629E+03  0.00000000000E+00 0. -1.
         23    2    1    2    0    0  0.40949249273E+03  0.10802116398E+04  0.66089791702E+03  0.13338237396E+04  0.88081912608E+02 0.  0.
         11    1    3    3    0    0  0.24682929089E+03  0.68510880604E+03  0.46300978988E+03  0.86294660350E+03  0.00000000000E+00 0.  1.
        -11    1    3    3    0    0  0.16266320184E+03  0.39510283374E+03  0.19788812714E+03  0.47087713613E+03  0.00000000000E+00 0. -1.
         22    1    1    2    0    0 -0.40949249273E+03 -0.10802116398E+04  0.41817580437E+03  0.12285814144E+04  0.00000000000E+00 0.  1.
<mgrwt>
<rscale>  0 0.23241171E+04</rscale>
<asrwt>0</asrwt>
<pdfrwt beam="1">  1        2 0.28011376E+00 0.23241171E+04</pdfrwt>
<pdfrwt beam="2">  1       -2 0.11410242E+00 0.23241171E+04</pdfrwt>
<totfact> 0.45701412E+00</totfact>
</mgrwt>
</event>
<event>
 6    1  0.5040916E-004  0.1531175E+04  0.7818608E-02  0.8863983E-01
         -2   -1    0    0    0  501 -0.00000000000E+00  0.00000000000E+00  0.38404850795E+03  0.38404850795E+03  0.00000000000E+00 0. -1.
          2   -1    0    0  501    0  0.00000000000E+00 -0.00000000000E+00 -0.15261722894E+04  0.15261722894E+04  0.00000000000E+00 0.  1.
         23    2    1    2    0    0  0.36996401696E+03  0.22490254118E+03 -0.13567124740E+04  0.14269994879E+04  0.90577450733E+02 0.  0.
         13    1    3    3    0    0  0.24600934086E+03  0.14079003729E+03 -0.10162644442E+04  0.10550525347E+04  0.00000000000E+00 0. -1.
        -13    1    3    3    0    0  0.12395467610E+03  0.84112503897E+02 -0.34044802975E+03  0.37194695321E+03  0.00000000000E+00 0.  1.
         22    1    1    2    0    0 -0.36996401696E+03 -0.22490254118E+03  0.21458869257E+03  0.48322130940E+03  0.00000000000E+00 0. -1.
<mgrwt>
<rscale>  0 0.15311750E+04</rscale>
<asrwt>0</asrwt>
<pdfrwt beam="1">  1        2 0.23479574E+00 0.15311750E+04</pdfrwt>
<pdfrwt beam="2">  1       -2 0.59084386E-01 0.15311750E+04</pdfrwt>
<totfact> 0.31638321E+01</totfact>
</mgrwt>
</event>
<event>
 6    1  0.5040916E-004  0.2915610E+04  0.7818608E-02  0.8268248E-01
         -2   -1    0    0    0  501 -0.00000000000E+00  0.00000000000E+00  0.46644828469E+03  0.46644828469E+03  0.00000000000E+00 0. -1.
          2   -1    0    0  501    0  0.00000000000E+00 -0.00000000000E+00 -0.45561233150E+04  0.45561233150E+04  0.00000000000E+00 0.  1.
         23    2    1    2    0    0 -0.20361104972E+03  0.81157823293E+03 -0.40996711166E+04  0.41857821343E+04  0.11555138779E+03 0.  0.
         13    1    3    3    0    0 -0.66759584121E+02  0.47133763121E+03 -0.21754934063E+04  0.22269682453E+04  0.00000000000E+00 0. -1.
        -13    1    3    3    0    0 -0.13685146560E+03  0.34024060172E+03 -0.19241777104E+04  0.19588138890E+04  0.00000000000E+00 0.  1.
         22    1    1    2    0    0  0.20361104972E+03 -0.81157823293E+03  0.99960863174E+01  0.83678946544E+03  0.00000000000E+00 0. -1.
<mgrwt>
<rscale>  0 0.29156103E+04</rscale>
<asrwt>0</asrwt>
<pdfrwt beam="1">  1        2 0.70094206E+00 0.29156103E+04</pdfrwt>
<pdfrwt beam="2">  1       -2 0.71761273E-01 0.29156103E+04</pdfrwt>
<totfact> 0.16431593E-01</totfact>
</mgrwt>
</event>
<event>
 6    1  0.5040916E-004  0.2099276E+04  0.7818608E-02  0.8561562E-01
         -2   -1    0    0    0  501 -0.00000000000E+00  0.00000000000E+00  0.36036453983E+03  0.36036453983E+03  0.00000000000E+00 0. -1.
          2   -1    0    0  501    0  0.00000000000E+00 -0.00000000000E+00 -0.30572919791E+04  0.30572919791E+04  0.00000000000E+00 0.  1.
         23    2    1    2    0    0  0.18708286549E+02  0.63198770523E+03 -0.27110018282E+04  0.27852353397E+04  0.90810382216E+02 0.  0.
         11    1    3    3    0    0  0.17177404954E+02  0.10933556503E+03 -0.35029439821E+03  0.36736289203E+03  0.00000000000E+00 0. -1.
        -11    1    3    3    0    0  0.15308815949E+01  0.52265214020E+03 -0.23607074299E+04  0.24178724476E+04  0.00000000000E+00 0.  1.
         22    1    1    2    0    0 -0.18708286549E+02 -0.63198770523E+03  0.14074388890E+02  0.63242117926E+03  0.00000000000E+00 0. -1.
<mgrwt>
<rscale>  0 0.20992757E+04</rscale>
<asrwt>0</asrwt>
<pdfrwt beam="1">  1        2 0.47035261E+00 0.20992757E+04</pdfrwt>
<pdfrwt beam="2">  1       -2 0.55440698E-01 0.20992757E+04</pdfrwt>
<totfact> 0.45240133E+00</totfact>
</mgrwt>
</event>
<event>
 6    1  0.7462571E-004  0.4622581E+04  0.7818608E-02  0.7889521E-01
          2   -1    0    0  501    0  0.00000000000E+00  0.00000000000E+00  0.24871179263E+04  0.24871179263E+04  0.00000000000E+00 0.  1.
         -2   -1    0    0    0  501 -0.00000000000E+00 -0.00000000000E+00 -0.21478929820E+04  0.21478929820E+04  0.00000000000E+00 0. -1.
         23    2    1    2    0    0  0.20556318363E+04 -0.10459000704E+04  0.33805071584E+02  0.23084661522E+04  0.91345439965E+02 0.  0.
         13    1    3    3    0    0  0.12837169514E+04 -0.64329252538E+03 -0.22367025133E+02  0.14360552803E+04  0.00000000000E+00 0.  1.
        -13    1    3    3    0    0  0.77191488491E+03 -0.40260754499E+03  0.56172096716E+02  0.87241087182E+03  0.00000000000E+00 0. -1.
         22    1    1    2    0    0 -0.20556318363E+04  0.10459000704E+04  0.30541987267E+03  0.23265447561E+04  0.00000000000E+00 0. -1.
<mgrwt>
<rscale>  0 0.46225807E+04</rscale>
<asrwt>0</asrwt>
<pdfrwt beam="1">  1        2 0.38263353E+00 0.46225807E+04</pdfrwt>
<pdfrwt beam="2">  1       -2 0.33044507E+00 0.46225807E+04</pdfrwt>
<totfact> 0.54805612E-02</totfact>
</mgrwt>
</event>
<event>
 6    1  0.5040916E-004  0.6831926E+04  0.7818608E-02  0.7595022E-01
          2   -1    0    0  501    0  0.00000000000E+00  0.00000000000E+00  0.54007114414E+04  0.54007114414E+04  0.00000000000E+00 0.  1.
         -2   -1    0    0    0  501 -0.00000000000E+00 -0.00000000000E+00 -0.21606051297E+04  0.21606051297E+04  0.00000000000E+00 0. -1.
         23    2    1    2    0    0  0.38242197456E+03  0.30518045985E+04  0.32637552485E+04  0.44855537152E+04  0.91301345324E+02 0.  0.
         11    1    3    3    0    0  0.14848037331E+03  0.85465521118E+03  0.92159561921E+03  0.12656304503E+04  0.00000000000E+00 0.  1.
        -11    1    3    3    0    0  0.23394160125E+03  0.21971493873E+04  0.23421596293E+04  0.32199232649E+04  0.00000000000E+00 0. -1.
         22    1    1    2    0    0 -0.38242197456E+03 -0.30518045985E+04 -0.23648936850E+02  0.30757628560E+04  0.00000000000E+00 0. -1.
<mgrwt>
<rscale>  0 0.68319265E+04</rscale>
<asrwt>0</asrwt>
<pdfrwt beam="1">  1        2 0.83087868E+00 0.68319265E+04</pdfrwt>
<pdfrwt beam="2">  1       -2 0.33240079E+00 0.68319265E+04</pdfrwt>
<totfact> 0.10925715E-04</totfact>
</mgrwt>
</event>
<event>
 6    1  0.5040916E-004  0.1202125E+04  0.7818608E-02  0.9110998E-01
         -2   -1    0    0    0  501 -0.00000000000E+00  0.00000000000E+00  0.15991255893E+03  0.15991255893E+03  0.00000000000E+00 0. -1.
          2   -1    0    0  501    0  0.00000000000E+00 -0.00000000000E+00 -0.22592113299E+04  0.22592113299E+04  0.00000000000E+00 0.  1.
         23    2    1    2    0    0 -0.57579174619E+03 -0.10117118704E+03 -0.80385898082E+03  0.99787936590E+03  0.88330197406E+02 0.  0.
         13    1    3    3    0    0 -0.25612386486E+03 -0.63909088131E+02 -0.29576697489E+03  0.39643651337E+03  0.00000000000E+00 0.  1.
        -13    1    3    3    0    0 -0.31966788133E+03 -0.37262098907E+02 -0.50809200593E+03  0.60144285252E+03  0.00000000000E+00 0. -1.
         22    1    1    2    0    0  0.57579174619E+03  0.10117118704E+03 -0.12954397901E+04  0.14212445229E+04  0.00000000000E+00 0. -1.
<mgrwt>
<rscale>  0 0.12021252E+04</rscale>
<asrwt>0</asrwt>
<pdfrwt beam="1">  1        2 0.34757098E+00 0.12021252E+04</pdfrwt>
<pdfrwt beam="2">  1       -2 0.24601932E-01 0.12021252E+04</pdfrwt>
<totfact> 0.69923082E+01</totfact>
</mgrwt>
</event>
<event>
 6    1  0.5040916E-004  0.2780877E+04  0.7818608E-02  0.8309230E-01
          2   -1    0    0  501    0  0.00000000000E+00  0.00000000000E+00  0.31937709895E+04  0.31937709895E+04  0.00000000000E+00 0.  1.
         -2   -1    0    0    0  501 -0.00000000000E+00 -0.00000000000E+00 -0.60534066172E+03  0.60534066172E+03  0.00000000000E+00 0. -1.
         23    2    1    2    0    0  0.15879956892E+03  0.93661524498E+03  0.26798700883E+04  0.28447392658E+04  0.91500711167E+02 0.  0.
         13    1    3    3    0    0  0.12219011076E+03  0.60874979240E+03  0.18642231524E+04  0.19649006832E+04  0.00000000000E+00 0. -1.
        -13    1    3    3    0    0  0.36609458154E+02  0.32786545258E+03  0.81564693584E+03  0.87983858256E+03  0.00000000000E+00 0.  1.
         22    1    1    2    0    0 -0.15879956892E+03 -0.93661524498E+03 -0.91439760506E+02  0.95437238540E+03  0.00000000000E+00 0. -1.
<mgrwt>
<rscale>  0 0.27808772E+04</rscale>
<asrwt>0</asrwt>
<pdfrwt beam="1">  1        2 0.49134937E+00 0.27808772E+04</pdfrwt>
<pdfrwt beam="2">  1       -2 0.93129334E-01 0.27808772E+04</pdfrwt>
<totfact> 0.11133458E+00</totfact>
</mgrwt>
</event>
<event>
 6    1  0.5040916E-004  0.3464449E+04  0.7818608E-02  0.8122267E-01
         -2   -1    0    0    0  501 -0.00000000000E+00  0.00000000000E+00  0.15415461485E+04  0.15415461485E+04  0.00000000000E+00 0. -1.
          2   -1    0    0  501    0  0.00000000000E+00 -0.00000000000E+00 -0.19464882476E+04  0.19464882476E+04  0.00000000000E+00 0.  1.
         23    2    1    2    0    0 -0.87827743473E+03 -0.14869859844E+04 -0.83918032565E+02  0.17314595979E+04  0.91714407229E+02 0.  0.
         13    1    3    3    0    0 -0.54689815360E+03 -0.96166285296E+03 -0.93853830724E+02  0.11102709465E+04  0.00000000000E+00 0. -1.
        -13    1    3    3    0    0 -0.33137928113E+03 -0.52532313149E+03  0.99357981593E+01  0.62118865132E+03  0.00000000000E+00 0.  1.
         22    1    1    2    0    0  0.87827743473E+03  0.14869859844E+04 -0.32102406654E+03  0.17565747982E+04  0.00000000000E+00 0.  1.
<mgrwt>
<rscale>  0 0.34644489E+04</rscale>
<asrwt>0</asrwt>
<pdfrwt beam="1">  1        2 0.29945973E+00 0.34644489E+04</pdfrwt>
<pdfrwt beam="2">  1       -2 0.23716095E+00 0.34644489E+04</pdfrwt>
<totfact> 0.45489736E-01</totfact>
</mgrwt>
</event>
<event>
 6    1  0.5040916E-004  0.1897255E+04  0.7818608E-02  0.8656224E-01
         -4   -1    0    0    0  501 -0.00000000000E+00  0.00000000000E+00  0.11884797796E+04  0.11884797796E+04  0.00000000000E+00 0. -1.
          4   -1    0    0  501    0  0.00000000000E+00 -0.00000000000E+00 -0.75718060338E+03  0.75718060338E+03  0.00000000000E+00 0.  1.
         23    2    1    2    0    0  0.15136634064E+03 -0.71557710000E+03  0.83232045787E+03  0.11115258474E+04  0.88147658254E+02 0.  0.
         13    1    3    3    0    0  0.11548757207E+03 -0.33486907396E+03  0.39182576352E+03  0.52820649841E+03  0.00000000000E+00 0.  1.
        -13    1    3    3    0    0  0.35878768562E+02 -0.38070802604E+03  0.44049469435E+03  0.58331934896E+03  0.00000000000E+00 0. -1.
         22    1    1    2    0    0 -0.15136634064E+03  0.71557710000E+03 -0.40102128167E+03  0.83413453560E+03  0.00000000000E+00 0.  1.
<mgrwt>
<rscale>  0 0.18972547E+04</rscale>
<asrwt>0</asrwt>
<pdfrwt beam="1">  1        4 0.11648932E+00 0.18972547E+04</pdfrwt>
<pdfrwt beam="2">  1       -4 0.18284304E+00 0.18972547E+04</pdfrwt>
<totfact> 0.18348005E-01</totfact>
</mgrwt>
</event>
<event>
 6    1  0.5040916E-004  0.2504099E+04  0.7818608E-02  0.8401527E-01
          2   -1    0    0  501    0  0.00000000000E+00  0.00000000000E+00  0.19644850588E+04  0.19644850588E+04  0.00000000000E+00 0.  1.
         -2   -1    0    0    0  501 -0.00000000000E+00 -0.00000000000E+00 -0.79798444517E+03  0.79798444517E+03  0.00000000000E+00 0. -1.
         23    2    1    2    0    0  0.12119399151E+04  0.17865727992E+03  0.86017911248E+03  0.14997147204E+04  0.92300354635E+02 0.  0.
         13    1    3    3    0    0  0.82514122981E+03  0.11838009974E+03  0.53202159238E+03  0.98889780660E+03  0.00000000000E+00 0. -1.
        -13    1    3    3    0    0  0.38679868530E+03  0.60277180184E+02  0.32815752009E+03  0.51081691377E+03  0.00000000000E+00 0.  1.
         22    1    1    2    0    0 -0.12119399151E+04 -0.17865727992E+03  0.30632150120E+03  0.12627547836E+04  0.00000000000E+00 0.  1.
<mgrwt>
<rscale>  0 0.25040995E+04</rscale>
<asrwt>0</asrwt>
<pdfrwt beam="1">  1        2 0.30222847E+00 0.25040995E+04</pdfrwt>
<pdfrwt beam="2">  1       -2 0.12276684E+00 0.25040995E+04</pdfrwt>
<totfact> 0.31273771E+00</totfact>
</mgrwt>
</event>
<event>
 6    1  0.5040916E-004  0.2759731E+04  0.7818608E-02  0.8315881E-01
          2   -1    0    0  501    0  0.00000000000E+00  0.00000000000E+00  0.22306242932E+04  0.22306242932E+04  0.00000000000E+00 0.  1.
         -2   -1    0    0    0  501 -0.00000000000E+00 -0.00000000000E+00 -0.85358535644E+03  0.85358535644E+03  0.00000000000E+00 0. -1.
         23    2    1    2    0    0  0.56591744370E+03 -0.12542309107E+04  0.77885321904E+03  0.15838150738E+04  0.92196100520E+02 0.  0.
         13    1    3    3    0    0  0.28481535544E+03 -0.56326736933E+03  0.31519485294E+03  0.70550528797E+03  0.00000000000E+00 0. -1.
        -13    1    3    3    0    0  0.28110208826E+03 -0.69096354132E+03  0.46365836611E+03  0.87830978585E+03  0.00000000000E+00 0.  1.
         22    1    1    2    0    0 -0.56591744370E+03  0.12542309107E+04  0.59818571777E+03  0.15003945759E+04  0.00000000000E+00 0. -1.
<mgrwt>
<rscale>  0 0.27597306E+04</rscale>
<asrwt>0</asrwt>
<pdfrwt beam="1">  1        2 0.34317297E+00 0.27597306E+04</pdfrwt>
<pdfrwt beam="2">  1       -2 0.13132082E+00 0.27597306E+04</pdfrwt>
<totfact> 0.18338082E+00</totfact>
</mgrwt>
</event>
<event>
 6    1  0.5040916E-004  0.7448885E+03  0.7818608E-02  0.9643404E-01
          4   -1    0    0  501    0  0.00000000000E+00  0.00000000000E+00  0.50282965589E+03  0.50282965589E+03  0.00000000000E+00 0.  1.
         -4   -1    0    0    0  501 -0.00000000000E+00 -0.00000000000E+00 -0.27586822675E+03  0.27586822675E+03  0.00000000000E+00 0. -1.
         23    2    1    2    0    0  0.34545743500E+03  0.20141698666E+02  0.24301272260E+03  0.43228170021E+03  0.89809562757E+02 0.  0.
         13    1    3    3    0    0  0.17999060082E+03 -0.24227241841E+02  0.90481727200E+02  0.20290519606E+03  0.00000000000E+00 0.  1.
        -13    1    3    3    0    0  0.16546683418E+03  0.44368940507E+02  0.15253099540E+03  0.22937650415E+03  0.00000000000E+00 0. -1.
         22    1    1    2    0    0 -0.34545743500E+03 -0.20141698666E+02 -0.16051293462E+02  0.34641618243E+03  0.00000000000E+00 0.  1.
<mgrwt>
<rscale>  0 0.74488852E+03</rscale>
<asrwt>0</asrwt>
<pdfrwt beam="1">  1        4 0.77358409E-01 0.74488852E+03</pdfrwt>
<pdfrwt beam="2">  1       -4 0.42441266E-01 0.74488852E+03</pdfrwt>
<totfact> 0.16089399E+01</totfact>
</mgrwt>
</event>
<event>
 6    1  0.5040916E-004  0.2019638E+04  0.7818608E-02  0.8597494E-01
          2   -1    0    0  501    0  0.00000000000E+00  0.00000000000E+00  0.50937807667E+04  0.50937807667E+04  0.00000000000E+00 0. -1.
         -2   -1    0    0    0  501 -0.00000000000E+00 -0.00000000000E+00 -0.20019211287E+03  0.20019211287E+03  0.00000000000E+00 0.  1.
         23    2    1    2    0    0  0.37301050904E+03 -0.91312310283E+03  0.29925006996E+04  0.31522291856E+04  0.92508166543E+02 0.  0.
         13    1    3    3    0    0  0.12878780283E+03 -0.43333461165E+03  0.14021740381E+04  0.14732471676E+04  0.00000000000E+00 0.  1.
        -13    1    3    3    0    0  0.24422270621E+03 -0.47978849118E+03  0.15903266615E+04  0.16789820180E+04  0.00000000000E+00 0. -1.
         22    1    1    2    0    0 -0.37301050904E+03  0.91312310283E+03  0.19010879542E+04  0.21417436939E+04  0.00000000000E+00 0. -1.
<mgrwt>
<rscale>  0 0.20196383E+04</rscale>
<asrwt>0</asrwt>
<pdfrwt beam="1">  1        2 0.78365848E+00 0.20196383E+04</pdfrwt>
<pdfrwt beam="2">  1       -2 0.30798791E-01 0.20196383E+04</pdfrwt>
<totfact> 0.24096371E-01</totfact>
</mgrwt>
</event>
<event>
 6    1  0.5040916E-004  0.3872767E+04  0.7818608E-02  0.8030717E-01
          2   -1    0    0  501    0  0.00000000000E+00  0.00000000000E+00  0.28485397403E+04  0.28485397403E+04  0.00000000000E+00 0.  1.
         -2   -1    0    0    0  501 -0.00000000000E+00 -0.00000000000E+00 -0.13163171209E+04  0.13163171209E+04  0.00000000000E+00 0. -1.
         23    2    1    2    0    0 -0.76089509026E+03  0.33366288978E+03  0.26462729936E+04  0.27751085032E+04  0.90411202297E+02 0.  0.
         13    1    3    3    0    0 -0.66766707655E+03  0.25982577284E+03  0.22396169664E+04  0.23514193402E+04  0.00000000000E+00 0. -1.
        -13    1    3    3    0    0 -0.93228013712E+02  0.73837116938E+02  0.40665602719E+03  0.42368916298E+03  0.00000000000E+00 0.  1.
         22    1    1    2    0    0  0.76089509026E+03 -0.33366288978E+03 -0.11140503742E+04  0.13897483581E+04  0.00000000000E+00 0. -1.
<mgrwt>
<rscale>  0 0.38727673E+04</rscale>
<asrwt>0</asrwt>
<pdfrwt beam="1">  1        2 0.43823688E+00 0.38727673E+04</pdfrwt>
<pdfrwt beam="2">  1       -2 0.20251033E+00 0.38727673E+04</pdfrwt>
<totfact> 0.22043020E-01</totfact>
</mgrwt>
</event>
<event>
 6    1  0.5040916E-004  0.1174867E+04  0.7818608E-02  0.9135145E-01
         -2   -1    0    0    0  501 -0.00000000000E+00  0.00000000000E+00  0.29518724664E+03  0.29518724664E+03  0.00000000000E+00 0. -1.
          2   -1    0    0  501    0  0.00000000000E+00 -0.00000000000E+00 -0.11690137071E+04  0.11690137071E+04  0.00000000000E+00 0.  1.
         23    2    1    2    0    0 -0.17610218550E+03  0.35457384741E+03 -0.97428104425E+03  0.10557579143E+04  0.93094723296E+02 0.  0.
         11    1    3    3    0    0 -0.11735740401E+03  0.18120824479E+03 -0.42346516530E+03  0.47532297911E+03  0.00000000000E+00 0.  1.
        -11    1    3    3    0    0 -0.58744781495E+02  0.17336560262E+03 -0.55081587895E+03  0.58043493522E+03  0.00000000000E+00 0. -1.
         22    1    1    2    0    0  0.17610218550E+03 -0.35457384741E+03  0.10045458382E+03  0.40844303938E+03  0.00000000000E+00 0. -1.
<mgrwt>
<rscale>  0 0.11748667E+04</rscale>
<asrwt>0</asrwt>
<pdfrwt beam="1">  1        2 0.17984826E+00 0.11748667E+04</pdfrwt>
<pdfrwt beam="2">  1       -2 0.45413423E-01 0.11748667E+04</pdfrwt>
<totfact> 0.89807244E+01</totfact>
</mgrwt>
</event>
<event>
 6    1  0.5040916E-004  0.1566554E+04  0.7818608E-02  0.8841363E-01
          2   -1    0    0  501    0  0.00000000000E+00  0.00000000000E+00  0.12550391310E+04  0.12550391310E+04  0.00000000000E+00 0.  1.
         -2   -1    0    0    0  501 -0.00000000000E+00 -0.00000000000E+00 -0.48884749740E+03  0.48884749740E+03  0.00000000000E+00 0. -1.
         23    2    1    2    0    0 -0.33733201063E+03  0.54758101793E+03  0.87695270366E+03  0.10912719861E+04  0.90502191641E+02 0.  0.
         11    1    3    3    0    0 -0.20560453251E+03  0.27530716117E+03  0.52182592683E+03  0.62479561034E+03  0.00000000000E+00 0.  1.
        -11    1    3    3    0    0 -0.13172747811E+03  0.27227385676E+03  0.35512677683E+03  0.46647637581E+03  0.00000000000E+00 0. -1.
         22    1    1    2    0    0  0.33733201063E+03 -0.54758101793E+03 -0.11076107010E+03  0.65261464222E+03  0.00000000000E+00 0. -1.
<mgrwt>
<rscale>  0 0.15665538E+04</rscale>
<asrwt>0</asrwt>
<pdfrwt beam="1">  1        2 0.19308294E+00 0.15665538E+04</pdfrwt>
<pdfrwt beam="2">  1       -2 0.75207308E-01 0.15665538E+04</pdfrwt>
<totfact> 0.26804906E+01</totfact>
</mgrwt>
</event>
<event>
 6    1  0.5040916E-004  0.4492423E+04  0.7818608E-02  0.7911965E-01
          2   -1    0    0  501    0  0.00000000000E+00  0.00000000000E+00  0.14739051343E+04  0.14739051343E+04  0.00000000000E+00 0.  1.
         -2   -1    0    0    0  501 -0.00000000000E+00 -0.00000000000E+00 -0.34231961449E+04  0.34231961449E+04  0.00000000000E+00 0. -1.
         23    2    1    2    0    0  0.98036468901E+03  0.97065759977E+03  0.95595261085E+03  0.16809340573E+04  0.91666849409E+02 0.  0.
         13    1    3    3    0    0  0.66938839148E+03  0.70425276600E+03  0.63595865830E+03  0.11612476877E+04  0.00000000000E+00 0.  1.
        -13    1    3    3    0    0  0.31097629754E+03  0.26640483377E+03  0.31999395256E+03  0.51968636961E+03  0.00000000000E+00 0. -1.
         22    1    1    2    0    0 -0.98036468901E+03 -0.97065759977E+03 -0.29052436214E+04  0.32161672219E+04  0.00000000000E+00 0. -1.
<mgrwt>
<rscale>  0 0.44924231E+04</rscale>
<asrwt>0</asrwt>
<pdfrwt beam="1">  1        2 0.22675464E+00 0.44924231E+04</pdfrwt>
<pdfrwt beam="2">  1       -2 0.52664556E+00 0.44924231E+04</pdfrwt>
<totfact> 0.11443884E-02</totfact>
</mgrwt>
</event>
<event>
 6    1  0.5040916E-004  0.1342457E+04  0.7818608E-02  0.8996558E-01
          2   -1    0    0  501    0  0.00000000000E+00  0.00000000000E+00  0.22131894977E+04  0.22131894977E+04  0.00000000000E+00 0.  1.
         -2   -1    0    0    0  501 -0.00000000000E+00 -0.00000000000E+00 -0.20357391412E+03  0.20357391412E+03  0.00000000000E+00 0. -1.
         23    2    1    2    0    0  0.10646096205E+03 -0.32873199090E+03 -0.19258002380E+02  0.35867529754E+03  0.94225474940E+02 0.  0.
         11    1    3    3    0    0  0.48472280385E+02 -0.15463510708E+03 -0.56143954275E+02  0.17150429122E+03  0.00000000000E+00 0. -1.
        -11    1    3    3    0    0  0.57988681662E+02 -0.17409688383E+03  0.36885951895E+02  0.18717100632E+03  0.00000000000E+00 0.  1.
         22    1    1    2    0    0 -0.10646096205E+03  0.32873199090E+03  0.20288735860E+04  0.20580881143E+04  0.00000000000E+00 0.  1.
<mgrwt>
<rscale>  0 0.13424569E+04</rscale>
<asrwt>0</asrwt>
<pdfrwt beam="1">  1        2 0.34049067E+00 0.13424569E+04</pdfrwt>
<pdfrwt beam="2">  1       -2 0.31319065E-01 0.13424569E+04</pdfrwt>
<totfact> 0.47020816E+01</totfact>
</mgrwt>
</event>
<event>
 6    1  0.5040916E-004  0.3443311E+04  0.7818608E-02  0.8127357E-01
          1   -1    0    0  501    0  0.00000000000E+00  0.00000000000E+00  0.25956784601E+04  0.25956784601E+04  0.00000000000E+00 0.  1.
         -1   -1    0    0    0  501 -0.00000000000E+00 -0.00000000000E+00 -0.11419355742E+04  0.11419355742E+04  0.00000000000E+00 0. -1.
         23    2    1    2    0    0  0.64804798206E+03  0.86525490102E+03  0.21809165192E+04  0.24347657224E+04  0.55272312193E+02 0.  0.
         13    1    3    3    0    0  0.53538078125E+03  0.67806412162E+03  0.17461318279E+04  0.19481734764E+04  0.00000000000E+00 0. -1.
        -13    1    3    3    0    0  0.11266720081E+03  0.18719077940E+03  0.43478469134E+03  0.48659224598E+03  0.00000000000E+00 0.  1.
         22    1    1    2    0    0 -0.64804798206E+03 -0.86525490102E+03 -0.72717363329E+03  0.13028483119E+04  0.00000000000E+00 0. -1.
<mgrwt>
<rscale>  0 0.34433109E+04</rscale>
<asrwt>0</asrwt>
<pdfrwt beam="1">  1        1 0.39933515E+00 0.34433109E+04</pdfrwt>
<pdfrwt beam="2">  1       -1 0.17568240E+00 0.34433109E+04</pdfrwt>
<totfact> 0.21292068E-01</totfact>
</mgrwt>
</event>
<event>
 6    1  0.5040916E-004  0.5599045E+04  0.7818608E-02  0.7742206E-01
         -1   -1    0    0    0  501 -0.00000000000E+00  0.00000000000E+00  0.17754378160E+04  0.17754378160E+04  0.00000000000E+00 0.  1.
          1   -1    0    0  501    0  0.00000000000E+00 -0.00000000000E+00 -0.44143066425E+04  0.44143066425E+04  0.00000000000E+00 0. -1.
         23    2    1    2    0    0 -0.33533986150E+02  0.27110442964E+04 -0.20875336872E+04  0.34230033898E+04  0.90937373134E+02 0.  0.
         11    1    3    3    0    0 -0.57492936080E+01  0.21649728886E+04 -0.17037806989E+04  0.27549971566E+04  0.00000000000E+00 0.  1.
        -11    1    3    3    0    0 -0.27784692542E+02  0.54607140775E+03 -0.38375298833E+03  0.66800623317E+03  0.00000000000E+00 0. -1.
         22    1    1    2    0    0  0.33533986150E+02 -0.27110442964E+04 -0.55133513928E+03  0.27667410687E+04  0.00000000000E+00 0. -1.
<mgrwt>
<rscale>  0 0.55990453E+04</rscale>
<asrwt>0</asrwt>
<pdfrwt beam="1">  1        1 0.67912410E+00 0.55990453E+04</pdfrwt>
<pdfrwt beam="2">  1       -1 0.27314428E+00 0.55990453E+04</pdfrwt>
<totfact> 0.13259370E-03</totfact>
</mgrwt>
</event>
<event>
 6    1  0.5040916E-004  0.3985756E+04  0.7818608E-02  0.8007426E-01
         -2   -1    0    0    0  501 -0.00000000000E+00  0.00000000000E+00  0.80976354047E+03  0.80976354047E+03  0.00000000000E+00 0. -1.
          2   -1    0    0  501    0  0.00000000000E+00 -0.00000000000E+00 -0.49045965400E+04  0.49045965400E+04  0.00000000000E+00 0.  1.
         23    2    1    2    0    0 -0.12342563063E+04 -0.38211489948E+03  0.12469503021E+03  0.13014452592E+04  0.93864189058E+02 0.  0.
         13    1    3    3    0    0 -0.80356022850E+03 -0.20217300478E+03  0.72793463954E+02  0.83179435744E+03  0.00000000000E+00 0. -1.
        -13    1    3    3    0    0 -0.43069607783E+03 -0.17994189470E+03  0.51901566257E+02  0.46965090175E+03  0.00000000000E+00 0.  1.
         22    1    1    2    0    0  0.12342563063E+04  0.38211489948E+03 -0.42195280297E+04  0.44129148213E+04  0.00000000000E+00 0.  1.
<mgrwt>
<rscale>  0 0.39857564E+04</rscale>
<asrwt>0</asrwt>
<pdfrwt beam="1">  1        2 0.75455331E+00 0.39857564E+04</pdfrwt>
<pdfrwt beam="2">  1       -2 0.12457901E+00 0.39857564E+04</pdfrwt>
<totfact> 0.16994640E-02</totfact>
</mgrwt>
</event>
<event>
 6    1  0.5040916E-004  0.4691931E+04  0.7818608E-02  0.7877871E-01
         -2   -1    0    0    0  501 -0.00000000000E+00  0.00000000000E+00  0.24643597463E+04  0.24643597463E+04  0.00000000000E+00 0.  1.
          2   -1    0    0  501    0  0.00000000000E+00 -0.00000000000E+00 -0.22332593753E+04  0.22332593753E+04  0.00000000000E+00 0. -1.
         23    2    1    2    0    0  0.73933204708E+03 -0.21715915256E+04  0.60219022648E+03  0.23738012907E+04  0.99387468764E+02 0.  0.
         11    1    3    3    0    0  0.61629691485E+03 -0.18057906093E+04  0.46206926467E+03  0.19632141038E+04  0.00000000000E+00 0.  1.
        -11    1    3    3    0    0  0.12303513224E+03 -0.36580091626E+03  0.14012096181E+03  0.41058718690E+03  0.00000000000E+00 0. -1.
         22    1    1    2    0    0 -0.73933204708E+03  0.21715915256E+04 -0.37108985547E+03  0.23238178308E+04  0.00000000000E+00 0.  1.
<mgrwt>
<rscale>  0 0.46919312E+04</rscale>
<asrwt>0</asrwt>
<pdfrwt beam="1">  1        2 0.34357836E+00 0.46919312E+04</pdfrwt>
<pdfrwt beam="2">  1       -2 0.37913227E+00 0.46919312E+04</pdfrwt>
<totfact> 0.37427802E-02</totfact>
</mgrwt>
</event>
<event>
 6    1  0.5040916E-004  0.3411053E+04  0.7818608E-02  0.8135199E-01
          2   -1    0    0  501    0  0.00000000000E+00  0.00000000000E+00  0.16992722993E+04  0.16992722993E+04  0.00000000000E+00 0.  1.
         -2   -1    0    0    0  501 -0.00000000000E+00 -0.00000000000E+00 -0.17118037254E+04  0.17118037254E+04  0.00000000000E+00 0. -1.
         23    2    1    2    0    0  0.14937658996E+04  0.19354480593E+03  0.79142704716E+03  0.17036963418E+04  0.86187583063E+02 0.  0.
         11    1    3    3    0    0  0.14005590837E+04  0.20150544695E+03  0.73574957132E+03  0.15948346697E+04  0.00000000000E+00 0. -1.
        -11    1    3    3    0    0  0.93206815906E+02 -0.79606410166E+01  0.55677475847E+02  0.10886167210E+03  0.00000000000E+00 0.  1.
         22    1    1    2    0    0 -0.14937658996E+04 -0.19354480593E+03 -0.80395847323E+03  0.17073796828E+04  0.00000000000E+00 0. -1.
<mgrwt>
<rscale>  0 0.34110530E+04</rscale>
<asrwt>0</asrwt>
<pdfrwt beam="1">  1        2 0.26142651E+00 0.34110530E+04</pdfrwt>
<pdfrwt beam="2">  1       -2 0.26335442E+00 0.34110530E+04</pdfrwt>
<totfact> 0.43239018E-01</totfact>
</mgrwt>
</event>
<event>
 6    1  0.5040916E-004  0.8744751E+03  0.7818608E-02  0.9458064E-01
          2   -1    0    0  501    0  0.00000000000E+00  0.00000000000E+00  0.10630628723E+04  0.10630628723E+04  0.00000000000E+00 0.  1.
         -2   -1    0    0    0  501 -0.00000000000E+00 -0.00000000000E+00 -0.17983571884E+03  0.17983571884E+03  0.00000000000E+00 0. -1.
         23    2    1    2    0    0 -0.84954049894E+02 -0.23109398883E+03  0.95183863549E+03  0.98730289918E+03  0.90269620826E+02 0.  0.
         11    1    3    3    0    0  0.14753235055E+02 -0.47844856905E+02  0.12756012852E+03  0.13703420983E+03  0.00000000000E+00 0.  1.
        -11    1    3    3    0    0 -0.99707284948E+02 -0.18324913192E+03  0.82427850697E+03  0.85026868934E+03  0.00000000000E+00 0. -1.
         22    1    1    2    0    0  0.84954049894E+02  0.23109398883E+03 -0.68611482062E+02  0.25559569194E+03  0.00000000000E+00 0. -1.
<mgrwt>
<rscale>  0 0.87447510E+03</rscale>
<asrwt>0</asrwt>
<pdfrwt beam="1">  1        2 0.16354813E+00 0.87447510E+03</pdfrwt>
<pdfrwt beam="2">  1       -2 0.27667034E-01 0.87447510E+03</pdfrwt>
<totfact> 0.27425936E+02</totfact>
</mgrwt>
</event>
<event>
 6    1  0.5040916E-004  0.1641095E+04  0.7818608E-02  0.8795692E-01
          2   -1    0    0  501    0  0.00000000000E+00  0.00000000000E+00  0.68529153092E+03  0.68529153092E+03  0.00000000000E+00 0.  1.
         -2   -1    0    0    0  501 -0.00000000000E+00 -0.00000000000E+00 -0.98249880083E+03  0.98249880083E+03  0.00000000000E+00 0. -1.
         23    2    1    2    0    0  0.23170554351E+03  0.28846478531E+03 -0.89038181901E+03  0.96867987055E+03  0.93067269877E+02 0.  0.
         13    1    3    3    0    0  0.12270002152E+03  0.22256654897E+03 -0.59308019148E+03  0.64524048039E+03  0.00000000000E+00 0.  1.
        -13    1    3    3    0    0  0.10900552199E+03  0.65898236346E+02 -0.29730162753E+03  0.32343939016E+03  0.00000000000E+00 0. -1.
         22    1    1    2    0    0 -0.23170554351E+03 -0.28846478531E+03  0.59317454910E+03  0.69911046120E+03  0.00000000000E+00 0.  1.
<mgrwt>
<rscale>  0 0.16410949E+04</rscale>
<asrwt>0</asrwt>
<pdfrwt beam="1">  1        2 0.10542947E+00 0.16410949E+04</pdfrwt>
<pdfrwt beam="2">  1       -2 0.15115366E+00 0.16410949E+04</pdfrwt>
<totfact> 0.11804407E+01</totfact>
</mgrwt>
</event>
<event>
 6    1  0.5040916E-004  0.4884647E+03  0.7818608E-02  0.1016834E+00
          2   -1    0    0  501    0  0.00000000000E+00  0.00000000000E+00  0.11737533008E+03  0.11737533008E+03  0.00000000000E+00 0.  1.
         -2   -1    0    0    0  501 -0.00000000000E+00 -0.00000000000E+00 -0.50819399117E+03  0.50819399117E+03  0.00000000000E+00 0. -1.
         23    2    1    2    0    0  0.59992066921E+02 -0.20115356509E+03 -0.33943749508E+03  0.40946326150E+03  0.91545314523E+02 0.  0.
         13    1    3    3    0    0  0.28061670871E+02 -0.17452472578E+03 -0.21541624934E+03  0.27865838900E+03  0.00000000000E+00 0. -1.
        -13    1    3    3    0    0  0.31930396050E+02 -0.26628839309E+02 -0.12402124574E+03  0.13080487250E+03  0.00000000000E+00 0.  1.
         22    1    1    2    0    0 -0.59992066921E+02  0.20115356509E+03 -0.51381166012E+02  0.21610605975E+03  0.00000000000E+00 0.  1.
<mgrwt>
<rscale>  0 0.48846469E+03</rscale>
<asrwt>0</asrwt>
<pdfrwt beam="1">  1        2 0.18057743E-01 0.48846469E+03</pdfrwt>
<pdfrwt beam="2">  1       -2 0.78183692E-01 0.48846469E+03</pdfrwt>
<totfact> 0.47097048E+02</totfact>
</mgrwt>
</event>
<event>
 6    1  0.5040916E-004  0.3448163E+04  0.7818608E-02  0.8126186E-01
         -2   -1    0    0    0  501 -0.00000000000E+00  0.00000000000E+00  0.23472728515E+04  0.23472728515E+04  0.00000000000E+00 0.  1.
          2   -1    0    0  501    0  0.00000000000E+00 -0.00000000000E+00 -0.12663447204E+04  0.12663447204E+04  0.00000000000E+00 0. -1.
         23    2    1    2    0    0  0.15253276574E+04 -0.77176456840E+03  0.76602545455E+03  0.18753975895E+04  0.89867181997E+02 0.  0.
         11    1    3    3    0    0  0.18242940946E+03 -0.71425907051E+02  0.11202342799E+03  0.22567985744E+03  0.00000000000E+00 0. -1.
        -11    1    3    3    0    0  0.13428982479E+04 -0.70033866135E+03  0.65400202655E+03  0.16497177321E+04  0.00000000000E+00 0.  1.
         22    1    1    2    0    0 -0.15253276574E+04  0.77176456840E+03  0.31490267662E+03  0.17382199824E+04  0.00000000000E+00 0.  1.
<mgrwt>
<rscale>  0 0.34481627E+04</rscale>
<asrwt>0</asrwt>
<pdfrwt beam="1">  1        2 0.19482227E+00 0.34481627E+04</pdfrwt>
<pdfrwt beam="2">  1       -2 0.36111890E+00 0.34481627E+04</pdfrwt>
<totfact> 0.18875049E-01</totfact>
</mgrwt>
</event>
<event>
 6    1  0.5040916E-004  0.1385193E+04  0.7818608E-02  0.8964607E-01
         -2   -1    0    0    0  501 -0.00000000000E+00  0.00000000000E+00  0.43924704747E+03  0.43924704747E+03  0.00000000000E+00 0. -1.
          2   -1    0    0  501    0  0.00000000000E+00 -0.00000000000E+00 -0.10920725168E+04  0.10920725168E+04  0.00000000000E+00 0.  1.
         23    2    1    2    0    0  0.12474351315E+03  0.28627835743E+03 -0.10075641640E+04  0.10587142496E+04  0.90410595019E+02 0.  0.
         13    1    3    3    0    0  0.24166933600E+02  0.33939354975E+02 -0.60472426247E+02  0.73435923307E+02  0.00000000000E+00 0. -1.
        -13    1    3    3    0    0  0.10057657955E+03  0.25233900246E+03 -0.94709173772E+03  0.98527832624E+03  0.00000000000E+00 0.  1.
         22    1    1    2    0    0 -0.12474351315E+03 -0.28627835743E+03  0.35473869465E+03  0.47260531471E+03  0.00000000000E+00 0. -1.
<mgrwt>
<rscale>  0 0.13851926E+04</rscale>
<asrwt>0</asrwt>
<pdfrwt beam="1">  1        2 0.16801115E+00 0.13851926E+04</pdfrwt>
<pdfrwt beam="2">  1       -2 0.67576470E-01 0.13851926E+04</pdfrwt>
<totfact> 0.43098011E+01</totfact>
</mgrwt>
</event>
<event>
 6    1  0.5040916E-004  0.3105273E+04  0.7818608E-02  0.8214292E-01
          2   -1    0    0  501    0  0.00000000000E+00  0.00000000000E+00  0.19142022706E+04  0.19142022706E+04  0.00000000000E+00 0.  1.
         -2   -1    0    0    0  501 -0.00000000000E+00 -0.00000000000E+00 -0.12593651321E+04  0.12593651321E+04  0.00000000000E+00 0. -1.
         23    2    1    2    0    0  0.39134035001E+03  0.14022466800E+04 -0.22009307941E+03  0.14750545510E+04  0.88892877499E+02 0.  0.
         11    1    3    3    0    0  0.14592375160E+03  0.60195767992E+03 -0.13254578858E+03  0.63341548432E+03  0.00000000000E+00 0.  1.
        -11    1    3    3    0    0  0.24541659840E+03  0.80028900010E+03 -0.87547290828E+02  0.84163906670E+03  0.00000000000E+00 0. -1.
         22    1    1    2    0    0 -0.39134035001E+03 -0.14022466800E+04  0.87493021789E+03  0.16985128517E+04  0.00000000000E+00 0. -1.
<mgrwt>
<rscale>  0 0.31052727E+04</rscale>
<asrwt>0</asrwt>
<pdfrwt beam="1">  1        2 0.29449266E+00 0.31052727E+04</pdfrwt>
<pdfrwt beam="2">  1       -2 0.19374848E+00 0.31052727E+04</pdfrwt>
<totfact> 0.92590605E-01</totfact>
</mgrwt>
</event>
<event>
 6    1  0.5040916E-004  0.2941718E+04  0.7818608E-02  0.8260572E-01
          2   -1    0    0  501    0  0.00000000000E+00  0.00000000000E+00  0.15387990716E+04  0.15387990716E+04  0.00000000000E+00 0.  1.
         -2   -1    0    0    0  501 -0.00000000000E+00 -0.00000000000E+00 -0.14059185623E+04  0.14059185623E+04  0.00000000000E+00 0. -1.
         23    2    1    2    0    0  0.25882143809E+03 -0.14460055796E+04  0.23204348439E+02  0.14716427773E+04  0.85283932576E+02 0.  0.
         13    1    3    3    0    0  0.12323074203E+03 -0.50241052333E+03 -0.15994965051E+02  0.51754998661E+03  0.00000000000E+00 0. -1.
        -13    1    3    3    0    0  0.13559069606E+03 -0.94359505622E+03  0.39199313490E+02  0.95409279065E+03  0.00000000000E+00 0.  1.
         22    1    1    2    0    0 -0.25882143809E+03  0.14460055796E+04  0.10967616084E+03  0.14730748566E+04  0.00000000000E+00 0. -1.
<mgrwt>
<rscale>  0 0.29417180E+04</rscale>
<asrwt>0</asrwt>
<pdfrwt beam="1">  1        2 0.23673832E+00 0.29417180E+04</pdfrwt>
<pdfrwt beam="2">  1       -2 0.21629516E+00 0.29417180E+04</pdfrwt>
<totfact> 0.10833557E+00</totfact>
</mgrwt>
</event>
<event>
 6    1  0.5040916E-004  0.6675078E+03  0.7818608E-02  0.9774471E-01
         -2   -1    0    0    0  501 -0.00000000000E+00  0.00000000000E+00  0.42591076496E+03  0.42591076496E+03  0.00000000000E+00 0. -1.
          2   -1    0    0  501    0  0.00000000000E+00 -0.00000000000E+00 -0.26153755615E+03  0.26153755615E+03  0.00000000000E+00 0.  1.
         23    2    1    2    0    0 -0.22341786237E+03 -0.69150680740E+02 -0.15766437948E+03  0.28944635360E+03  0.64990593065E+02 0.  0.
         11    1    3    3    0    0 -0.91127705425E+02 -0.61280442195E+02 -0.63234973001E+02  0.12672100498E+03  0.00000000000E+00 0. -1.
        -11    1    3    3    0    0 -0.13229015694E+03 -0.78702385447E+01 -0.94429406477E+02  0.16272534863E+03  0.00000000000E+00 0.  1.
         22    1    1    2    0    0  0.22341786237E+03  0.69150680740E+02  0.32203758828E+03  0.39800196751E+03  0.00000000000E+00 0. -1.
<mgrwt>
<rscale>  0 0.66750778E+03</rscale>
<asrwt>0</asrwt>
<pdfrwt beam="1">  1        2 0.40236547E-01 0.66750778E+03</pdfrwt>
<pdfrwt beam="2">  1       -2 0.65524733E-01 0.66750778E+03</pdfrwt>
<totfact> 0.27732072E+02</totfact>
</mgrwt>
</event>
<event>
 6    1  0.5040916E-004  0.4519158E+04  0.7818608E-02  0.7907291E-01
         -2   -1    0    0    0  501 -0.00000000000E+00  0.00000000000E+00  0.20383501248E+04  0.20383501248E+04  0.00000000000E+00 0. -1.
          2   -1    0    0  501    0  0.00000000000E+00 -0.00000000000E+00 -0.25048183487E+04  0.25048183487E+04  0.00000000000E+00 0.  1.
         23    2    1    2    0    0 -0.18955435868E+04 -0.70896102259E+03  0.77491830733E+03  0.21689840365E+04  0.91006300208E+02 0.  0.
         13    1    3    3    0    0 -0.91741684321E+03 -0.39167908245E+03  0.38311416314E+03  0.10685703673E+04  0.00000000000E+00 0. -1.
        -13    1    3    3    0    0 -0.97812674357E+03 -0.31728194014E+03  0.39180414419E+03  0.11004136692E+04  0.00000000000E+00 0.  1.
         22    1    1    2    0    0  0.18955435868E+04  0.70896102259E+03 -0.12413865312E+04  0.23741844370E+04  0.00000000000E+00 0.  1.
<mgrwt>
<rscale>  0 0.45191578E+04</rscale>
<asrwt>0</asrwt>
<pdfrwt beam="1">  1        2 0.38535667E+00 0.45191578E+04</pdfrwt>
<pdfrwt beam="2">  1       -2 0.31359233E+00 0.45191578E+04</pdfrwt>
<totfact> 0.68624421E-02</totfact>
</mgrwt>
</event>
<event>
 6    1  0.5040916E-004  0.2120596E+04  0.7818608E-02  0.8552225E-01
          2   -1    0    0  501    0  0.00000000000E+00  0.00000000000E+00  0.34362413164E+04  0.34362413164E+04  0.00000000000E+00 0.  1.
         -2   -1    0    0    0  501 -0.00000000000E+00 -0.00000000000E+00 -0.32716892020E+03  0.32716892020E+03  0.00000000000E+00 0. -1.
         23    2    1    2    0    0 -0.91373019788E+03  0.51386185024E+03  0.18212262267E+04  0.21028366514E+04  0.78103379643E+02 0.  0.
         13    1    3    3    0    0 -0.17783943880E+03  0.69751337231E+02  0.36089293354E+03  0.40833298240E+03  0.00000000000E+00 0. -1.
        -13    1    3    3    0    0 -0.73589075909E+03  0.44411051301E+03  0.14603332932E+04  0.16945036690E+04  0.00000000000E+00 0.  1.
         22    1    1    2    0    0  0.91373019788E+03 -0.51386185024E+03  0.12878461695E+04  0.16605735852E+04  0.00000000000E+00 0. -1.
<mgrwt>
<rscale>  0 0.21205955E+04</rscale>
<asrwt>0</asrwt>
<pdfrwt beam="1">  1        2 0.52865248E+00 0.21205955E+04</pdfrwt>
<pdfrwt beam="2">  1       -2 0.50333683E-01 0.21205955E+04</pdfrwt>
<totfact> 0.31042364E+00</totfact>
</mgrwt>
</event>
<event>
 6    1  0.5040916E-004  0.2196669E+04  0.7818608E-02  0.8519816E-01
         -2   -1    0    0    0  501 -0.00000000000E+00  0.00000000000E+00  0.36939368704E+03  0.36939368704E+03  0.00000000000E+00 0. -1.
          2   -1    0    0  501    0  0.00000000000E+00 -0.00000000000E+00 -0.32657274267E+04  0.32657274267E+04  0.00000000000E+00 0.  1.
         23    2    1    2    0    0 -0.60815893627E+03 -0.75397263357E+03 -0.60077668315E+03  0.11435524866E+04  0.91911058798E+02 0.  0.
         13    1    3    3    0    0 -0.28830396605E+03 -0.41881814170E+03 -0.34362122603E+03  0.61368017699E+03  0.00000000000E+00 0. -1.
        -13    1    3    3    0    0 -0.31985497022E+03 -0.33515449187E+03 -0.25715545713E+03  0.52987230964E+03  0.00000000000E+00 0.  1.
         22    1    1    2    0    0  0.60815893627E+03  0.75397263357E+03 -0.22955570565E+04  0.24915686271E+04  0.00000000000E+00 0.  1.
<mgrwt>
<rscale>  0 0.21966694E+04</rscale>
<asrwt>0</asrwt>
<pdfrwt beam="1">  1        2 0.50241961E+00 0.21966694E+04</pdfrwt>
<pdfrwt beam="2">  1       -2 0.56829797E-01 0.21966694E+04</pdfrwt>
<totfact> 0.31235509E+00</totfact>
</mgrwt>
</event>
<event>
 6    1  0.5040916E-004  0.1463195E+04  0.7818608E-02  0.8909303E-01
          2   -1    0    0  501    0  0.00000000000E+00  0.00000000000E+00  0.52278596585E+03  0.52278596585E+03  0.00000000000E+00 0.  1.
         -2   -1    0    0    0  501 -0.00000000000E+00 -0.00000000000E+00 -0.10238133249E+04  0.10238133249E+04  0.00000000000E+00 0. -1.
         23    2    1    2    0    0  0.39580813504E+03 -0.22059796200E+03 -0.85460812792E+03  0.97184116703E+03  0.93769190162E+02 0.  0.
         13    1    3    3    0    0  0.24329256935E+03 -0.84211791084E+02 -0.50208593641E+03  0.56424568018E+03  0.00000000000E+00 0. -1.
        -13    1    3    3    0    0  0.15251556569E+03 -0.13638617091E+03 -0.35252219151E+03  0.40759548685E+03  0.00000000000E+00 0.  1.
         22    1    1    2    0    0 -0.39580813504E+03  0.22059796200E+03  0.35358076891E+03  0.57475812368E+03  0.00000000000E+00 0.  1.
<mgrwt>
<rscale>  0 0.14631955E+04</rscale>
<asrwt>0</asrwt>
<pdfrwt beam="1">  1        2 0.80428611E-01 0.14631955E+04</pdfrwt>
<pdfrwt beam="2">  1       -2 0.15750974E+00 0.14631955E+04</pdfrwt>
<totfact> 0.14871969E+01</totfact>
</mgrwt>
</event>
<event>
 6    1  0.5040916E-004  0.1521137E+04  0.7818608E-02  0.8870517E-01
          2   -1    0    0  501    0  0.00000000000E+00  0.00000000000E+00  0.13084811410E+04  0.13084811410E+04  0.00000000000E+00 0.  1.
         -2   -1    0    0    0  501 -0.00000000000E+00 -0.00000000000E+00 -0.44208852226E+03  0.44208852226E+03  0.00000000000E+00 0. -1.
         23    2    1    2    0    0 -0.43172250945E+01  0.46472351136E+03 -0.25400438236E+03  0.53760799011E+03  0.92290543013E+02 0.  0.
         13    1    3    3    0    0 -0.13622190144E+02  0.24445070059E+03 -0.18409184171E+03  0.30631930280E+03  0.00000000000E+00 0. -1.
        -13    1    3    3    0    0  0.93049650494E+01  0.22027281077E+03 -0.69912540656E+02  0.23128868731E+03  0.00000000000E+00 0.  1.
         22    1    1    2    0    0  0.43172250945E+01 -0.46472351136E+03  0.11203970011E+04  0.12129616732E+04  0.00000000000E+00 0.  1.
<mgrwt>
<rscale>  0 0.15211371E+04</rscale>
<asrwt>0</asrwt>
<pdfrwt beam="1">  1        2 0.20130479E+00 0.15211371E+04</pdfrwt>
<pdfrwt beam="2">  1       -2 0.68013620E-01 0.15211371E+04</pdfrwt>
<totfact> 0.31207089E+01</totfact>
</mgrwt>
</event>
<event>
 6    1  0.5040916E-004  0.3965645E+04  0.7818608E-02  0.8011513E-01
          2   -1    0    0  501    0  0.00000000000E+00  0.00000000000E+00  0.13559740886E+04  0.13559740886E+04  0.00000000000E+00 0.  1.
         -2   -1    0    0    0  501 -0.00000000000E+00 -0.00000000000E+00 -0.28994544516E+04  0.28994544516E+04  0.00000000000E+00 0. -1.
         23    2    1    2    0    0 -0.49807103822E+02 -0.11596086071E+04 -0.24960962297E+04  0.27538793873E+04  0.78628383418E+02 0.  0.
         13    1    3    3    0    0 -0.32679836243E+02 -0.15405705152E+03 -0.32278524592E+03  0.35915437043E+03  0.00000000000E+00 0.  1.
        -13    1    3    3    0    0 -0.17127267579E+02 -0.10055515556E+04 -0.21733109837E+04  0.23947250168E+04  0.00000000000E+00 0. -1.
         22    1    1    2    0    0  0.49807103822E+02  0.11596086071E+04  0.95261586668E+03  0.15015491530E+04  0.00000000000E+00 0.  1.
<mgrwt>
<rscale>  0 0.39656450E+04</rscale>
<asrwt>0</asrwt>
<pdfrwt beam="1">  1        2 0.20861140E+00 0.39656450E+04</pdfrwt>
<pdfrwt beam="2">  1       -2 0.44606991E+00 0.39656450E+04</pdfrwt>
<totfact> 0.44708042E-02</totfact>
</mgrwt>
</event>
<event>
 6    1  0.5040916E-004  0.1386677E+04  0.7818608E-02  0.8963519E-01
         -2   -1    0    0    0  501 -0.00000000000E+00  0.00000000000E+00  0.19428723844E+03  0.19428723844E+03  0.00000000000E+00 0. -1.
          2   -1    0    0  501    0  0.00000000000E+00 -0.00000000000E+00 -0.24742664362E+04  0.24742664362E+04  0.00000000000E+00 0.  1.
         23    2    1    2    0    0  0.23284824785E+03 -0.62248978857E+03 -0.15043028277E+04  0.16470911572E+04  0.90941956023E+02 0.  0.
         13    1    3    3    0    0  0.92893231018E+02 -0.29503059754E+03 -0.59621173133E+03  0.67167003390E+03  0.00000000000E+00 0.  1.
        -13    1    3    3    0    0  0.13995501683E+03 -0.32745919103E+03 -0.90809109639E+03  0.97542112335E+03  0.00000000000E+00 0. -1.
         22    1    1    2    0    0 -0.23284824785E+03  0.62248978857E+03 -0.77567636999E+03  0.10214625174E+04  0.00000000000E+00 0. -1.
<mgrwt>
<rscale>  0 0.13866772E+04</rscale>
<asrwt>0</asrwt>
<pdfrwt beam="1">  1        2 0.38065636E+00 0.13866772E+04</pdfrwt>
<pdfrwt beam="2">  1       -2 0.29890345E-01 0.13866772E+04</pdfrwt>
<totfact> 0.36368854E+01</totfact>
</mgrwt>
</event>
<event>
 6    1  0.5040916E-004  0.2647515E+04  0.7818608E-02  0.8352238E-01
          2   -1    0    0  501    0  0.00000000000E+00  0.00000000000E+00  0.78101139862E+03  0.78101139862E+03  0.00000000000E+00 0.  1.
         -2   -1    0    0    0  501 -0.00000000000E+00 -0.00000000000E+00 -0.22436734888E+04  0.22436734888E+04  0.00000000000E+00 0. -1.
         23    2    1    2    0    0 -0.47480947526E+03 -0.72825769868E+03  0.40588776932E+03  0.96379141835E+03  0.91354820959E+02 0.  0.
         11    1    3    3    0    0 -0.16505047997E+03 -0.21097944179E+03  0.86499181628E+02  0.28148906590E+03  0.00000000000E+00 0.  1.
        -11    1    3    3    0    0 -0.30975899530E+03 -0.51727825689E+03  0.31938858769E+03  0.68230235245E+03  0.00000000000E+00 0. -1.
         22    1    1    2    0    0  0.47480947526E+03  0.72825769868E+03 -0.18685498595E+04  0.20608934691E+04  0.00000000000E+00 0. -1.
<mgrwt>
<rscale>  0 0.26475155E+04</rscale>
<asrwt>0</asrwt>
<pdfrwt beam="1">  1        2 0.12015560E+00 0.26475155E+04</pdfrwt>
<pdfrwt beam="2">  1       -2 0.34518053E+00 0.26475155E+04</pdfrwt>
<totfact> 0.52286560E-01</totfact>
</mgrwt>
</event>
<event>
 6    1  0.5040916E-004  0.2060159E+04  0.7818608E-02  0.8579000E-01
          2   -1    0    0  501    0  0.00000000000E+00  0.00000000000E+00  0.90194677513E+03  0.90194677513E+03  0.00000000000E+00 0.  1.
         -2   -1    0    0    0  501 -0.00000000000E+00 -0.00000000000E+00 -0.11764146428E+04  0.11764146428E+04  0.00000000000E+00 0. -1.
         23    2    1    2    0    0 -0.31576876078E+03  0.96661164400E+03 -0.28980603862E+03  0.10613642498E+04  0.91970376044E+02 0.  0.
         13    1    3    3    0    0 -0.23240417218E+03  0.74977529387E+03 -0.26127970611E+03  0.82730996329E+03  0.00000000000E+00 0.  1.
        -13    1    3    3    0    0 -0.83364588604E+02  0.21683635014E+03 -0.28526332507E+02  0.23405428648E+03  0.00000000000E+00 0. -1.
         22    1    1    2    0    0  0.31576876078E+03 -0.96661164400E+03  0.15338170925E+02  0.10169971682E+04  0.00000000000E+00 0.  1.
<mgrwt>
<rscale>  0 0.20601586E+04</rscale>
<asrwt>0</asrwt>
<pdfrwt beam="1">  1        2 0.13876104E+00 0.20601586E+04</pdfrwt>
<pdfrwt beam="2">  1       -2 0.18098687E+00 0.20601586E+04</pdfrwt>
<totfact> 0.48227217E+00</totfact>
</mgrwt>
</event>
<event>
 6    1  0.5040916E-004  0.5104137E+04  0.7818608E-02  0.7812641E-01
         -2   -1    0    0    0  501 -0.00000000000E+00  0.00000000000E+00  0.15890467611E+04  0.15890467611E+04  0.00000000000E+00 0. -1.
          2   -1    0    0  501    0  0.00000000000E+00 -0.00000000000E+00 -0.40987174241E+04  0.40987174241E+04  0.00000000000E+00 0.  1.
         23    2    1    2    0    0  0.22634873755E+04 -0.71782957830E+03 -0.22949998371E+04  0.33034953316E+04  0.86039242759E+02 0.  0.
         11    1    3    3    0    0  0.12032702544E+04 -0.39268535016E+03 -0.12810040635E+04  0.18008421641E+04  0.00000000000E+00 0.  1.
        -11    1    3    3    0    0  0.10602171212E+04 -0.32514422814E+03 -0.10139957736E+04  0.15026531676E+04  0.00000000000E+00 0. -1.
         22    1    1    2    0    0 -0.22634873755E+04  0.71782957830E+03 -0.21467082590E+03  0.23842688536E+04  0.00000000000E+00 0. -1.
<mgrwt>
<rscale>  0 0.51041370E+04</rscale>
<asrwt>0</asrwt>
<pdfrwt beam="1">  1        2 0.63057191E+00 0.51041370E+04</pdfrwt>
<pdfrwt beam="2">  1       -2 0.24446873E+00 0.51041370E+04</pdfrwt>
<totfact> 0.14159975E-02</totfact>
</mgrwt>
</event>
<event>
 6    1  0.5040916E-004  0.3141753E+04  0.7818608E-02  0.8204372E-01
          2   -1    0    0  501    0  0.00000000000E+00  0.00000000000E+00  0.11516482785E+04  0.11516482785E+04  0.00000000000E+00 0. -1.
         -2   -1    0    0    0  501 -0.00000000000E+00 -0.00000000000E+00 -0.21427141793E+04  0.21427141793E+04  0.00000000000E+00 0.  1.
         23    2    1    2    0    0  0.84459253466E+03  0.11130525116E+04 -0.12457004698E+04  0.18741296575E+04  0.91486989937E+02 0.  0.
         11    1    3    3    0    0  0.58882317410E+03  0.73369422253E+03 -0.88366599578E+03  0.12906918821E+04  0.00000000000E+00 0. -1.
        -11    1    3    3    0    0  0.25576936056E+03  0.37935828911E+03 -0.36203447406E+03  0.58343777537E+03  0.00000000000E+00 0.  1.
         22    1    1    2    0    0 -0.84459253466E+03 -0.11130525116E+04  0.25463456896E+03  0.14202328003E+04  0.00000000000E+00 0. -1.
<mgrwt>
<rscale>  0 0.31417531E+04</rscale>
<asrwt>0</asrwt>
<pdfrwt beam="1">  1        2 0.17717666E+00 0.31417531E+04</pdfrwt>
<pdfrwt beam="2">  1       -2 0.32964833E+00 0.31417531E+04</pdfrwt>
<totfact> 0.35748299E-01</totfact>
</mgrwt>
</event>
<event>
 6    1  0.5040916E-004  0.4509536E+04  0.7818608E-02  0.7908969E-01
         -2   -1    0    0    0  501 -0.00000000000E+00  0.00000000000E+00  0.19920655686E+04  0.19920655686E+04  0.00000000000E+00 0. -1.
          2   -1    0    0  501    0  0.00000000000E+00 -0.00000000000E+00 -0.25521140130E+04  0.25521140130E+04  0.00000000000E+00 0.  1.
         23    2    1    2    0    0 -0.17859401752E+04  0.12067865703E+04  0.38083569862E+03  0.21923336882E+04  0.12399611104E+03 0.  0.
         13    1    3    3    0    0 -0.55208456495E+03  0.33680134958E+03  0.65410560557E+02  0.65000850561E+03  0.00000000000E+00 0.  1.
        -13    1    3    3    0    0 -0.12338556103E+04  0.86998522071E+03  0.31542513806E+03  0.15423251826E+04  0.00000000000E+00 0. -1.
         22    1    1    2    0    0  0.17859401752E+04 -0.12067865703E+04 -0.94088414292E+03  0.23518458934E+04  0.00000000000E+00 0.  1.
<mgrwt>
<rscale>  0 0.45095359E+04</rscale>
<asrwt>0</asrwt>
<pdfrwt beam="1">  1        2 0.39263293E+00 0.45095359E+04</pdfrwt>
<pdfrwt beam="2">  1       -2 0.30647163E+00 0.45095359E+04</pdfrwt>
<totfact> 0.71295971E-02</totfact>
</mgrwt>
</event>
<event>
 6    1  0.5040916E-004  0.1703974E+04  0.7818608E-02  0.8759101E-01
          2   -1    0    0  501    0  0.00000000000E+00  0.00000000000E+00  0.28124040065E+04  0.28124040065E+04  0.00000000000E+00 0.  1.
         -2   -1    0    0    0  501 -0.00000000000E+00 -0.00000000000E+00 -0.25810007505E+03  0.25810007505E+03  0.00000000000E+00 0. -1.
         23    2    1    2    0    0  0.78154892369E+03 -0.32015364339E+03  0.11160345018E+04  0.14025904064E+04  0.91704762022E+02 0.  0.
         13    1    3    3    0    0  0.57426756311E+03 -0.27550980705E+03  0.81461373742E+03  0.10340621011E+04  0.00000000000E+00 0.  1.
        -13    1    3    3    0    0  0.20728136058E+03 -0.44643836335E+02  0.30142076434E+03  0.36852830522E+03  0.00000000000E+00 0. -1.
         22    1    1    2    0    0 -0.78154892369E+03  0.32015364339E+03  0.14382694297E+04  0.16679136752E+04  0.00000000000E+00 0.  1.
<mgrwt>
<rscale>  0 0.17039738E+04</rscale>
<asrwt>0</asrwt>
<pdfrwt beam="1">  1        2 0.43267752E+00 0.17039738E+04</pdfrwt>
<pdfrwt beam="2">  1       -2 0.39707706E-01 0.17039738E+04</pdfrwt>
<totfact> 0.13015535E+01</totfact>
</mgrwt>
</event>
<event>
 6    1  0.5273693E-004  0.3435329E+04  0.7818608E-02  0.8129289E-01
         -2   -1    0    0    0  501 -0.00000000000E+00  0.00000000000E+00  0.19999919915E+04  0.19999919915E+04  0.00000000000E+00 0. -1.
          2   -1    0    0  501    0  0.00000000000E+00 -0.00000000000E+00 -0.14751914995E+04  0.14751914995E+04  0.00000000000E+00 0.  1.
         23    2    1    2    0    0  0.68069593577E+03 -0.14518347949E+04 -0.35903356799E+03  0.16442455143E+04  0.58881065480E+02 0.  0.
         13    1    3    3    0    0  0.31805633871E+03 -0.61315425613E+03 -0.16393405413E+03  0.70992418645E+03  0.00000000000E+00 0. -1.
        -13    1    3    3    0    0  0.36263959706E+03 -0.83868053874E+03 -0.19509951386E+03  0.93432132787E+03  0.00000000000E+00 0.  1.
         22    1    1    2    0    0 -0.68069593577E+03  0.14518347949E+04  0.88383405999E+03  0.18309379766E+04  0.00000000000E+00 0. -1.
<mgrwt>
<rscale>  0 0.34353289E+04</rscale>
<asrwt>0</asrwt>
<pdfrwt beam="1">  1        2 0.22695254E+00 0.34353289E+04</pdfrwt>
<pdfrwt beam="2">  1       -2 0.30769107E+00 0.34353289E+04</pdfrwt>
<totfact> 0.30875177E-01</totfact>
</mgrwt>
</event>
<event>
 6    1  0.5040916E-004  0.2702392E+04  0.7818608E-02  0.8334229E-01
         -2   -1    0    0    0  501 -0.00000000000E+00  0.00000000000E+00  0.43473917698E+03  0.43473917698E+03  0.00000000000E+00 0. -1.
          2   -1    0    0  501    0  0.00000000000E+00 -0.00000000000E+00 -0.41995996082E+04  0.41995996082E+04  0.00000000000E+00 0.  1.
         23    2    1    2    0    0 -0.12570470384E+04 -0.68952817055E+02 -0.10513403480E+04  0.16429991205E+04  0.95957463757E+02 0.  0.
         11    1    3    3    0    0 -0.53867439877E+03  0.13277517283E+02 -0.47581248510E+03  0.71884902541E+03  0.00000000000E+00 0. -1.
        -11    1    3    3    0    0 -0.71837263962E+03 -0.82230334338E+02 -0.57552786294E+03  0.92415009509E+03  0.00000000000E+00 0.  1.
         22    1    1    2    0    0  0.12570470384E+04  0.68952817055E+02 -0.27135200831E+04  0.29913396647E+04  0.00000000000E+00 0.  1.
<mgrwt>
<rscale>  0 0.27023919E+04</rscale>
<asrwt>0</asrwt>
<pdfrwt beam="1">  1        2 0.64609222E+00 0.27023919E+04</pdfrwt>
<pdfrwt beam="2">  1       -2 0.66882953E-01 0.27023919E+04</pdfrwt>
<totfact> 0.41981108E-01</totfact>
</mgrwt>
</event>
<event>
 6    1  0.5040916E-004  0.1238930E+04  0.7818608E-02  0.9079447E-01
         -2   -1    0    0    0  501 -0.00000000000E+00  0.00000000000E+00  0.14457418925E+03  0.14457418925E+03  0.00000000000E+00 0. -1.
          2   -1    0    0  501    0  0.00000000000E+00 -0.00000000000E+00 -0.26542558189E+04  0.26542558189E+04  0.00000000000E+00 0.  1.
         23    2    1    2    0    0  0.29533344103E+03  0.22092137402E+03 -0.23765813028E+04  0.24067282460E+04  0.90410542916E+02 0.  0.
         11    1    3    3    0    0  0.17134511591E+03  0.17369940529E+03 -0.16798920671E+04  0.16975181852E+04  0.00000000000E+00 0. -1.
        -11    1    3    3    0    0  0.12398832512E+03  0.47221968722E+02 -0.69668923575E+03  0.70921006077E+03  0.00000000000E+00 0.  1.
         22    1    1    2    0    0 -0.29533344103E+03 -0.22092137402E+03 -0.13310032685E+03  0.39210176217E+03  0.00000000000E+00 0. -1.
<mgrwt>
<rscale>  0 0.12389300E+04</rscale>
<asrwt>0</asrwt>
<pdfrwt beam="1">  1        2 0.40834704E+00 0.12389300E+04</pdfrwt>
<pdfrwt beam="2">  1       -2 0.22242183E-01 0.12389300E+04</pdfrwt>
<totfact> 0.49646840E+01</totfact>
</mgrwt>
</event>
<event>
 6    1  0.5040916E-004  0.4789927E+04  0.7818608E-02  0.7861756E-01
          2   -1    0    0  501    0  0.00000000000E+00  0.00000000000E+00  0.24881301242E+04  0.24881301242E+04  0.00000000000E+00 0.  1.
         -2   -1    0    0    0  501 -0.00000000000E+00 -0.00000000000E+00 -0.23052857259E+04  0.23052857259E+04  0.00000000000E+00 0. -1.
         23    2    1    2    0    0  0.42296362480E+03 -0.14615869111E+04  0.19411317689E+04  0.24681827426E+04  0.93802878539E+02 0.  0.
         11    1    3    3    0    0  0.33094634858E+03 -0.12223844811E+04  0.16573523698E+04  0.20858010890E+04  0.00000000000E+00 0. -1.
        -11    1    3    3    0    0  0.92017276225E+02 -0.23920243001E+03  0.28377939915E+03  0.38238165363E+03  0.00000000000E+00 0.  1.
         22    1    1    2    0    0 -0.42296362480E+03  0.14615869111E+04 -0.17582873706E+04  0.23252331075E+04  0.00000000000E+00 0. -1.
<mgrwt>
<rscale>  0 0.47899273E+04</rscale>
<asrwt>0</asrwt>
<pdfrwt beam="1">  1        2 0.38278925E+00 0.47899273E+04</pdfrwt>
<pdfrwt beam="2">  1       -2 0.35465934E+00 0.47899273E+04</pdfrwt>
<totfact> 0.38065812E-02</totfact>
</mgrwt>
</event>
<event>
 6    1  0.5040916E-004  0.4425241E+04  0.7818608E-02  0.7923857E-01
          2   -1    0    0  501    0  0.00000000000E+00  0.00000000000E+00  0.21769123275E+04  0.21769123275E+04  0.00000000000E+00 0.  1.
         -2   -1    0    0    0  501 -0.00000000000E+00 -0.00000000000E+00 -0.22489140249E+04  0.22489140249E+04  0.00000000000E+00 0. -1.
         23    2    1    2    0    0 -0.13753635440E+04  0.11919575663E+04  0.12214215699E+04  0.21930407679E+04  0.71898817600E+02 0.  0.
         11    1    3    3    0    0 -0.42798636244E+03  0.32907131288E+03  0.37271190970E+03  0.65602928520E+03  0.00000000000E+00 0. -1.
        -11    1    3    3    0    0 -0.94737718158E+03  0.86288625346E+03  0.84870966017E+03  0.15370114827E+04  0.00000000000E+00 0.  1.
         22    1    1    2    0    0  0.13753635440E+04 -0.11919575663E+04 -0.12934232672E+04  0.22327855845E+04  0.00000000000E+00 0. -1.
<mgrwt>
<rscale>  0 0.44252406E+04</rscale>
<asrwt>0</asrwt>
<pdfrwt beam="1">  1        2 0.33490959E+00 0.44252406E+04</pdfrwt>
<pdfrwt beam="2">  1       -2 0.34598677E+00 0.44252406E+04</pdfrwt>
<totfact> 0.66880140E-02</totfact>
</mgrwt>
</event>
<event>
 6    1  0.5040916E-004  0.2438211E+04  0.7818608E-02  0.8425335E-01
         -2   -1    0    0    0  501 -0.00000000000E+00  0.00000000000E+00  0.52051744499E+03  0.52051744499E+03  0.00000000000E+00 0. -1.
          2   -1    0    0  501    0  0.00000000000E+00 -0.00000000000E+00 -0.28552705227E+04  0.28552705227E+04  0.00000000000E+00 0.  1.
         23    2    1    2    0    0  0.38045260178E+03 -0.10226866907E+04 -0.19165474693E+04  0.22072298046E+04  0.89871902713E+02 0.  0.
         11    1    3    3    0    0  0.25261052089E+03 -0.55456976638E+03 -0.10880215424E+04  0.12470567661E+04  0.00000000000E+00 0. -1.
        -11    1    3    3    0    0  0.12784208089E+03 -0.46811692434E+03 -0.82852592688E+03  0.96017303857E+03  0.00000000000E+00 0.  1.
         22    1    1    2    0    0 -0.38045260178E+03  0.10226866907E+04 -0.41820560845E+03  0.11685581631E+04  0.00000000000E+00 0. -1.
<mgrwt>
<rscale>  0 0.24382109E+04</rscale>
<asrwt>0</asrwt>
<pdfrwt beam="1">  1        2 0.43927237E+00 0.24382109E+04</pdfrwt>
<pdfrwt beam="2">  1       -2 0.80079610E-01 0.24382109E+04</pdfrwt>
<totfact> 0.26462736E+00</totfact>
</mgrwt>
</event>
<event>
 6    1  0.5040916E-004  0.2617405E+04  0.7818608E-02  0.8362313E-01
          2   -1    0    0  501    0  0.00000000000E+00  0.00000000000E+00  0.23904714882E+04  0.23904714882E+04  0.00000000000E+00 0.  1.
         -2   -1    0    0    0  501 -0.00000000000E+00 -0.00000000000E+00 -0.71647041578E+03  0.71647041578E+03  0.00000000000E+00 0. -1.
         23    2    1    2    0    0  0.30691878305E+03 -0.77420827557E+03  0.20341606884E+04  0.21995761881E+04  0.82025041852E+02 0.  0.
         13    1    3    3    0    0  0.23568345806E+03 -0.57781106677E+03  0.14270487544E+04  0.15575238260E+04  0.00000000000E+00 0. -1.
        -13    1    3    3    0    0  0.71235324988E+02 -0.19639720880E+03  0.60711193404E+03  0.64205236205E+03  0.00000000000E+00 0.  1.
         22    1    1    2    0    0 -0.30691878305E+03  0.77420827557E+03 -0.36015961603E+03  0.90736571588E+03  0.00000000000E+00 0. -1.
<mgrwt>
<rscale>  0 0.26174049E+04</rscale>
<asrwt>0</asrwt>
<pdfrwt beam="1">  1        2 0.36776484E+00 0.26174049E+04</pdfrwt>
<pdfrwt beam="2">  1       -2 0.11022622E+00 0.26174049E+04</pdfrwt>
<totfact> 0.23242764E+00</totfact>
</mgrwt>
</event>
<event>
 6    1  0.5040916E-004  0.1790027E+04  0.7818608E-02  0.8711621E-01
         -2   -1    0    0    0  501 -0.00000000000E+00  0.00000000000E+00  0.16199577325E+04  0.16199577325E+04  0.00000000000E+00 0. -1.
          2   -1    0    0  501    0  0.00000000000E+00 -0.00000000000E+00 -0.49448752733E+03  0.49448752733E+03  0.00000000000E+00 0.  1.
         23    2    1    2    0    0 -0.69562924627E+02  0.21823245868E+03  0.15835331994E+04  0.16023064963E+04  0.85698938552E+02 0.  0.
         11    1    3    3    0    0 -0.68388467932E+02  0.12647638644E+03  0.74341304075E+03  0.75718967771E+03  0.00000000000E+00 0. -1.
        -11    1    3    3    0    0 -0.11744566947E+01  0.91756072237E+02  0.84012015862E+03  0.84511681859E+03  0.00000000000E+00 0.  1.
         22    1    1    2    0    0  0.69562924627E+02 -0.21823245868E+03 -0.45806299418E+03  0.51213876356E+03  0.00000000000E+00 0.  1.
<mgrwt>
<rscale>  0 0.17900267E+04</rscale>
<asrwt>0</asrwt>
<pdfrwt beam="1">  1        2 0.76075005E-01 0.17900267E+04</pdfrwt>
<pdfrwt beam="2">  1       -2 0.24922427E+00 0.17900267E+04</pdfrwt>
<totfact> 0.38289827E+00</totfact>
</mgrwt>
</event>
<event>
 6    1  0.5040916E-004  0.4522028E+04  0.7818608E-02  0.7906792E-01
          2   -1    0    0  501    0  0.00000000000E+00  0.00000000000E+00  0.16279946303E+04  0.16279946303E+04  0.00000000000E+00 0.  1.
         -2   -1    0    0    0  501 -0.00000000000E+00 -0.00000000000E+00 -0.31401731787E+04  0.31401731787E+04  0.00000000000E+00 0. -1.
         23    2    1    2    0    0  0.92305782817E+03  0.20489659851E+04 -0.50336181858E+03  0.23048349942E+04  0.92703115970E+02 0.  0.
         11    1    3    3    0    0  0.83356770179E+03  0.17839260884E+04 -0.42651317771E+03  0.20147309729E+04  0.00000000000E+00 0. -1.
        -11    1    3    3    0    0  0.89490126374E+02  0.26503989673E+03 -0.76848640869E+02  0.29010402131E+03  0.00000000000E+00 0.  1.
         22    1    1    2    0    0 -0.92305782817E+03 -0.20489659851E+04 -0.10088167298E+04  0.24633328149E+04  0.00000000000E+00 0.  1.
<mgrwt>
<rscale>  0 0.45220283E+04</rscale>
<asrwt>0</asrwt>
<pdfrwt beam="1">  1        2 0.25046072E+00 0.45220283E+04</pdfrwt>
<pdfrwt beam="2">  1       -2 0.48310356E+00 0.45220283E+04</pdfrwt>
<totfact> 0.17212757E-02</totfact>
</mgrwt>
</event>
<event>
 6    1  0.5040916E-004  0.2046883E+04  0.7818608E-02  0.8585010E-01
          2   -1    0    0  501    0  0.00000000000E+00  0.00000000000E+00  0.22208757640E+04  0.22208757640E+04  0.00000000000E+00 0.  1.
         -2   -1    0    0    0  501 -0.00000000000E+00 -0.00000000000E+00 -0.47163048146E+03  0.47163048146E+03  0.00000000000E+00 0. -1.
         23    2    1    2    0    0 -0.31425674237E+02 -0.66804262587E+03 -0.13919687179E+03  0.68913850757E+03  0.90926291675E+02 0.  0.
         11    1    3    3    0    0  0.87785026646E+00 -0.45257343424E+03 -0.56467067271E+02  0.45608334072E+03  0.00000000000E+00 0.  1.
        -11    1    3    3    0    0 -0.32303524504E+02 -0.21546919164E+03 -0.82729804519E+02  0.23305516685E+03  0.00000000000E+00 0. -1.
         22    1    1    2    0    0  0.31425674237E+02  0.66804262587E+03  0.18884421543E+04  0.20033677378E+04  0.00000000000E+00 0.  1.
<mgrwt>
<rscale>  0 0.20468832E+04</rscale>
<asrwt>0</asrwt>
<pdfrwt beam="1">  1        2 0.34167319E+00 0.20468832E+04</pdfrwt>
<pdfrwt beam="2">  1       -2 0.72558537E-01 0.20468832E+04</pdfrwt>
<totfact> 0.79917764E+00</totfact>
</mgrwt>
</event>
<event>
 6    1  0.5040916E-004  0.1436836E+04  0.7818608E-02  0.8927578E-01
         -2   -1    0    0    0  501 -0.00000000000E+00  0.00000000000E+00  0.43355966672E+03  0.43355966672E+03  0.00000000000E+00 0. -1.
          2   -1    0    0  501    0  0.00000000000E+00 -0.00000000000E+00 -0.11904352233E+04  0.11904352233E+04  0.00000000000E+00 0.  1.
         23    2    1    2    0    0  0.23425134146E+03 -0.44427753219E+03  0.19299149527E+03  0.54951658276E+03  0.11165366496E+03 0.  0.
         11    1    3    3    0    0  0.29423137745E+02 -0.15053945176E+03  0.85611842879E+02  0.17566227601E+03  0.00000000000E+00 0. -1.
        -11    1    3    3    0    0  0.20482820371E+03 -0.29373808043E+03  0.10737965239E+03  0.37385430675E+03  0.00000000000E+00 0.  1.
         22    1    1    2    0    0 -0.23425134146E+03  0.44427753219E+03 -0.94986705186E+03  0.10744783073E+04  0.00000000000E+00 0.  1.
<mgrwt>
<rscale>  0 0.14368364E+04</rscale>
<asrwt>0</asrwt>
<pdfrwt beam="1">  1        2 0.18314388E+00 0.14368364E+04</pdfrwt>
<pdfrwt beam="2">  1       -2 0.66701487E-01 0.14368364E+04</pdfrwt>
<totfact> 0.38469352E+01</totfact>
</mgrwt>
</event>
<event>
 6    1  0.5040916E-004  0.1383067E+04  0.7818608E-02  0.8966167E-01
          2   -1    0    0  501    0  0.00000000000E+00  0.00000000000E+00  0.24272728840E+04  0.24272728840E+04  0.00000000000E+00 0.  1.
         -2   -1    0    0    0  501 -0.00000000000E+00 -0.00000000000E+00 -0.19701898986E+03  0.19701898986E+03  0.00000000000E+00 0. -1.
         23    2    1    2    0    0  0.65971490309E+03 -0.19076026370E+03  0.12195748775E+04  0.14023731751E+04  0.87603704497E+02 0.  0.
         11    1    3    3    0    0  0.41198448651E+03 -0.74879662259E+02  0.74802890249E+03  0.85725458290E+03  0.00000000000E+00 0. -1.
        -11    1    3    3    0    0  0.24773041659E+03 -0.11588060144E+03  0.47154597497E+03  0.54511859223E+03  0.00000000000E+00 0.  1.
         22    1    1    2    0    0 -0.65971490309E+03  0.19076026370E+03  0.10106790167E+04  0.12219186988E+04  0.00000000000E+00 0. -1.
<mgrwt>
<rscale>  0 0.13830674E+04</rscale>
<asrwt>0</asrwt>
<pdfrwt beam="1">  1        2 0.37342658E+00 0.13830674E+04</pdfrwt>
<pdfrwt beam="2">  1       -2 0.30310616E-01 0.13830674E+04</pdfrwt>
<totfact> 0.37709810E+01</totfact>
</mgrwt>
</event>
<event>
 6    1  0.5040916E-004  0.4539372E+04  0.7818608E-02  0.7903780E-01
         -2   -1    0    0    0  501 -0.00000000000E+00  0.00000000000E+00  0.14195709511E+04  0.14195709511E+04  0.00000000000E+00 0. -1.
          2   -1    0    0  501    0  0.00000000000E+00 -0.00000000000E+00 -0.36288947876E+04  0.36288947876E+04  0.00000000000E+00 0.  1.
         23    2    1    2    0    0  0.62125996784E+03 -0.14707518023E+04 -0.28979386146E+04  0.33097118389E+04  0.84079908167E+02 0.  0.
         11    1    3    3    0    0  0.26026258994E+03 -0.55615321709E+03 -0.11841888667E+04  0.13339213952E+04  0.00000000000E+00 0. -1.
        -11    1    3    3    0    0  0.36099737790E+03 -0.91459858523E+03 -0.17137497479E+04  0.19757904437E+04  0.00000000000E+00 0.  1.
         22    1    1    2    0    0 -0.62125996784E+03  0.14707518023E+04  0.68861477802E+03  0.17387538998E+04  0.00000000000E+00 0. -1.
<mgrwt>
<rscale>  0 0.45393716E+04</rscale>
<asrwt>0</asrwt>
<pdfrwt beam="1">  1        2 0.55829150E+00 0.45393716E+04</pdfrwt>
<pdfrwt beam="2">  1       -2 0.21839553E+00 0.45393716E+04</pdfrwt>
<totfact> 0.50165583E-02</totfact>
</mgrwt>
</event>
<event>
 6    1  0.5040916E-004  0.1011588E+04  0.7818608E-02  0.9295926E-01
          2   -1    0    0  501    0  0.00000000000E+00  0.00000000000E+00  0.11713334797E+04  0.11713334797E+04  0.00000000000E+00 0.  1.
         -2   -1    0    0    0  501 -0.00000000000E+00 -0.00000000000E+00 -0.21840705922E+03  0.21840705922E+03  0.00000000000E+00 0. -1.
         23    2    1    2    0    0  0.22694235224E+03  0.10520227834E+02  0.10947477421E+04  0.11219219554E+04  0.92858757909E+02 0.  0.
         11    1    3    3    0    0  0.64152634580E+02  0.43483445069E+02  0.41514417758E+03  0.42231630172E+03  0.00000000000E+00 0.  1.
        -11    1    3    3    0    0  0.16278971766E+03 -0.32963217234E+02  0.67960356448E+03  0.69960565373E+03  0.00000000000E+00 0. -1.
         22    1    1    2    0    0 -0.22694235224E+03 -0.10520227834E+02 -0.14182132154E+03  0.26781858351E+03  0.00000000000E+00 0. -1.
<mgrwt>
<rscale>  0 0.10115879E+04</rscale>
<asrwt>0</asrwt>
<pdfrwt beam="1">  1        2 0.18020515E+00 0.10115879E+04</pdfrwt>
<pdfrwt beam="2">  1       -2 0.33601087E-01 0.10115879E+04</pdfrwt>
<totfact> 0.16262528E+02</totfact>
</mgrwt>
</event>
<event>
 6    1  0.5040916E-004  0.4482058E+04  0.7818608E-02  0.7913785E-01
         -2   -1    0    0    0  501 -0.00000000000E+00  0.00000000000E+00  0.19378103498E+04  0.19378103498E+04  0.00000000000E+00 0. -1.
          2   -1    0    0  501    0  0.00000000000E+00 -0.00000000000E+00 -0.25916938189E+04  0.25916938189E+04  0.00000000000E+00 0.  1.
         23    2    1    2    0    0 -0.11381549256E+04 -0.19168183783E+04 -0.10520044533E+03  0.22337162014E+04  0.93976616135E+02 0.  0.
         11    1    3    3    0    0 -0.54294960412E+03 -0.90342506285E+03 -0.31102253951E+01  0.10540307350E+04  0.00000000000E+00 0. -1.
        -11    1    3    3    0    0 -0.59520532153E+03 -0.10133933155E+04 -0.10209021993E+03  0.11796854664E+04  0.00000000000E+00 0.  1.
         22    1    1    2    0    0  0.11381549256E+04  0.19168183783E+04 -0.54868302384E+03  0.22957879673E+04  0.00000000000E+00 0.  1.
<mgrwt>
<rscale>  0 0.44820581E+04</rscale>
<asrwt>0</asrwt>
<pdfrwt beam="1">  1        2 0.39872213E+00 0.44820581E+04</pdfrwt>
<pdfrwt beam="2">  1       -2 0.29812467E+00 0.44820581E+04</pdfrwt>
<totfact> 0.76210186E-02</totfact>
</mgrwt>
</event>
<event>
 6    1  0.5040916E-004  0.3632681E+04  0.7818608E-02  0.8083046E-01
         -2   -1    0    0    0  501 -0.00000000000E+00  0.00000000000E+00  0.66494018536E+03  0.66494018536E+03  0.00000000000E+00 0. -1.
          2   -1    0    0  501    0  0.00000000000E+00 -0.00000000000E+00 -0.49614880455E+04  0.49614880455E+04  0.00000000000E+00 0.  1.
         23    2    1    2    0    0  0.12053240348E+04 -0.10182939538E+04 -0.75982323928E+03  0.17536837713E+04  0.91360875243E+02 0.  0.
         11    1    3    3    0    0  0.90960009936E+03 -0.76669957711E+03 -0.61587283859E+03  0.13395894653E+04  0.00000000000E+00 0. -1.
        -11    1    3    3    0    0  0.29572393545E+03 -0.25159437670E+03 -0.14395040069E+03  0.41409430597E+03  0.00000000000E+00 0.  1.
         22    1    1    2    0    0 -0.12053240348E+04  0.10182939538E+04 -0.35367246208E+04  0.38727444595E+04  0.00000000000E+00 0.  1.
<mgrwt>
<rscale>  0 0.36326810E+04</rscale>
<asrwt>0</asrwt>
<pdfrwt beam="1">  1        2 0.76330587E+00 0.36326810E+04</pdfrwt>
<pdfrwt beam="2">  1       -2 0.10229849E+00 0.36326810E+04</pdfrwt>
<totfact> 0.24191428E-02</totfact>
</mgrwt>
</event>
<event>
 6    1  0.5040916E-004  0.1359579E+04  0.7818608E-02  0.8983608E-01
          2   -1    0    0  501    0  0.00000000000E+00  0.00000000000E+00  0.10589045136E+04  0.10589045136E+04  0.00000000000E+00 0.  1.
         -2   -1    0    0    0  501 -0.00000000000E+00 -0.00000000000E+00 -0.43640768853E+03  0.43640768853E+03  0.00000000000E+00 0. -1.
         23    2    1    2    0    0 -0.35135129425E+03  0.31347750583E+03  0.84718416840E+03  0.97358403447E+03  0.91809467708E+02 0.  0.
         13    1    3    3    0    0 -0.12887258961E+03  0.10386780537E+03  0.38953586569E+03  0.42324325866E+03  0.00000000000E+00 0.  1.
        -13    1    3    3    0    0 -0.22247870464E+03  0.20960970046E+03  0.45764830271E+03  0.55034077581E+03  0.00000000000E+00 0. -1.
         22    1    1    2    0    0  0.35135129425E+03 -0.31347750583E+03 -0.22468734335E+03  0.52172816762E+03  0.00000000000E+00 0. -1.
<mgrwt>
<rscale>  0 0.13595795E+04</rscale>
<asrwt>0</asrwt>
<pdfrwt beam="1">  1        2 0.16290839E+00 0.13595795E+04</pdfrwt>
<pdfrwt beam="2">  1       -2 0.67139645E-01 0.13595795E+04</pdfrwt>
<totfact> 0.45925181E+01</totfact>
</mgrwt>
</event>
<event>
 6    1  0.5040916E-004  0.1241904E+04  0.7818608E-02  0.9076949E-01
          2   -1    0    0  501    0  0.00000000000E+00  0.00000000000E+00  0.97702412455E+03  0.97702412455E+03  0.00000000000E+00 0. -1.
         -2   -1    0    0    0  501 -0.00000000000E+00 -0.00000000000E+00 -0.39464862311E+03  0.39464862311E+03  0.00000000000E+00 0.  1.
         23    2    1    2    0    0  0.59105998272E+03 -0.13923479113E+03  0.16861932683E+03  0.63687182070E+03  0.91842301748E+02 0.  0.
         13    1    3    3    0    0  0.72772633938E+02  0.10297594325E+02  0.74067530791E+01  0.73869863208E+02  0.00000000000E+00 0.  1.
        -13    1    3    3    0    0  0.51828734878E+03 -0.14953238546E+03  0.16121257375E+03  0.56300195749E+03  0.00000000000E+00 0. -1.
         22    1    1    2    0    0 -0.59105998272E+03  0.13923479113E+03  0.41375617460E+03  0.73480092696E+03  0.00000000000E+00 0.  1.
<mgrwt>
<rscale>  0 0.12419037E+04</rscale>
<asrwt>0</asrwt>
<pdfrwt beam="1">  1        2 0.15031140E+00 0.12419037E+04</pdfrwt>
<pdfrwt beam="2">  1       -2 0.60715173E-01 0.12419037E+04</pdfrwt>
<totfact> 0.64792853E+01</totfact>
</mgrwt>
</event>
<event>
 6    1  0.5040916E-004  0.1674721E+04  0.7818608E-02  0.8775914E-01
         -2   -1    0    0    0  501 -0.00000000000E+00  0.00000000000E+00  0.46956148793E+03  0.46956148793E+03  0.00000000000E+00 0. -1.
          2   -1    0    0  501    0  0.00000000000E+00 -0.00000000000E+00 -0.14932506287E+04  0.14932506287E+04  0.00000000000E+00 0.  1.
         23    2    1    2    0    0  0.80810440797E+03 -0.51545157432E+02 -0.27534590046E+03  0.86022096724E+03  0.92060361433E+02 0.  0.
         13    1    3    3    0    0  0.27327033506E+03 -0.49073530696E+02 -0.62530633658E+02  0.28459614822E+03  0.00000000000E+00 0.  1.
        -13    1    3    3    0    0  0.53483407291E+03 -0.24716267359E+01 -0.21281526680E+03  0.57562481901E+03  0.00000000000E+00 0. -1.
         22    1    1    2    0    0 -0.80810440797E+03  0.51545157432E+02 -0.74834324034E+03  0.11025911494E+04  0.00000000000E+00 0.  1.
<mgrwt>
<rscale>  0 0.16747215E+04</rscale>
<asrwt>0</asrwt>
<pdfrwt beam="1">  1        2 0.22973087E+00 0.16747215E+04</pdfrwt>
<pdfrwt beam="2">  1       -2 0.72240229E-01 0.16747215E+04</pdfrwt>
<totfact> 0.21179605E+01</totfact>
</mgrwt>
</event>
<event>
 6    1  0.5040916E-004  0.3128482E+04  0.7818608E-02  0.8207964E-01
          2   -1    0    0  501    0  0.00000000000E+00  0.00000000000E+00  0.14443011596E+04  0.14443011596E+04  0.00000000000E+00 0.  1.
         -2   -1    0    0    0  501 -0.00000000000E+00 -0.00000000000E+00 -0.16941416029E+04  0.16941416029E+04  0.00000000000E+00 0. -1.
         23    2    1    2    0    0  0.78389955159E+03  0.13281485026E+04  0.12827071567E+03  0.15505369087E+04  0.96095665292E+02 0.  0.
         13    1    3    3    0    0  0.85683116575E+02  0.95586608028E+02  0.18653067705E+02  0.12971635608E+03  0.00000000000E+00 0.  1.
        -13    1    3    3    0    0  0.69821643502E+03  0.12325618946E+04  0.10961764796E+03  0.14208205527E+04  0.00000000000E+00 0. -1.
         22    1    1    2    0    0 -0.78389955159E+03 -0.13281485026E+04 -0.37811115892E+03  0.15879058538E+04  0.00000000000E+00 0. -1.
<mgrwt>
<rscale>  0 0.31284825E+04</rscale>
<asrwt>0</asrwt>
<pdfrwt beam="1">  1        2 0.22220018E+00 0.31284825E+04</pdfrwt>
<pdfrwt beam="2">  1       -2 0.26063717E+00 0.31284825E+04</pdfrwt>
<totfact> 0.63938901E-01</totfact>
</mgrwt>
</event>
<event>
 6    1  0.5040916E-004  0.5495396E+03  0.7818608E-02  0.1001601E+00
         -2   -1    0    0    0  501 -0.00000000000E+00  0.00000000000E+00  0.67619487126E+02  0.67619487126E+02  0.00000000000E+00 0. -1.
          2   -1    0    0  501    0  0.00000000000E+00 -0.00000000000E+00 -0.11165188472E+04  0.11165188472E+04  0.00000000000E+00 0.  1.
         23    2    1    2    0    0  0.22021658577E+02 -0.26079739083E+03 -0.42766691247E+03  0.51002411072E+03  0.93409704960E+02 0.  0.
         13    1    3    3    0    0  0.54197507976E+02 -0.19887226334E+03 -0.29148594159E+03  0.35700364304E+03  0.00000000000E+00 0. -1.
        -13    1    3    3    0    0 -0.32175849399E+02 -0.61925127489E+02 -0.13618097088E+03  0.15302046768E+03  0.00000000000E+00 0.  1.
         22    1    1    2    0    0 -0.22021658577E+02  0.26079739083E+03 -0.62123244756E+03  0.67411422357E+03  0.00000000000E+00 0.  1.
<mgrwt>
<rscale>  0 0.54953956E+03</rscale>
<asrwt>0</asrwt>
<pdfrwt beam="1">  1        2 0.17177212E+00 0.54953956E+03</pdfrwt>
<pdfrwt beam="2">  1       -2 0.10402999E-01 0.54953956E+03</pdfrwt>
<totfact> 0.13833426E+03</totfact>
</mgrwt>
</event>
<event>
 6    1  0.5040916E-004  0.2909393E+04  0.7818608E-02  0.8270088E-01
          2   -1    0    0  501    0  0.00000000000E+00  0.00000000000E+00  0.26236924691E+04  0.26236924691E+04  0.00000000000E+00 0.  1.
         -2   -1    0    0    0  501 -0.00000000000E+00 -0.00000000000E+00 -0.80655093057E+03  0.80655093057E+03  0.00000000000E+00 0. -1.
         23    2    1    2    0    0  0.11841862584E+04  0.27859500958E+03  0.18468804506E+04  0.22133635055E+04  0.89990748549E+02 0.  0.
         13    1    3    3    0    0  0.70519648486E+03  0.12685313629E+03  0.10441253278E+04  0.12663299336E+04  0.00000000000E+00 0. -1.
        -13    1    3    3    0    0  0.47898977353E+03  0.15174187329E+03  0.80275512281E+03  0.94703357198E+03  0.00000000000E+00 0.  1.
         22    1    1    2    0    0 -0.11841862584E+04 -0.27859500958E+03 -0.29738912078E+02  0.12168798942E+04  0.00000000000E+00 0. -1.
<mgrwt>
<rscale>  0 0.29093928E+04</rscale>
<asrwt>0</asrwt>
<pdfrwt beam="1">  1        2 0.40364499E+00 0.29093928E+04</pdfrwt>
<pdfrwt beam="2">  1       -2 0.12408476E+00 0.29093928E+04</pdfrwt>
<totfact> 0.12409272E+00</totfact>
</mgrwt>
</event>
<event>
 6    1  0.5040916E-004  0.2034491E+04  0.7818608E-02  0.8590663E-01
          2   -1    0    0  501    0  0.00000000000E+00  0.00000000000E+00  0.10441137405E+04  0.10441137405E+04  0.00000000000E+00 0.  1.
         -2   -1    0    0    0  501 -0.00000000000E+00 -0.00000000000E+00 -0.99106844271E+03  0.99106844271E+03  0.00000000000E+00 0. -1.
         23    2    1    2    0    0 -0.70921886812E+03  0.90161978136E+02 -0.69437946270E+03  0.10008880482E+04  0.92159978232E+02 0.  0.
         13    1    3    3    0    0 -0.54374158461E+03  0.45317924469E+02 -0.57015763146E+03  0.78916940502E+03  0.00000000000E+00 0. -1.
        -13    1    3    3    0    0 -0.16547728351E+03  0.44844053668E+02 -0.12422183124E+03  0.21171864316E+03  0.00000000000E+00 0.  1.
         22    1    1    2    0    0  0.70921886812E+03 -0.90161978136E+02  0.74742476052E+03  0.10342941351E+04  0.00000000000E+00 0.  1.
<mgrwt>
<rscale>  0 0.20344908E+04</rscale>
<asrwt>0</asrwt>
<pdfrwt beam="1">  1        2 0.16063288E+00 0.20344908E+04</pdfrwt>
<pdfrwt beam="2">  1       -2 0.15247207E+00 0.20344908E+04</pdfrwt>
<totfact> 0.62743114E+00</totfact>
</mgrwt>
</event>
<event>
 6    1  0.5040916E-004  0.1461323E+04  0.7818608E-02  0.8910588E-01
         -2   -1    0    0    0  501 -0.00000000000E+00  0.00000000000E+00  0.30965709805E+04  0.30965709805E+04  0.00000000000E+00 0. -1.
          2   -1    0    0  501    0  0.00000000000E+00 -0.00000000000E+00 -0.17240552367E+03  0.17240552367E+03  0.00000000000E+00 0.  1.
         23    2    1    2    0    0 -0.54240611501E+03  0.13829950210E+03  0.42632740114E+03  0.70918625917E+03  0.88650726780E+02 0.  0.
         13    1    3    3    0    0 -0.19758717659E+03  0.68332401264E+01  0.14921558619E+03  0.24769472479E+03  0.00000000000E+00 0. -1.
        -13    1    3    3    0    0 -0.34481893842E+03  0.13146626197E+03  0.27711181494E+03  0.46149153439E+03  0.00000000000E+00 0.  1.
         22    1    1    2    0    0  0.54240611501E+03 -0.13829950210E+03  0.24978380557E+04  0.25597902450E+04  0.00000000000E+00 0. -1.
<mgrwt>
<rscale>  0 0.14613226E+04</rscale>
<asrwt>0</asrwt>
<pdfrwt beam="1">  1        2 0.26523929E-01 0.14613226E+04</pdfrwt>
<pdfrwt beam="2">  1       -2 0.47639549E+00 0.14613226E+04</pdfrwt>
<totfact> 0.46615871E-01</totfact>
</mgrwt>
</event>
<event>
 6    1  0.5040916E-004  0.1127692E+04  0.7818608E-02  0.9178614E-01
         -3   -1    0    0    0  501 -0.00000000000E+00  0.00000000000E+00  0.24681129125E+04  0.24681129125E+04  0.00000000000E+00 0.  1.
          3   -1    0    0  501    0  0.00000000000E+00 -0.00000000000E+00 -0.12881193075E+03  0.12881193075E+03  0.00000000000E+00 0. -1.
         23    2    1    2    0    0 -0.31760425469E+03  0.24185107500E+03  0.20823406221E+04  0.21221690834E+04  0.89970811894E+02 0.  0.
         13    1    3    3    0    0 -0.15140653017E+03  0.13797816263E+03  0.84961290234E+03  0.87395880598E+03  0.00000000000E+00 0.  1.
        -13    1    3    3    0    0 -0.16619772452E+03  0.10387291237E+03  0.12327277198E+04  0.12482102774E+04  0.00000000000E+00 0. -1.
         22    1    1    2    0    0  0.31760425469E+03 -0.24185107500E+03  0.25696035962E+03  0.47475575983E+03  0.00000000000E+00 0. -1.
<mgrwt>
<rscale>  0 0.11276921E+04</rscale>
<asrwt>0</asrwt>
<pdfrwt beam="1">  1        3 0.19817222E-01 0.11276921E+04</pdfrwt>
<pdfrwt beam="2">  1       -3 0.37970964E+00 0.11276921E+04</pdfrwt>
<totfact> 0.84823976E-01</totfact>
</mgrwt>
</event>
<event>
 6    1  0.5040916E-004  0.2887846E+04  0.7818608E-02  0.8276503E-01
         -2   -1    0    0    0  501 -0.00000000000E+00  0.00000000000E+00  0.71445796605E+03  0.71445796605E+03  0.00000000000E+00 0. -1.
          2   -1    0    0  501    0  0.00000000000E+00 -0.00000000000E+00 -0.29181749065E+04  0.29181749065E+04  0.00000000000E+00 0.  1.
         23    2    1    2    0    0 -0.49909971490E+03 -0.87702217837E+03  0.19066254149E+03  0.10343023450E+04  0.12312883254E+03 0.  0.
         13    1    3    3    0    0 -0.19521189341E+03 -0.44119926515E+03  0.12915232034E+03  0.49944448815E+03  0.00000000000E+00 0.  1.
        -13    1    3    3    0    0 -0.30388782149E+03 -0.43582291322E+03  0.61510221151E+02  0.53485785686E+03  0.00000000000E+00 0. -1.
         22    1    1    2    0    0  0.49909971490E+03  0.87702217837E+03 -0.23943794819E+04  0.25983305275E+04  0.00000000000E+00 0.  1.
<mgrwt>
<rscale>  0 0.28878458E+04</rscale>
<asrwt>0</asrwt>
<pdfrwt beam="1">  1        2 0.44894999E+00 0.28878458E+04</pdfrwt>
<pdfrwt beam="2">  1       -2 0.10991661E+00 0.28878458E+04</pdfrwt>
<totfact> 0.11128140E+00</totfact>
</mgrwt>
</event>
<event>
 6    1  0.5040916E-004  0.4060104E+04  0.7818608E-02  0.7992530E-01
         -2   -1    0    0    0  501 -0.00000000000E+00  0.00000000000E+00  0.42839473198E+04  0.42839473198E+04  0.00000000000E+00 0. -1.
          2   -1    0    0  501    0  0.00000000000E+00 -0.00000000000E+00 -0.96198914861E+03  0.96198914861E+03  0.00000000000E+00 0.  1.
         23    2    1    2    0    0 -0.11384763846E+04 -0.15438474245E+04  0.25162189175E+04  0.31653574401E+04  0.92394449866E+02 0.  0.
         11    1    3    3    0    0 -0.52638945204E+03 -0.78187992944E+03  0.12722337250E+04  0.15833511077E+04  0.00000000000E+00 0.  1.
        -11    1    3    3    0    0 -0.61208693251E+03 -0.76196749503E+03  0.12439851926E+04  0.15820063324E+04  0.00000000000E+00 0. -1.
         22    1    1    2    0    0  0.11384763846E+04  0.15438474245E+04  0.80573925369E+03  0.20805790283E+04  0.00000000000E+00 0.  1.
<mgrwt>
<rscale>  0 0.40601039E+04</rscale>
<asrwt>0</asrwt>
<pdfrwt beam="1">  1        2 0.14799833E+00 0.40601039E+04</pdfrwt>
<pdfrwt beam="2">  1       -2 0.65906881E+00 0.40601039E+04</pdfrwt>
<totfact> 0.65560343E-03</totfact>
</mgrwt>
</event>
<event>
 6    1  0.5040916E-004  0.6403464E+04  0.7818608E-02  0.7642295E-01
          2   -1    0    0  501    0  0.00000000000E+00  0.00000000000E+00  0.36787590725E+04  0.36787590725E+04  0.00000000000E+00 0. -1.
         -2   -1    0    0    0  501 -0.00000000000E+00 -0.00000000000E+00 -0.27865615812E+04  0.27865615812E+04  0.00000000000E+00 0.  1.
         23    2    1    2    0    0  0.18117919534E+04  0.21294535566E+04 -0.11276616028E+04  0.30161188196E+04  0.90495920762E+02 0.  0.
         13    1    3    3    0    0  0.97114986312E+03  0.11006776453E+04 -0.55235477616E+03  0.15683491749E+04  0.00000000000E+00 0. -1.
        -13    1    3    3    0    0  0.84064209032E+03  0.10287759112E+04 -0.57530682666E+03  0.14477696448E+04  0.00000000000E+00 0.  1.
         22    1    1    2    0    0 -0.18117919534E+04 -0.21294535566E+04  0.20198590942E+04  0.34492018341E+04  0.00000000000E+00 0. -1.
<mgrwt>
<rscale>  0 0.64034643E+04</rscale>
<asrwt>0</asrwt>
<pdfrwt beam="1">  1        2 0.56596294E+00 0.64034643E+04</pdfrwt>
<pdfrwt beam="2">  1       -2 0.42870178E+00 0.64034643E+04</pdfrwt>
<totfact> 0.18966863E-03</totfact>
</mgrwt>
</event>
<event>
 6    1  0.5040916E-004  0.4173599E+04  0.7818608E-02  0.7970413E-01
          2   -1    0    0  501    0  0.00000000000E+00  0.00000000000E+00  0.19962268938E+04  0.19962268938E+04  0.00000000000E+00 0.  1.
         -2   -1    0    0    0  501 -0.00000000000E+00 -0.00000000000E+00 -0.21814811098E+04  0.21814811098E+04  0.00000000000E+00 0. -1.
         23    2    1    2    0    0  0.93501660360E+03 -0.10542453592E+03  0.17708357184E+04  0.20070725636E+04  0.84325275907E+02 0.  0.
         13    1    3    3    0    0  0.47814032397E+03 -0.13321776203E+02  0.92297333067E+03  0.10395553897E+04  0.00000000000E+00 0. -1.
        -13    1    3    3    0    0  0.45687627963E+03 -0.92102759714E+02  0.84786238771E+03  0.96751717386E+03  0.00000000000E+00 0.  1.
         22    1    1    2    0    0 -0.93501660360E+03  0.10542453592E+03 -0.19560899345E+04  0.21706354400E+04  0.00000000000E+00 0. -1.
<mgrwt>
<rscale>  0 0.41735986E+04</rscale>
<asrwt>0</asrwt>
<pdfrwt beam="1">  1        2 0.30711183E+00 0.41735986E+04</pdfrwt>
<pdfrwt beam="2">  1       -2 0.33561248E+00 0.41735986E+04</pdfrwt>
<totfact> 0.10001986E-01</totfact>
</mgrwt>
</event>
<event>
 6    1  0.5040916E-004  0.8265022E+03  0.7818608E-02  0.9522429E-01
         -4   -1    0    0    0  501 -0.00000000000E+00  0.00000000000E+00  0.44665108466E+03  0.44665108466E+03  0.00000000000E+00 0. -1.
          4   -1    0    0  501    0  0.00000000000E+00 -0.00000000000E+00 -0.38234873367E+03  0.38234873367E+03  0.00000000000E+00 0.  1.
         23    2    1    2    0    0 -0.28461657103E+03 -0.23061582117E+03  0.21312082028E+03  0.43360484329E+03  0.91664751194E+02 0.  0.
         13    1    3    3    0    0 -0.16911377455E+03 -0.18471058783E+03  0.11665521515E+03  0.27627144119E+03  0.00000000000E+00 0. -1.
        -13    1    3    3    0    0 -0.11550279648E+03 -0.45905233345E+02  0.96465605132E+02  0.15733340210E+03  0.00000000000E+00 0.  1.
         22    1    1    2    0    0  0.28461657103E+03  0.23061582117E+03 -0.14881846929E+03  0.39539497503E+03  0.00000000000E+00 0.  1.
<mgrwt>
<rscale>  0 0.82650221E+03</rscale>
<asrwt>0</asrwt>
<pdfrwt beam="1">  1        4 0.58822882E-01 0.82650221E+03</pdfrwt>
<pdfrwt beam="2">  1       -4 0.68715552E-01 0.82650221E+03</pdfrwt>
<totfact> 0.10613758E+01</totfact>
</mgrwt>
</event>
<event>
 6    1  0.5040916E-004  0.1778630E+04  0.7818608E-02  0.8717747E-01
         -2   -1    0    0    0  501 -0.00000000000E+00  0.00000000000E+00  0.70866990302E+03  0.70866990302E+03  0.00000000000E+00 0. -1.
          2   -1    0    0  501    0  0.00000000000E+00 -0.00000000000E+00 -0.11160077052E+04  0.11160077052E+04  0.00000000000E+00 0.  1.
         23    2    1    2    0    0  0.30710120077E+03  0.19081182320E+03  0.62682891231E+03  0.72913158328E+03  0.89431991231E+02 0.  0.
         13    1    3    3    0    0  0.19251419126E+03  0.87306638337E+02  0.29272717514E+03  0.36107251626E+03  0.00000000000E+00 0. -1.
        -13    1    3    3    0    0  0.11458700951E+03  0.10350518486E+03  0.33410173717E+03  0.36805906702E+03  0.00000000000E+00 0.  1.
         22    1    1    2    0    0 -0.30710120077E+03 -0.19081182320E+03 -0.10341667145E+04  0.10955460249E+04  0.00000000000E+00 0.  1.
<mgrwt>
<rscale>  0 0.17786299E+04</rscale>
<asrwt>0</asrwt>
<pdfrwt beam="1">  1        2 0.17169349E+00 0.17786299E+04</pdfrwt>
<pdfrwt beam="2">  1       -2 0.10902614E+00 0.17786299E+04</pdfrwt>
<totfact> 0.13522610E+01</totfact>
</mgrwt>
</event>
<event>
 6    1  0.5162725E-004  0.2825316E+04  0.7818608E-02  0.8295451E-01
         -2   -1    0    0    0  501 -0.00000000000E+00  0.00000000000E+00  0.69034204401E+03  0.69034204401E+03  0.00000000000E+00 0.  1.
          2   -1    0    0  501    0  0.00000000000E+00 -0.00000000000E+00 -0.28907456457E+04  0.28907456457E+04  0.00000000000E+00 0. -1.
         23    2    1    2    0    0  0.11857226721E+04  0.54234619161E+03 -0.17855513477E+04  0.22128113875E+04  0.90900904802E+02 0.  0.
         13    1    3    3    0    0  0.51846397021E+03  0.24271511646E+03 -0.70854930052E+03  0.91091032897E+03  0.00000000000E+00 0. -1.
        -13    1    3    3    0    0  0.66725870187E+03  0.29963107515E+03 -0.10770020472E+04  0.13019010585E+04  0.00000000000E+00 0.  1.
         22    1    1    2    0    0 -0.11857226721E+04 -0.54234619161E+03 -0.41485225394E+03  0.13682763022E+04  0.00000000000E+00 0.  1.
<mgrwt>
<rscale>  0 0.28253164E+04</rscale>
<asrwt>0</asrwt>
<pdfrwt beam="1">  1        2 0.44473011E+00 0.28253164E+04</pdfrwt>
<pdfrwt beam="2">  1       -2 0.10620647E+00 0.28253164E+04</pdfrwt>
<totfact> 0.12635883E+00</totfact>
</mgrwt>
</event>
<event>
 6    1  0.5040916E-004  0.2876539E+04  0.7818608E-02  0.8279892E-01
         -1   -1    0    0    0  501 -0.00000000000E+00  0.00000000000E+00  0.63873225413E+03  0.63873225413E+03  0.00000000000E+00 0. -1.
          1   -1    0    0  501    0  0.00000000000E+00 -0.00000000000E+00 -0.32386336853E+04  0.32386336853E+04  0.00000000000E+00 0.  1.
         23    2    1    2    0    0  0.45621846267E+03 -0.15398767112E+03 -0.31260536460E+04  0.31641453272E+04  0.88072501678E+02 0.  0.
         11    1    3    3    0    0  0.12657852303E+03 -0.40468741176E+01 -0.73738931207E+03  0.74818546981E+03  0.00000000000E+00 0. -1.
        -11    1    3    3    0    0  0.32963993964E+03 -0.14994079701E+03 -0.23886643339E+04  0.24159598574E+04  0.00000000000E+00 0.  1.
         22    1    1    2    0    0 -0.45621846267E+03  0.15398767112E+03  0.52615221482E+03  0.71322061222E+03  0.00000000000E+00 0. -1.
<mgrwt>
<rscale>  0 0.28765394E+04</rscale>
<asrwt>0</asrwt>
<pdfrwt beam="1">  1        1 0.49825135E+00 0.28765394E+04</pdfrwt>
<pdfrwt beam="2">  1       -1 0.98266497E-01 0.28765394E+04</pdfrwt>
<totfact> 0.33893456E-01</totfact>
</mgrwt>
</event>
<event>
 6    1  0.5040916E-004  0.7809126E+03  0.7818608E-02  0.9588064E-01
          2   -1    0    0  501    0  0.00000000000E+00  0.00000000000E+00  0.44415014655E+03  0.44415014655E+03  0.00000000000E+00 0.  1.
         -2   -1    0    0    0  501 -0.00000000000E+00 -0.00000000000E+00 -0.34325359947E+03  0.34325359947E+03  0.00000000000E+00 0. -1.
         23    2    1    2    0    0 -0.47334989227E+02 -0.26966864018E+03 -0.22118354651E+03  0.36467763683E+03  0.95424529620E+02 0.  0.
         13    1    3    3    0    0  0.61539390773E+01 -0.84645608523E+02 -0.22145761027E+02  0.87710801729E+02  0.00000000000E+00 0. -1.
        -13    1    3    3    0    0 -0.53488928304E+02 -0.18502303166E+03 -0.19903778548E+03  0.27696683510E+03  0.00000000000E+00 0.  1.
         22    1    1    2    0    0  0.47334989227E+02  0.26966864018E+03  0.32208009359E+03  0.42272610919E+03  0.00000000000E+00 0.  1.
<mgrwt>
<rscale>  0 0.78091264E+03</rscale>
<asrwt>0</asrwt>
<pdfrwt beam="1">  1        2 0.68330792E-01 0.78091264E+03</pdfrwt>
<pdfrwt beam="2">  1       -2 0.52808246E-01 0.78091264E+03</pdfrwt>
<totfact> 0.24066727E+02</totfact>
</mgrwt>
</event>
<event>
 6    1  0.5040916E-004  0.3570463E+04  0.7818608E-02  0.8097291E-01
         -2   -1    0    0    0  501 -0.00000000000E+00  0.00000000000E+00  0.16827230946E+04  0.16827230946E+04  0.00000000000E+00 0. -1.
          2   -1    0    0  501    0  0.00000000000E+00 -0.00000000000E+00 -0.18939845961E+04  0.18939845961E+04  0.00000000000E+00 0.  1.
         23    2    1    2    0    0 -0.11956911922E+04  0.33639382360E+03  0.11772584558E+04  0.17136924187E+04  0.89252465131E+02 0.  0.
         13    1    3    3    0    0 -0.65787599232E+03  0.22417659226E+03  0.62519455723E+03  0.93483913064E+03  0.00000000000E+00 0.  1.
        -13    1    3    3    0    0 -0.53781519990E+03  0.11221723134E+03  0.55206389858E+03  0.77885328809E+03  0.00000000000E+00 0. -1.
         22    1    1    2    0    0  0.11956911922E+04 -0.33639382360E+03 -0.13885199574E+04  0.18630152720E+04  0.00000000000E+00 0.  1.
<mgrwt>
<rscale>  0 0.35704631E+04</rscale>
<asrwt>0</asrwt>
<pdfrwt beam="1">  1        2 0.29138224E+00 0.35704631E+04</pdfrwt>
<pdfrwt beam="2">  1       -2 0.25888048E+00 0.35704631E+04</pdfrwt>
<totfact> 0.35437038E-01</totfact>
</mgrwt>
</event>
<event>
 6    1  0.5040916E-004  0.5414341E+04  0.7818608E-02  0.7767587E-01
         -2   -1    0    0    0  501 -0.00000000000E+00  0.00000000000E+00  0.42546428685E+04  0.42546428685E+04  0.00000000000E+00 0. -1.
          2   -1    0    0  501    0  0.00000000000E+00 -0.00000000000E+00 -0.17225349408E+04  0.17225349408E+04  0.00000000000E+00 0.  1.
         23    2    1    2    0    0 -0.21661878528E+03  0.25091465114E+04  0.17257022609E+03  0.25260681212E+04  0.92194121386E+02 0.  0.
         13    1    3    3    0    0 -0.21451554103E+02  0.60896923080E+03  0.66248313485E+02  0.61293762511E+03  0.00000000000E+00 0.  1.
        -13    1    3    3    0    0 -0.19516723117E+03  0.19001772806E+04  0.10632191260E+03  0.19131304961E+04  0.00000000000E+00 0. -1.
         22    1    1    2    0    0  0.21661878528E+03 -0.25091465114E+04  0.23595377016E+04  0.34511096881E+04  0.00000000000E+00 0. -1.
<mgrwt>
<rscale>  0 0.54143406E+04</rscale>
<asrwt>0</asrwt>
<pdfrwt beam="1">  1        2 0.26500538E+00 0.54143406E+04</pdfrwt>
<pdfrwt beam="2">  1       -2 0.65456044E+00 0.54143406E+04</pdfrwt>
<totfact> 0.22100050E-03</totfact>
</mgrwt>
</event>
<event>
 6    1  0.5040916E-004  0.4011899E+04  0.7818608E-02  0.8002150E-01
          2   -1    0    0  501    0  0.00000000000E+00  0.00000000000E+00  0.15178551250E+04  0.15178551250E+04  0.00000000000E+00 0.  1.
         -2   -1    0    0    0  501 -0.00000000000E+00 -0.00000000000E+00 -0.26509996425E+04  0.26509996425E+04  0.00000000000E+00 0. -1.
         23    2    1    2    0    0  0.55171336391E+03 -0.17911160591E+04 -0.13069650652E+04  0.22866491582E+04  0.90123904586E+02 0.  0.
         11    1    3    3    0    0  0.18652178628E+03 -0.47237772184E+03 -0.36370489515E+03  0.62466978445E+03  0.00000000000E+00 0.  1.
        -11    1    3    3    0    0  0.36519157764E+03 -0.13187383372E+04 -0.94326017005E+03  0.16619793738E+04  0.00000000000E+00 0. -1.
         22    1    1    2    0    0 -0.55171336391E+03  0.17911160591E+04  0.17382054774E+03  0.18822056093E+04  0.00000000000E+00 0.  1.
<mgrwt>
<rscale>  0 0.40118990E+04</rscale>
<asrwt>0</asrwt>
<pdfrwt beam="1">  1        2 0.23351618E+00 0.40118990E+04</pdfrwt>
<pdfrwt beam="2">  1       -2 0.40784609E+00 0.40118990E+04</pdfrwt>
<totfact> 0.64418289E-02</totfact>
</mgrwt>
</event>
<event>
 6    1  0.5040916E-004  0.2182207E+04  0.7818608E-02  0.8525871E-01
         -2   -1    0    0    0  501 -0.00000000000E+00  0.00000000000E+00  0.12265655994E+04  0.12265655994E+04  0.00000000000E+00 0. -1.
          2   -1    0    0  501    0  0.00000000000E+00 -0.00000000000E+00 -0.97060179507E+03  0.97060179507E+03  0.00000000000E+00 0.  1.
         23    2    1    2    0    0  0.42489903853E+03  0.95854210967E+03 -0.16857864954E+03  0.10659828542E+04  0.92512245044E+02 0.  0.
         13    1    3    3    0    0  0.19903067295E+03  0.44523162724E+03 -0.12516391873E+03  0.50349817996E+03  0.00000000000E+00 0.  1.
        -13    1    3    3    0    0  0.22586836558E+03  0.51331048243E+03 -0.43414730812E+02  0.56248467428E+03  0.00000000000E+00 0. -1.
         22    1    1    2    0    0 -0.42489903853E+03 -0.95854210967E+03  0.42454245389E+03  0.11311845403E+04  0.00000000000E+00 0. -1.
<mgrwt>
<rscale>  0 0.21822069E+04</rscale>
<asrwt>0</asrwt>
<pdfrwt beam="1">  1        2 0.14932335E+00 0.21822069E+04</pdfrwt>
<pdfrwt beam="2">  1       -2 0.18870240E+00 0.21822069E+04</pdfrwt>
<totfact> 0.38089448E+00</totfact>
</mgrwt>
</event>
<event>
 6    1  0.5040916E-004  0.1091411E+04  0.7818608E-02  0.9213604E-01
         -1   -1    0    0    0  501 -0.00000000000E+00  0.00000000000E+00  0.65903608330E+03  0.65903608330E+03  0.00000000000E+00 0.  1.
          1   -1    0    0  501    0  0.00000000000E+00 -0.00000000000E+00 -0.45186358625E+03  0.45186358625E+03  0.00000000000E+00 0. -1.
         23    2    1    2    0    0  0.39936243080E+03  0.95507853900E+02 -0.25564726188E+03  0.49217983751E+03  0.90958059867E+02 0.  0.
         13    1    3    3    0    0  0.11027518940E+03  0.68241146935E+02 -0.90407901198E+02  0.15808561013E+03  0.00000000000E+00 0. -1.
        -13    1    3    3    0    0  0.28908724140E+03  0.27266706965E+02 -0.16523936069E+03  0.33409422738E+03  0.00000000000E+00 0.  1.
         22    1    1    2    0    0 -0.39936243080E+03 -0.95507853900E+02  0.46281975893E+03  0.61871983203E+03  0.00000000000E+00 0.  1.
<mgrwt>
<rscale>  0 0.10914108E+04</rscale>
<asrwt>0</asrwt>
<pdfrwt beam="1">  1        1 0.69517475E-01 0.10914108E+04</pdfrwt>
<pdfrwt beam="2">  1       -1 0.10139017E+00 0.10914108E+04</pdfrwt>
<totfact> 0.46900792E+01</totfact>
</mgrwt>
</event>
<event>
 6    1  0.5040916E-004  0.3225558E+04  0.7818608E-02  0.8182100E-01
         -2   -1    0    0    0  501 -0.00000000000E+00  0.00000000000E+00  0.13012840093E+04  0.13012840093E+04  0.00000000000E+00 0. -1.
          2   -1    0    0  501    0  0.00000000000E+00 -0.00000000000E+00 -0.19988378059E+04  0.19988378059E+04  0.00000000000E+00 0.  1.
         23    2    1    2    0    0  0.60709522943E+03  0.14591606800E+04 -0.67117824765E+03  0.17194858112E+04  0.91851549915E+02 0.  0.
         13    1    3    3    0    0  0.30286978707E+03  0.61027940300E+03 -0.29428038000E+03  0.74214014828E+03  0.00000000000E+00 0.  1.
        -13    1    3    3    0    0  0.30422544236E+03  0.84888127699E+03 -0.37689786765E+03  0.97734566292E+03  0.00000000000E+00 0. -1.
         22    1    1    2    0    0 -0.60709522943E+03 -0.14591606800E+04 -0.26375548974E+02  0.15806360040E+04  0.00000000000E+00 0.  1.
<mgrwt>
<rscale>  0 0.32255577E+04</rscale>
<asrwt>0</asrwt>
<pdfrwt beam="1">  1        2 0.30751351E+00 0.32255577E+04</pdfrwt>
<pdfrwt beam="2">  1       -2 0.20019754E+00 0.32255577E+04</pdfrwt>
<totfact> 0.74562138E-01</totfact>
</mgrwt>
</event>
<event>
 6    1  0.5040916E-004  0.4550961E+04  0.7818608E-02  0.7901775E-01
          2   -1    0    0  501    0  0.00000000000E+00  0.00000000000E+00  0.30843444041E+04  0.30843444041E+04  0.00000000000E+00 0.  1.
         -2   -1    0    0    0  501 -0.00000000000E+00 -0.00000000000E+00 -0.16787396577E+04  0.16787396577E+04  0.00000000000E+00 0. -1.
         23    2    1    2    0    0 -0.85804165428E+03  0.10324954567E+04 -0.12186203827E+04  0.18154002462E+04  0.91433408766E+02 0.  0.
         13    1    3    3    0    0 -0.41498207821E+03  0.57075377404E+03 -0.64122610730E+03  0.95348881299E+03  0.00000000000E+00 0. -1.
        -13    1    3    3    0    0 -0.44305957608E+03  0.46174168262E+03 -0.57739427541E+03  0.86191143320E+03  0.00000000000E+00 0.  1.
         22    1    1    2    0    0  0.85804165428E+03 -0.10324954567E+04  0.26242251291E+04  0.29476838156E+04  0.00000000000E+00 0.  1.
<mgrwt>
<rscale>  0 0.45509609E+04</rscale>
<asrwt>0</asrwt>
<pdfrwt beam="1">  1        2 0.47451452E+00 0.45509609E+04</pdfrwt>
<pdfrwt beam="2">  1       -2 0.25826764E+00 0.45509609E+04</pdfrwt>
<totfact> 0.66388097E-02</totfact>
</mgrwt>
</event>
<event>
 6    1  0.5040916E-004  0.6981923E+03  0.7818608E-02  0.9720329E-01
          2   -1    0    0  501    0  0.00000000000E+00  0.00000000000E+00  0.84010758375E+03  0.84010758375E+03  0.00000000000E+00 0.  1.
         -2   -1    0    0    0  501 -0.00000000000E+00 -0.00000000000E+00 -0.14506250000E+03  0.14506250000E+03  0.00000000000E+00 0. -1.
         23    2    1    2    0    0  0.63811118016E+02 -0.33691621304E+03  0.35440453259E+03  0.50182716357E+03  0.92970618945E+02 0.  0.
         11    1    3    3    0    0 -0.15304347314E+02 -0.10535442505E+02  0.11445552278E+02  0.21822448589E+02  0.00000000000E+00 0. -1.
        -11    1    3    3    0    0  0.79115465330E+02 -0.32638077053E+03  0.34295898031E+03  0.48000471498E+03  0.00000000000E+00 0.  1.
         22    1    1    2    0    0 -0.63811118016E+02  0.33691621304E+03  0.34064055116E+03  0.48334292018E+03  0.00000000000E+00 0.  1.
<mgrwt>
<rscale>  0 0.69819226E+03</rscale>
<asrwt>0</asrwt>
<pdfrwt beam="1">  1        2 0.12924732E+00 0.69819226E+03</pdfrwt>
<pdfrwt beam="2">  1       -2 0.22317308E-01 0.69819226E+03</pdfrwt>
<totfact> 0.57027963E+02</totfact>
</mgrwt>
</event>
<event>
 6    1  0.5040916E-004  0.7302398E+03  0.7818608E-02  0.9666871E-01
          2   -1    0    0  501    0  0.00000000000E+00  0.00000000000E+00  0.60254510081E+03  0.60254510081E+03  0.00000000000E+00 0.  1.
         -2   -1    0    0    0  501 -0.00000000000E+00 -0.00000000000E+00 -0.22124908309E+03  0.22124908309E+03  0.00000000000E+00 0. -1.
         23    2    1    2    0    0 -0.22298790729E+03  0.26811545680E+03  0.95473988819E+02  0.37290202698E+03  0.91275047051E+02 0.  0.
         13    1    3    3    0    0 -0.79674431342E+02  0.39629549289E+02  0.39910235172E+02  0.97526114749E+02  0.00000000000E+00 0. -1.
        -13    1    3    3    0    0 -0.14331347595E+03  0.22848590751E+03  0.55563753647E+02  0.27537591223E+03  0.00000000000E+00 0.  1.
         22    1    1    2    0    0  0.22298790729E+03 -0.26811545680E+03  0.28582202890E+03  0.45089215693E+03  0.00000000000E+00 0.  1.
<mgrwt>
<rscale>  0 0.73023983E+03</rscale>
<asrwt>0</asrwt>
<pdfrwt beam="1">  1        2 0.92699245E-01 0.73023983E+03</pdfrwt>
<pdfrwt beam="2">  1       -2 0.34038321E-01 0.73023983E+03</pdfrwt>
<totfact> 0.40126729E+02</totfact>
</mgrwt>
</event>
<event>
 6    1  0.5040916E-004  0.1809406E+04  0.7818608E-02  0.8701313E-01
          2   -1    0    0  501    0  0.00000000000E+00  0.00000000000E+00  0.35207561371E+03  0.35207561371E+03  0.00000000000E+00 0.  1.
         -2   -1    0    0    0  501 -0.00000000000E+00 -0.00000000000E+00 -0.23247492814E+04  0.23247492814E+04  0.00000000000E+00 0. -1.
         23    2    1    2    0    0  0.11649061394E+03 -0.57395951355E+03 -0.20039777588E+04  0.20903272119E+04  0.10267136250E+03 0.  0.
         11    1    3    3    0    0  0.62938627503E+02 -0.33256632761E+03 -0.97575403666E+03  0.10327911566E+04  0.00000000000E+00 0. -1.
        -11    1    3    3    0    0  0.53551986438E+02 -0.24139318594E+03 -0.10282237222E+04  0.10575360553E+04  0.00000000000E+00 0.  1.
         22    1    1    2    0    0 -0.11649061394E+03  0.57395951355E+03  0.31304091079E+02  0.58649768324E+03  0.00000000000E+00 0.  1.
<mgrwt>
<rscale>  0 0.18094060E+04</rscale>
<asrwt>0</asrwt>
<pdfrwt beam="1">  1        2 0.54165477E-01 0.18094060E+04</pdfrwt>
<pdfrwt beam="2">  1       -2 0.35765375E+00 0.18094060E+04</pdfrwt>
<totfact> 0.12098947E+00</totfact>
</mgrwt>
</event>
<event>
 6    1  0.5040916E-004  0.1998912E+04  0.7818608E-02  0.8607129E-01
         -2   -1    0    0    0  501 -0.00000000000E+00  0.00000000000E+00  0.53777821433E+03  0.53777821433E+03  0.00000000000E+00 0. -1.
          2   -1    0    0  501    0  0.00000000000E+00 -0.00000000000E+00 -0.18574802132E+04  0.18574802132E+04  0.00000000000E+00 0.  1.
         23    2    1    2    0    0  0.83892778342E+03 -0.43644516311E+03 -0.10409973816E+04  0.14093778720E+04  0.91576368417E+02 0.  0.
         13    1    3    3    0    0  0.59734601593E+03 -0.26336880353E+03 -0.72374080728E+03  0.97467232726E+03  0.00000000000E+00 0. -1.
        -13    1    3    3    0    0  0.24158176750E+03 -0.17307635959E+03 -0.31725657434E+03  0.43470554470E+03  0.00000000000E+00 0.  1.
         22    1    1    2    0    0 -0.83892778342E+03  0.43644516311E+03 -0.27870461728E+03  0.98588055559E+03  0.00000000000E+00 0. -1.
<mgrwt>
<rscale>  0 0.19989121E+04</rscale>
<asrwt>0</asrwt>
<pdfrwt beam="1">  1        2 0.28576619E+00 0.19989121E+04</pdfrwt>
<pdfrwt beam="2">  1       -2 0.82735109E-01 0.19989121E+04</pdfrwt>
<totfact> 0.95434630E+00</totfact>
</mgrwt>
</event>
<event>
 6    1  0.5040916E-004  0.2755810E+04  0.7818608E-02  0.8317120E-01
          2   -1    0    0  501    0  0.00000000000E+00  0.00000000000E+00  0.26112227705E+04  0.26112227705E+04  0.00000000000E+00 0.  1.
         -2   -1    0    0    0  501 -0.00000000000E+00 -0.00000000000E+00 -0.72710078853E+03  0.72710078853E+03  0.00000000000E+00 0. -1.
         23    2    1    2    0    0 -0.28909272659E+03  0.11311525678E+04  0.59376767541E+02  0.11720419906E+04  0.84119503960E+02 0.  0.
         11    1    3    3    0    0 -0.51772033111E+02  0.12546748604E+03  0.25992834229E+02  0.13819573400E+03  0.00000000000E+00 0.  1.
        -11    1    3    3    0    0 -0.23732069348E+03  0.10056850818E+04  0.33383933312E+02  0.10338462566E+04  0.00000000000E+00 0. -1.
         22    1    1    2    0    0  0.28909272659E+03 -0.11311525678E+04  0.18247452144E+04  0.21662815684E+04  0.00000000000E+00 0.  1.
<mgrwt>
<rscale>  0 0.27558100E+04</rscale>
<asrwt>0</asrwt>
<pdfrwt beam="1">  1        2 0.40172657E+00 0.27558100E+04</pdfrwt>
<pdfrwt beam="2">  1       -2 0.11186166E+00 0.27558100E+04</pdfrwt>
<totfact> 0.16506626E+00</totfact>
</mgrwt>
</event>
<event>
 6    1  0.5040916E-004  0.2198958E+04  0.7818608E-02  0.8518862E-01
         -2   -1    0    0    0  501 -0.00000000000E+00  0.00000000000E+00  0.20631475800E+04  0.20631475800E+04  0.00000000000E+00 0. -1.
          2   -1    0    0  501    0  0.00000000000E+00 -0.00000000000E+00 -0.58592692457E+03  0.58592692457E+03  0.00000000000E+00 0.  1.
         23    2    1    2    0    0  0.54666035994E+03  0.89295451347E+03  0.34295991756E+03  0.11054577342E+04  0.90608966536E+02 0.  0.
         13    1    3    3    0    0  0.26802242170E+03  0.43899779612E+03  0.21614915409E+03  0.55792072945E+03  0.00000000000E+00 0. -1.
        -13    1    3    3    0    0  0.27863793824E+03  0.45395671735E+03  0.12681076347E+03  0.54753700476E+03  0.00000000000E+00 0.  1.
         22    1    1    2    0    0 -0.54666035994E+03 -0.89295451347E+03  0.11342607378E+04  0.15436167703E+04  0.00000000000E+00 0.  1.
<mgrwt>
<rscale>  0 0.21989577E+04</rscale>
<asrwt>0</asrwt>
<pdfrwt beam="1">  1        2 0.90142605E-01 0.21989577E+04</pdfrwt>
<pdfrwt beam="2">  1       -2 0.31740732E+00 0.21989577E+04</pdfrwt>
<totfact> 0.11601138E+00</totfact>
</mgrwt>
</event>
<event>
 6    1  0.5040916E-004  0.2040390E+04  0.7818608E-02  0.8587966E-01
         -2   -1    0    0    0  501 -0.00000000000E+00  0.00000000000E+00  0.77871369902E+03  0.77871369902E+03  0.00000000000E+00 0. -1.
          2   -1    0    0  501    0  0.00000000000E+00 -0.00000000000E+00 -0.13365608118E+04  0.13365608118E+04  0.00000000000E+00 0.  1.
         23    2    1    2    0    0  0.25530381879E+03 -0.17507769297E+03 -0.12850802045E+04  0.13248947235E+04  0.89903603121E+02 0.  0.
         11    1    3    3    0    0  0.11774030372E+03 -0.29457676387E+02 -0.44420093174E+03  0.46048344333E+03  0.00000000000E+00 0. -1.
        -11    1    3    3    0    0  0.13756351507E+03 -0.14562001659E+03 -0.84087927277E+03  0.86441128017E+03  0.00000000000E+00 0.  1.
         22    1    1    2    0    0 -0.25530381879E+03  0.17507769297E+03  0.72723309174E+03  0.79037978731E+03  0.00000000000E+00 0. -1.
<mgrwt>
<rscale>  0 0.20403904E+04</rscale>
<asrwt>0</asrwt>
<pdfrwt beam="1">  1        2 0.20562474E+00 0.20403904E+04</pdfrwt>
<pdfrwt beam="2">  1       -2 0.11980211E+00 0.20403904E+04</pdfrwt>
<totfact> 0.77736156E+00</totfact>
</mgrwt>
</event>
<event>
 6    1  0.5040916E-004  0.2632004E+04  0.7818608E-02  0.8357411E-01
          2   -1    0    0  501    0  0.00000000000E+00  0.00000000000E+00  0.19631282876E+04  0.19631282876E+04  0.00000000000E+00 0.  1.
         -2   -1    0    0    0  501 -0.00000000000E+00 -0.00000000000E+00 -0.88219455383E+03  0.88219455383E+03  0.00000000000E+00 0. -1.
         23    2    1    2    0    0  0.16616661294E+03  0.53850064791E+02  0.19494759993E+04  0.19593900901E+04  0.90783703060E+02 0.  0.
         13    1    3    3    0    0  0.84199861145E+02  0.41138576917E+02  0.59095288529E+03  0.59833712216E+03  0.00000000000E+00 0.  1.
        -13    1    3    3    0    0  0.81966751795E+02  0.12711487875E+02  0.13585231140E+04  0.13610529680E+04  0.00000000000E+00 0. -1.
         22    1    1    2    0    0 -0.16616661294E+03 -0.53850064791E+02 -0.86854226555E+03  0.88593275127E+03  0.00000000000E+00 0. -1.
<mgrwt>
<rscale>  0 0.26320039E+04</rscale>
<asrwt>0</asrwt>
<pdfrwt beam="1">  1        2 0.30201974E+00 0.26320039E+04</pdfrwt>
<pdfrwt beam="2">  1       -2 0.13572224E+00 0.26320039E+04</pdfrwt>
<totfact> 0.24049452E+00</totfact>
</mgrwt>
</event>
<event>
 6    1  0.5040916E-004  0.1705699E+04  0.7818608E-02  0.8758121E-01
          2   -1    0    0  501    0  0.00000000000E+00  0.00000000000E+00  0.18816278401E+04  0.18816278401E+04  0.00000000000E+00 0.  1.
         -2   -1    0    0    0  501 -0.00000000000E+00 -0.00000000000E+00 -0.38655475254E+03  0.38655475254E+03  0.00000000000E+00 0. -1.
         23    2    1    2    0    0  0.25588791324E+03  0.18115692869E+03 -0.30136614824E+03  0.44458987910E+03  0.92423743339E+02 0.  0.
         13    1    3    3    0    0  0.90515593882E+02  0.92672765162E+02 -0.71670407516E+02  0.14804715955E+03  0.00000000000E+00 0.  1.
        -13    1    3    3    0    0  0.16537231936E+03  0.88484163532E+02 -0.22969574073E+03  0.29654271955E+03  0.00000000000E+00 0. -1.
         22    1    1    2    0    0 -0.25588791324E+03 -0.18115692869E+03  0.17964392358E+04  0.18235927135E+04  0.00000000000E+00 0.  1.
<mgrwt>
<rscale>  0 0.17056989E+04</rscale>
<asrwt>0</asrwt>
<pdfrwt beam="1">  1        2 0.28948120E+00 0.17056989E+04</pdfrwt>
<pdfrwt beam="2">  1       -2 0.59469963E-01 0.17056989E+04</pdfrwt>
<totfact> 0.19512038E+01</totfact>
</mgrwt>
</event>
<event>
 6    1  0.5040916E-004  0.5410385E+04  0.7818608E-02  0.7768142E-01
          1   -1    0    0  501    0  0.00000000000E+00  0.00000000000E+00  0.19395314894E+04  0.19395314894E+04  0.00000000000E+00 0.  1.
         -1   -1    0    0    0  501 -0.00000000000E+00 -0.00000000000E+00 -0.37731110083E+04  0.37731110083E+04  0.00000000000E+00 0. -1.
         23    2    1    2    0    0  0.71737451832E+03  0.19849569470E+04  0.86841286012E+03  0.22840213322E+04  0.89063288594E+02 0.  0.
         13    1    3    3    0    0  0.29897115412E+03  0.74690954315E+03  0.29474576896E+03  0.85681543226E+03  0.00000000000E+00 0. -1.
        -13    1    3    3    0    0  0.41840336421E+03  0.12380474038E+04  0.57366709116E+03  0.14272058999E+04  0.00000000000E+00 0.  1.
         22    1    1    2    0    0 -0.71737451832E+03 -0.19849569470E+04 -0.27019923790E+04  0.34286211656E+04  0.00000000000E+00 0. -1.
<mgrwt>
<rscale>  0 0.54103854E+04</rscale>
<asrwt>0</asrwt>
<pdfrwt beam="1">  1        1 0.29838947E+00 0.54103854E+04</pdfrwt>
<pdfrwt beam="2">  1       -1 0.58047861E+00 0.54103854E+04</pdfrwt>
<totfact> 0.12378106E-03</totfact>
</mgrwt>
</event>
<event>
 6    1  0.5040916E-004  0.7115110E+03  0.7818608E-02  0.9697747E-01
          2   -1    0    0  501    0  0.00000000000E+00  0.00000000000E+00  0.59527768165E+03  0.59527768165E+03  0.00000000000E+00 0.  1.
         -2   -1    0    0    0  501 -0.00000000000E+00 -0.00000000000E+00 -0.21260995183E+03  0.21260995183E+03  0.00000000000E+00 0. -1.
         23    2    1    2    0    0 -0.51670823463E+02  0.25900449323E+03 -0.66889456190E+02  0.28649060145E+03  0.88597200053E+02 0.  0.
         11    1    3    3    0    0  0.14795602370E+02  0.10161805693E+03 -0.51703453111E+02  0.11497124165E+03  0.00000000000E+00 0.  1.
        -11    1    3    3    0    0 -0.66466425833E+02  0.15738643631E+03 -0.15186003079E+02  0.17151935980E+03  0.00000000000E+00 0. -1.
         22    1    1    2    0    0  0.51670823463E+02 -0.25900449323E+03  0.44955718601E+03  0.52139703203E+03  0.00000000000E+00 0.  1.
<mgrwt>
<rscale>  0 0.71151095E+03</rscale>
<asrwt>0</asrwt>
<pdfrwt beam="1">  1        2 0.91581182E-01 0.71151095E+03</pdfrwt>
<pdfrwt beam="2">  1       -2 0.32709223E-01 0.71151095E+03</pdfrwt>
<totfact> 0.43922140E+02</totfact>
</mgrwt>
</event>
<event>
 6    1  0.5040916E-004  0.2710611E+04  0.7818608E-02  0.8331570E-01
          2   -1    0    0  501    0  0.00000000000E+00  0.00000000000E+00  0.24954004008E+04  0.24954004008E+04  0.00000000000E+00 0.  1.
         -2   -1    0    0    0  501 -0.00000000000E+00 -0.00000000000E+00 -0.73609551544E+03  0.73609551544E+03  0.00000000000E+00 0. -1.
         23    2    1    2    0    0  0.35099074472E+03 -0.97131449918E+03  0.19240768185E+04  0.21856488197E+04  0.91338932456E+02 0.  0.
         11    1    3    3    0    0  0.37734831868E+02 -0.16353847201E+03  0.37254709191E+03  0.40860749510E+03  0.00000000000E+00 0. -1.
        -11    1    3    3    0    0  0.31325591286E+03 -0.80777602716E+03  0.15515297266E+04  0.17770413246E+04  0.00000000000E+00 0.  1.
         22    1    1    2    0    0 -0.35099074472E+03  0.97131449918E+03 -0.16477193318E+03  0.10458470965E+04  0.00000000000E+00 0. -1.
<mgrwt>
<rscale>  0 0.27106110E+04</rscale>
<asrwt>0</asrwt>
<pdfrwt beam="1">  1        2 0.38390775E+00 0.27106110E+04</pdfrwt>
<pdfrwt beam="2">  1       -2 0.11324547E+00 0.27106110E+04</pdfrwt>
<totfact> 0.18790622E+00</totfact>
</mgrwt>
</event>
<event>
 6    1  0.5040916E-004  0.1805083E+04  0.7818608E-02  0.8703601E-01
         -2   -1    0    0    0  501 -0.00000000000E+00  0.00000000000E+00  0.26884625160E+03  0.26884625160E+03  0.00000000000E+00 0. -1.
          2   -1    0    0  501    0  0.00000000000E+00 -0.00000000000E+00 -0.30299136211E+04  0.30299136211E+04  0.00000000000E+00 0.  1.
         23    2    1    2    0    0  0.81360036806E+03 -0.28916974864E+03 -0.91895031660E+03  0.12643164749E+04  0.91987834880E+02 0.  0.
         11    1    3    3    0    0  0.54931065137E+03 -0.16381841892E+03 -0.65398960149E+03  0.86964421745E+03  0.00000000000E+00 0.  1.
        -11    1    3    3    0    0  0.26428971670E+03 -0.12535132972E+03 -0.26496071511E+03  0.39467225741E+03  0.00000000000E+00 0. -1.
         22    1    1    2    0    0 -0.81360036806E+03  0.28916974864E+03 -0.18421170529E+04  0.20344433979E+04  0.00000000000E+00 0.  1.
<mgrwt>
<rscale>  0 0.18050827E+04</rscale>
<asrwt>0</asrwt>
<pdfrwt beam="1">  1        2 0.46614055E+00 0.18050827E+04</pdfrwt>
<pdfrwt beam="2">  1       -2 0.41360962E-01 0.18050827E+04</pdfrwt>
<totfact> 0.87482278E+00</totfact>
</mgrwt>
</event>
<event>
 6    1  0.5040916E-004  0.1260272E+04  0.7818608E-02  0.9061677E-01
         -2   -1    0    0    0  501 -0.00000000000E+00  0.00000000000E+00  0.50964677535E+03  0.50964677535E+03  0.00000000000E+00 0. -1.
          2   -1    0    0  501    0  0.00000000000E+00 -0.00000000000E+00 -0.77911103743E+03  0.77911103743E+03  0.00000000000E+00 0.  1.
         23    2    1    2    0    0  0.14840628813E+03  0.30366551510E+03 -0.67538575565E+03  0.76054438020E+03  0.89692050387E+02 0.  0.
         13    1    3    3    0    0  0.12396219775E+03  0.23772213820E+03 -0.44359580779E+03  0.51832005764E+03  0.00000000000E+00 0.  1.
        -13    1    3    3    0    0  0.24444090378E+02  0.65943376897E+02 -0.23178994786E+03  0.24222432256E+03  0.00000000000E+00 0. -1.
         22    1    1    2    0    0 -0.14840628813E+03 -0.30366551510E+03  0.40592149357E+03  0.52821343258E+03  0.00000000000E+00 0. -1.
<mgrwt>
<rscale>  0 0.12602721E+04</rscale>
<asrwt>0</asrwt>
<pdfrwt beam="1">  1        2 0.11986324E+00 0.12602721E+04</pdfrwt>
<pdfrwt beam="2">  1       -2 0.78407197E-01 0.12602721E+04</pdfrwt>
<totfact> 0.50730507E+01</totfact>
</mgrwt>
</event>
<event>
 6    1  0.5040916E-004  0.2421578E+04  0.7818608E-02  0.8431469E-01
         -2   -1    0    0    0  501 -0.00000000000E+00  0.00000000000E+00  0.12394346183E+04  0.12394346183E+04  0.00000000000E+00 0. -1.
          2   -1    0    0  501    0  0.00000000000E+00 -0.00000000000E+00 -0.11828052052E+04  0.11828052052E+04  0.00000000000E+00 0.  1.
         23    2    1    2    0    0  0.10422934458E+04  0.60484610302E+03 -0.70083296899E+02  0.12105176827E+04  0.90702569725E+02 0.  0.
         11    1    3    3    0    0  0.67261037520E+03  0.34986739706E+03 -0.17536546282E+02  0.75836629857E+03  0.00000000000E+00 0. -1.
        -11    1    3    3    0    0  0.36968307064E+03  0.25497870596E+03 -0.52546750616E+02  0.45215138418E+03  0.00000000000E+00 0.  1.
         22    1    1    2    0    0 -0.10422934458E+04 -0.60484610302E+03  0.12671270999E+03  0.12117221408E+04  0.00000000000E+00 0.  1.
<mgrwt>
<rscale>  0 0.24215778E+04</rscale>
<asrwt>0</asrwt>
<pdfrwt beam="1">  1        2 0.18197003E+00 0.24215778E+04</pdfrwt>
<pdfrwt beam="2">  1       -2 0.19068225E+00 0.24215778E+04</pdfrwt>
<totfact> 0.26703064E+00</totfact>
</mgrwt>
</event>
<event>
 6    1  0.5040916E-004  0.2013237E+04  0.7818608E-02  0.8600457E-01
          2   -1    0    0  501    0  0.00000000000E+00  0.00000000000E+00  0.33553271882E+03  0.33553271882E+03  0.00000000000E+00 0.  1.
         -2   -1    0    0    0  501 -0.00000000000E+00 -0.00000000000E+00 -0.30199170462E+04  0.30199170462E+04  0.00000000000E+00 0. -1.
         23    2    1    2    0    0  0.90980731672E+03  0.39408475988E+03 -0.10759632239E+04  0.14659867202E+04  0.91477063663E+02 0.  0.
         13    1    3    3    0    0  0.38118933145E+03  0.21219904368E+03 -0.45121870100E+03  0.62764006937E+03  0.00000000000E+00 0. -1.
        -13    1    3    3    0    0  0.52861798527E+03  0.18188571620E+03 -0.62474452291E+03  0.83834665086E+03  0.00000000000E+00 0.  1.
         22    1    1    2    0    0 -0.90980731672E+03 -0.39408475988E+03 -0.16084211035E+04  0.18894630448E+04  0.00000000000E+00 0.  1.
<mgrwt>
<rscale>  0 0.20132372E+04</rscale>
<asrwt>0</asrwt>
<pdfrwt beam="1">  1        2 0.51620418E-01 0.20132372E+04</pdfrwt>
<pdfrwt beam="2">  1       -2 0.46460263E+00 0.20132372E+04</pdfrwt>
<totfact> 0.25020341E-01</totfact>
</mgrwt>
</event>
<event>
 6    1  0.5040916E-004  0.2929930E+04  0.7818608E-02  0.8264028E-01
         -2   -1    0    0    0  501 -0.00000000000E+00  0.00000000000E+00  0.12377839688E+04  0.12377839688E+04  0.00000000000E+00 0. -1.
          2   -1    0    0  501    0  0.00000000000E+00 -0.00000000000E+00 -0.17338427853E+04  0.17338427853E+04  0.00000000000E+00 0.  1.
         23    2    1    2    0    0  0.10562659839E+03 -0.11545603592E+04  0.65777863368E+03  0.13359289021E+04  0.88694414259E+02 0.  0.
         11    1    3    3    0    0  0.27264142520E+02 -0.13755893187E+03  0.10931465178E+03  0.17780744163E+03  0.00000000000E+00 0.  1.
        -11    1    3    3    0    0  0.78362455867E+02 -0.10170014274E+04  0.54846398190E+03  0.11581214605E+04  0.00000000000E+00 0. -1.
         22    1    1    2    0    0 -0.10562659839E+03  0.11545603592E+04 -0.11538374502E+04  0.16356978520E+04  0.00000000000E+00 0.  1.
<mgrwt>
<rscale>  0 0.29299302E+04</rscale>
<asrwt>0</asrwt>
<pdfrwt beam="1">  1        2 0.26674504E+00 0.29299302E+04</pdfrwt>
<pdfrwt beam="2">  1       -2 0.19042830E+00 0.29299302E+04</pdfrwt>
<totfact> 0.12450769E+00</totfact>
</mgrwt>
</event>
<event>
 6    1  0.5040916E-004  0.2185550E+04  0.7818608E-02  0.8524466E-01
         -2   -1    0    0    0  501 -0.00000000000E+00  0.00000000000E+00  0.13476655811E+04  0.13476655811E+04  0.00000000000E+00 0. -1.
          2   -1    0    0  501    0  0.00000000000E+00 -0.00000000000E+00 -0.88609345615E+03  0.88609345615E+03  0.00000000000E+00 0.  1.
         23    2    1    2    0    0  0.17950931810E+03 -0.43623246400E+03  0.12364871175E+04  0.13265569629E+04  0.91272264148E+02 0.  0.
         11    1    3    3    0    0  0.10439782924E+03 -0.18596613727E+03  0.66040471085E+03  0.69398608997E+03  0.00000000000E+00 0. -1.
        -11    1    3    3    0    0  0.75111488859E+02 -0.25026632673E+03  0.57608240665E+03  0.63257087295E+03  0.00000000000E+00 0.  1.
         22    1    1    2    0    0 -0.17950931810E+03  0.43623246400E+03 -0.77491499256E+03  0.90720207431E+03  0.00000000000E+00 0.  1.
<mgrwt>
<rscale>  0 0.21855504E+04</rscale>
<asrwt>0</asrwt>
<pdfrwt beam="1">  1        2 0.13632207E+00 0.21855504E+04</pdfrwt>
<pdfrwt beam="2">  1       -2 0.20733317E+00 0.21855504E+04</pdfrwt>
<totfact> 0.32660368E+00</totfact>
</mgrwt>
</event>
<event>
 6    1  0.5040916E-004  0.6945261E+04  0.7818608E-02  0.7583107E-01
         -2   -1    0    0    0  501 -0.00000000000E+00  0.00000000000E+00  0.41976126569E+04  0.41976126569E+04  0.00000000000E+00 0.  1.
          2   -1    0    0  501    0  0.00000000000E+00 -0.00000000000E+00 -0.28728624088E+04  0.28728624088E+04  0.00000000000E+00 0. -1.
         23    2    1    2    0    0  0.10119182658E+04  0.20615403328E+04 -0.19884687789E+04  0.30391790655E+04  0.93135316481E+02 0.  0.
         11    1    3    3    0    0  0.48047408358E+03  0.90826137394E+03 -0.93482427314E+03  0.13891329994E+04  0.00000000000E+00 0.  1.
        -11    1    3    3    0    0  0.53144418220E+03  0.11532789589E+04 -0.10536445058E+04  0.16500460661E+04  0.00000000000E+00 0. -1.
         22    1    1    2    0    0 -0.10119182658E+04 -0.20615403328E+04  0.33132190270E+04  0.40312960002E+04  0.00000000000E+00 0.  1.
<mgrwt>
<rscale>  0 0.69452613E+04</rscale>
<asrwt>0</asrwt>
<pdfrwt beam="1">  1        2 0.44197883E+00 0.69452613E+04</pdfrwt>
<pdfrwt beam="2">  1       -2 0.64578656E+00 0.69452613E+04</pdfrwt>
<totfact> 0.46720168E-04</totfact>
</mgrwt>
</event>
<event>
 6    1  0.5040916E-004  0.1239382E+04  0.7818608E-02  0.9079067E-01
         -2   -1    0    0    0  501 -0.00000000000E+00  0.00000000000E+00  0.98345021611E+02  0.98345021611E+02  0.00000000000E+00 0. -1.
          2   -1    0    0  501    0  0.00000000000E+00 -0.00000000000E+00 -0.39047914077E+04  0.39047914077E+04  0.00000000000E+00 0.  1.
         23    2    1    2    0    0 -0.29311365216E+03 -0.80824945634E+02 -0.36449164857E+04  0.36588397642E+04  0.96145448927E+02 0.  0.
         11    1    3    3    0    0 -0.20881332527E+03 -0.11237206938E+02 -0.22981801261E+04  0.23076744076E+04  0.00000000000E+00 0. -1.
        -11    1    3    3    0    0 -0.84300326885E+02 -0.69587738696E+02 -0.13467363596E+04  0.13511653566E+04  0.00000000000E+00 0.  1.
         22    1    1    2    0    0  0.29311365216E+03  0.80824945634E+02 -0.16152990045E+03  0.34429666518E+03  0.00000000000E+00 0. -1.
<mgrwt>
<rscale>  0 0.12393818E+04</rscale>
<asrwt>0</asrwt>
<pdfrwt beam="1">  1        2 0.60073704E+00 0.12393818E+04</pdfrwt>
<pdfrwt beam="2">  1       -2 0.15130006E-01 0.12393818E+04</pdfrwt>
<totfact> 0.14367024E+01</totfact>
</mgrwt>
</event>
<event>
 6    1  0.5040916E-004  0.1022852E+04  0.7818608E-02  0.9283830E-01
         -2   -1    0    0    0  501 -0.00000000000E+00  0.00000000000E+00  0.27043368201E+03  0.27043368201E+03  0.00000000000E+00 0. -1.
          2   -1    0    0  501    0  0.00000000000E+00 -0.00000000000E+00 -0.96717471117E+03  0.96717471117E+03  0.00000000000E+00 0.  1.
         23    2    1    2    0    0  0.18545927922E+03 -0.35029278762E+03 -0.73459404827E+03  0.83944632523E+03  0.89115295377E+02 0.  0.
         11    1    3    3    0    0  0.63013522358E+02 -0.93384421434E+02 -0.13568161378E+03  0.17635434354E+03  0.00000000000E+00 0. -1.
        -11    1    3    3    0    0  0.12244575686E+03 -0.25690836618E+03 -0.59891243449E+03  0.66309198169E+03  0.00000000000E+00 0.  1.
         22    1    1    2    0    0 -0.18545927922E+03  0.35029278762E+03  0.37853019112E+02  0.39816206796E+03  0.00000000000E+00 0. -1.
<mgrwt>
<rscale>  0 0.10228521E+04</rscale>
<asrwt>0</asrwt>
<pdfrwt beam="1">  1        2 0.14879611E+00 0.10228521E+04</pdfrwt>
<pdfrwt beam="2">  1       -2 0.41605182E-01 0.10228521E+04</pdfrwt>
<totfact> 0.14429111E+02</totfact>
</mgrwt>
</event>
<event>
 6    1  0.5040916E-004  0.7674529E+03  0.7818608E-02  0.9608360E-01
          2   -1    0    0  501    0  0.00000000000E+00  0.00000000000E+00  0.53632650602E+03  0.53632650602E+03  0.00000000000E+00 0.  1.
         -2   -1    0    0    0  501 -0.00000000000E+00 -0.00000000000E+00 -0.27454542579E+03  0.27454542579E+03  0.00000000000E+00 0. -1.
         23    2    1    2    0    0  0.19503335144E+03  0.32139790298E+03  0.17747632135E+03  0.42559033014E+03  0.91075047410E+02 0.  0.
         11    1    3    3    0    0  0.77753334501E+02  0.16848663387E+03  0.42652057324E+02  0.19040095801E+03  0.00000000000E+00 0. -1.
        -11    1    3    3    0    0  0.11728001694E+03  0.15291126911E+03  0.13482426402E+03  0.23518937213E+03  0.00000000000E+00 0.  1.
         22    1    1    2    0    0 -0.19503335144E+03 -0.32139790298E+03  0.84304758882E+02  0.38528160166E+03  0.00000000000E+00 0. -1.
<mgrwt>
<rscale>  0 0.76745290E+03</rscale>
<asrwt>0</asrwt>
<pdfrwt beam="1">  1        2 0.82511770E-01 0.76745290E+03</pdfrwt>
<pdfrwt beam="2">  1       -2 0.42237758E-01 0.76745290E+03</pdfrwt>
<totfact> 0.30347304E+02</totfact>
</mgrwt>
</event>
<event>
 6    1  0.5040916E-004  0.4531596E+04  0.7818608E-02  0.7905129E-01
          2   -1    0    0  501    0  0.00000000000E+00  0.00000000000E+00  0.24554013323E+04  0.24554013323E+04  0.00000000000E+00 0.  1.
         -2   -1    0    0    0  501 -0.00000000000E+00 -0.00000000000E+00 -0.20908355483E+04  0.20908355483E+04  0.00000000000E+00 0. -1.
         23    2    1    2    0    0 -0.16288499443E+04  0.16841757722E+03 -0.13873762192E+04  0.21481506845E+04  0.90675069880E+02 0.  0.
         13    1    3    3    0    0 -0.15161214085E+04  0.17903322624E+03 -0.12838700919E+04  0.19947429495E+04  0.00000000000E+00 0. -1.
        -13    1    3    3    0    0 -0.11272853577E+03 -0.10615649018E+02 -0.10350612731E+03  0.15340773505E+03  0.00000000000E+00 0.  1.
         22    1    1    2    0    0  0.16288499443E+04 -0.16841757722E+03  0.17519420032E+04  0.23980861961E+04  0.00000000000E+00 0.  1.
<mgrwt>
<rscale>  0 0.45315959E+04</rscale>
<asrwt>0</asrwt>
<pdfrwt beam="1">  1        2 0.37775405E+00 0.45315959E+04</pdfrwt>
<pdfrwt beam="2">  1       -2 0.32166701E+00 0.45315959E+04</pdfrwt>
<totfact> 0.65284675E-02</totfact>
</mgrwt>
</event>
<event>
 6    1  0.5040916E-004  0.3743952E+04  0.7818608E-02  0.8058291E-01
          2   -1    0    0  501    0  0.00000000000E+00  0.00000000000E+00  0.20868546037E+04  0.20868546037E+04  0.00000000000E+00 0.  1.
         -2   -1    0    0    0  501 -0.00000000000E+00 -0.00000000000E+00 -0.16792225533E+04  0.16792225533E+04  0.00000000000E+00 0. -1.
         23    2    1    2    0    0  0.74585453626E+03  0.54034379949E+03 -0.14341602490E+04  0.17068371795E+04  0.90593192373E+02 0.  0.
         13    1    3    3    0    0  0.66377958833E+03  0.47907310614E+03 -0.12165054302E+04  0.14662877769E+04  0.00000000000E+00 0. -1.
        -13    1    3    3    0    0  0.82074947933E+02  0.61270693349E+02 -0.21765481882E+03  0.24054940261E+03  0.00000000000E+00 0.  1.
         22    1    1    2    0    0 -0.74585453626E+03 -0.54034379949E+03  0.18417922994E+04  0.20592399775E+04  0.00000000000E+00 0.  1.
<mgrwt>
<rscale>  0 0.37439516E+04</rscale>
<asrwt>0</asrwt>
<pdfrwt beam="1">  1        2 0.32105455E+00 0.37439516E+04</pdfrwt>
<pdfrwt beam="2">  1       -2 0.25834193E+00 0.37439516E+04</pdfrwt>
<totfact> 0.27494603E-01</totfact>
</mgrwt>
</event>
<event>
 6    1  0.5040916E-004  0.2098162E+04  0.7818608E-02  0.8562053E-01
         -2   -1    0    0    0  501 -0.00000000000E+00  0.00000000000E+00  0.16733070920E+04  0.16733070920E+04  0.00000000000E+00 0. -1.
          2   -1    0    0  501    0  0.00000000000E+00 -0.00000000000E+00 -0.65772202327E+03  0.65772202327E+03  0.00000000000E+00 0.  1.
         23    2    1    2    0    0  0.28559970748E+03  0.94842267986E+03  0.88601947573E+03  0.13320996806E+04  0.91576608213E+02 0.  0.
         13    1    3    3    0    0  0.11230950247E+02  0.11285018830E+03  0.12831436287E+03  0.17124799258E+03  0.00000000000E+00 0.  1.
        -13    1    3    3    0    0  0.27436875724E+03  0.83557249155E+03  0.75770511285E+03  0.11608516880E+04  0.00000000000E+00 0. -1.
         22    1    1    2    0    0 -0.28559970748E+03 -0.94842267986E+03  0.12956559304E+03  0.99892943468E+03  0.00000000000E+00 0.  1.
<mgrwt>
<rscale>  0 0.20981620E+04</rscale>
<asrwt>0</asrwt>
<pdfrwt beam="1">  1        2 0.10118800E+00 0.20981620E+04</pdfrwt>
<pdfrwt beam="2">  1       -2 0.25743186E+00 0.20981620E+04</pdfrwt>
<totfact> 0.23622863E+00</totfact>
</mgrwt>
</event>
<event>
 6    1  0.5040916E-004  0.2839584E+04  0.7818608E-02  0.8291084E-01
          2   -1    0    0  501    0  0.00000000000E+00  0.00000000000E+00  0.11606210485E+04  0.11606210485E+04  0.00000000000E+00 0.  1.
         -2   -1    0    0    0  501 -0.00000000000E+00 -0.00000000000E+00 -0.17368363517E+04  0.17368363517E+04  0.00000000000E+00 0. -1.
         23    2    1    2    0    0 -0.13140039390E+04  0.57185816671E+02 -0.82994521853E+03  0.15579591960E+04  0.92472813438E+02 0.  0.
         13    1    3    3    0    0 -0.73663704810E+03  0.41356813416E+02 -0.41217135893E+03  0.84512114858E+03  0.00000000000E+00 0. -1.
        -13    1    3    3    0    0 -0.57736689087E+03  0.15829003255E+02 -0.41777385960E+03  0.71283804737E+03  0.00000000000E+00 0.  1.
         22    1    1    2    0    0  0.13140039390E+04 -0.57185816671E+02  0.25372991528E+03  0.13394982042E+04  0.00000000000E+00 0.  1.
<mgrwt>
<rscale>  0 0.28395837E+04</rscale>
<asrwt>0</asrwt>
<pdfrwt beam="1">  1        2 0.17855708E+00 0.28395837E+04</pdfrwt>
<pdfrwt beam="2">  1       -2 0.26720559E+00 0.28395837E+04</pdfrwt>
<totfact> 0.87459269E-01</totfact>
</mgrwt>
</event>
<event>
 6    1  0.5040916E-004  0.1224608E+04  0.7818608E-02  0.9091586E-01
          2   -1    0    0  501    0  0.00000000000E+00  0.00000000000E+00  0.13152136241E+04  0.13152136241E+04  0.00000000000E+00 0.  1.
         -2   -1    0    0    0  501 -0.00000000000E+00 -0.00000000000E+00 -0.28506090512E+03  0.28506090512E+03  0.00000000000E+00 0. -1.
         23    2    1    2    0    0  0.14409390071E+03  0.56370121958E+03  0.74781926356E+03  0.95356416340E+03  0.10737246197E+03 0.  0.
         11    1    3    3    0    0  0.28270291327E+02  0.56046234002E+02  0.38486903727E+02  0.73631728732E+02  0.00000000000E+00 0.  1.
        -11    1    3    3    0    0  0.11582360938E+03  0.50765498558E+03  0.70933235984E+03  0.87993243467E+03  0.00000000000E+00 0. -1.
         22    1    1    2    0    0 -0.14409390071E+03 -0.56370121958E+03  0.28233345537E+03  0.64671036577E+03  0.00000000000E+00 0. -1.
<mgrwt>
<rscale>  0 0.12246077E+04</rscale>
<asrwt>0</asrwt>
<pdfrwt beam="1">  1        2 0.20234055E+00 0.12246077E+04</pdfrwt>
<pdfrwt beam="2">  1       -2 0.43855525E-01 0.12246077E+04</pdfrwt>
<totfact> 0.78637784E+01</totfact>
</mgrwt>
</event>
<event>
 6    1  0.5040916E-004  0.1570257E+04  0.7818608E-02  0.8839031E-01
          2   -1    0    0  501    0  0.00000000000E+00  0.00000000000E+00  0.56053540839E+03  0.56053540839E+03  0.00000000000E+00 0.  1.
         -2   -1    0    0    0  501 -0.00000000000E+00 -0.00000000000E+00 -0.10997109703E+04  0.10997109703E+04  0.00000000000E+00 0. -1.
         23    2    1    2    0    0  0.27622093873E+03 -0.96304244019E+02 -0.10381257133E+04  0.10818660817E+04  0.84597327489E+02 0.  0.
         11    1    3    3    0    0  0.14085636259E+03 -0.80405681209E+01 -0.54339828700E+03  0.56141505495E+03  0.00000000000E+00 0. -1.
        -11    1    3    3    0    0  0.13536457613E+03 -0.88263675898E+02 -0.49472742626E+03  0.52045102675E+03  0.00000000000E+00 0.  1.
         22    1    1    2    0    0 -0.27622093873E+03  0.96304244019E+02  0.49895015135E+03  0.57838029698E+03  0.00000000000E+00 0.  1.
<mgrwt>
<rscale>  0 0.15702572E+04</rscale>
<asrwt>0</asrwt>
<pdfrwt beam="1">  1        2 0.86236218E-01 0.15702572E+04</pdfrwt>
<pdfrwt beam="2">  1       -2 0.16918630E+00 0.15702572E+04</pdfrwt>
<totfact> 0.11162796E+01</totfact>
</mgrwt>
</event>
<event>
 6    1  0.5040916E-004  0.1056778E+04  0.7818608E-02  0.9248374E-01
         -2   -1    0    0    0  501 -0.00000000000E+00  0.00000000000E+00  0.11821412326E+03  0.11821412326E+03  0.00000000000E+00 0. -1.
          2   -1    0    0  501    0  0.00000000000E+00 -0.00000000000E+00 -0.23617733806E+04  0.23617733806E+04  0.00000000000E+00 0.  1.
         23    2    1    2    0    0  0.12739472363E+03 -0.39402891556E+03 -0.18856803481E+04  0.19326617183E+04  0.88897357381E+02 0.  0.
         11    1    3    3    0    0  0.80088226470E+01 -0.16424036073E+03 -0.75831860659E+03  0.77594210250E+03  0.00000000000E+00 0.  1.
        -11    1    3    3    0    0  0.11938590098E+03 -0.22978855483E+03 -0.11273617415E+04  0.11567196158E+04  0.00000000000E+00 0. -1.
         22    1    1    2    0    0 -0.12739472363E+03  0.39402891556E+03 -0.35787890928E+03  0.54732578563E+03  0.00000000000E+00 0. -1.
<mgrwt>
<rscale>  0 0.10567781E+04</rscale>
<asrwt>0</asrwt>
<pdfrwt beam="1">  1        2 0.36334973E+00 0.10567781E+04</pdfrwt>
<pdfrwt beam="2">  1       -2 0.18186789E-01 0.10567781E+04</pdfrwt>
<totfact> 0.10583287E+02</totfact>
</mgrwt>
</event>
<event>
 6    1  0.7916584E-004  0.3654990E+04  0.7818608E-02  0.8078010E-01
         -2   -1    0    0    0  501 -0.00000000000E+00  0.00000000000E+00  0.12772647884E+04  0.12772647884E+04  0.00000000000E+00 0. -1.
          2   -1    0    0  501    0  0.00000000000E+00 -0.00000000000E+00 -0.26147576328E+04  0.26147576328E+04  0.00000000000E+00 0.  1.
         23    2    1    2    0    0 -0.16800441455E+04  0.32809622392E+02  0.92879346035E+02  0.16853078032E+04  0.89504282067E+02 0.  0.
         13    1    3    3    0    0 -0.68137715539E+03 -0.19240694937E+01  0.78963753758E+02  0.68594008801E+03  0.00000000000E+00 0. -1.
        -13    1    3    3    0    0 -0.99866699013E+03  0.34733691886E+02  0.13915592276E+02  0.99936771522E+03  0.00000000000E+00 0.  1.
         22    1    1    2    0    0  0.16800441455E+04 -0.32809622392E+02 -0.14303721904E+04  0.22067146180E+04  0.00000000000E+00 0.  1.
<mgrwt>
<rscale>  0 0.36549899E+04</rscale>
<asrwt>0</asrwt>
<pdfrwt beam="1">  1        2 0.40227040E+00 0.36549899E+04</pdfrwt>
<pdfrwt beam="2">  1       -2 0.19650228E+00 0.36549899E+04</pdfrwt>
<totfact> 0.33942038E-01</totfact>
</mgrwt>
</event>
<event>
 6    1  0.5040916E-004  0.1040877E+04  0.7818608E-02  0.9264814E-01
          2   -1    0    0  501    0  0.00000000000E+00  0.00000000000E+00  0.34550323104E+03  0.34550323104E+03  0.00000000000E+00 0.  1.
         -2   -1    0    0    0  501 -0.00000000000E+00 -0.00000000000E+00 -0.78394676661E+03  0.78394676661E+03  0.00000000000E+00 0. -1.
         23    2    1    2    0    0  0.12978210506E+03  0.44907678650E+03  0.17260730669E+02  0.47662557008E+03  0.91436569607E+02 0.  0.
         13    1    3    3    0    0 -0.33021733797E+01  0.50299345839E+02  0.24759690747E+02  0.56160224596E+02  0.00000000000E+00 0.  1.
        -13    1    3    3    0    0  0.13308427844E+03  0.39877744066E+03 -0.74989600787E+01  0.42046534548E+03  0.00000000000E+00 0. -1.
         22    1    1    2    0    0 -0.12978210506E+03 -0.44907678650E+03 -0.45570426624E+03  0.65282442757E+03  0.00000000000E+00 0.  1.
<mgrwt>
<rscale>  0 0.10408768E+04</rscale>
<asrwt>0</asrwt>
<pdfrwt beam="1">  1        2 0.53154344E-01 0.10408768E+04</pdfrwt>
<pdfrwt beam="2">  1       -2 0.12060719E+00 0.10408768E+04</pdfrwt>
<totfact> 0.48957068E+01</totfact>
</mgrwt>
</event>
<event>
 6    1  0.5040916E-004  0.5144350E+04  0.7818608E-02  0.7806618E-01
          2   -1    0    0  501    0  0.00000000000E+00  0.00000000000E+00  0.30400791077E+04  0.30400791077E+04  0.00000000000E+00 0.  1.
         -2   -1    0    0    0  501 -0.00000000000E+00 -0.00000000000E+00 -0.21762869018E+04  0.21762869018E+04  0.00000000000E+00 0. -1.
         23    2    1    2    0    0  0.22902404391E+04 -0.23484124509E+03  0.15933382088E+04  0.28012906381E+04  0.90282403219E+02 0.  0.
         11    1    3    3    0    0  0.19077385787E+04 -0.16531504299E+03  0.13056872183E+04  0.23176744077E+04  0.00000000000E+00 0.  1.
        -11    1    3    3    0    0  0.38250186037E+03 -0.69526202097E+02  0.28765099049E+03  0.48361623038E+03  0.00000000000E+00 0. -1.
         22    1    1    2    0    0 -0.22902404391E+04  0.23484124509E+03 -0.72954600289E+03  0.24150753714E+04  0.00000000000E+00 0. -1.
<mgrwt>
<rscale>  0 0.51443500E+04</rscale>
<asrwt>0</asrwt>
<pdfrwt beam="1">  1        2 0.46770448E+00 0.51443500E+04</pdfrwt>
<pdfrwt beam="2">  1       -2 0.33481337E+00 0.51443500E+04</pdfrwt>
<totfact> 0.22896613E-02</totfact>
</mgrwt>
</event>
<event>
 6    1  0.5040916E-004  0.3618986E+04  0.7818608E-02  0.8086157E-01
         -2   -1    0    0    0  501 -0.00000000000E+00  0.00000000000E+00  0.15591025743E+04  0.15591025743E+04  0.00000000000E+00 0. -1.
          2   -1    0    0  501    0  0.00000000000E+00 -0.00000000000E+00 -0.21000956151E+04  0.21000956151E+04  0.00000000000E+00 0.  1.
         23    2    1    2    0    0  0.17226403128E+04 -0.45024563562E+03  0.48706117647E+02  0.17835767252E+04  0.92535772699E+02 0.  0.
         11    1    3    3    0    0  0.13606939630E+03 -0.61977275811E+02  0.31577596087E+01  0.14955278257E+03  0.00000000000E+00 0. -1.
        -11    1    3    3    0    0  0.15865709165E+04 -0.38826835981E+03  0.45548358038E+02  0.16340239426E+04  0.00000000000E+00 0.  1.
         22    1    1    2    0    0 -0.17226403128E+04  0.45024563562E+03 -0.58969915841E+03  0.18756214642E+04  0.00000000000E+00 0.  1.
<mgrwt>
<rscale>  0 0.36189858E+04</rscale>
<asrwt>0</asrwt>
<pdfrwt beam="1">  1        2 0.32309163E+00 0.36189858E+04</pdfrwt>
<pdfrwt beam="2">  1       -2 0.23986194E+00 0.36189858E+04</pdfrwt>
<totfact> 0.35487667E-01</totfact>
</mgrwt>
</event>
<event>
 6    1  0.5040916E-004  0.3345731E+04  0.7818608E-02  0.8151356E-01
         -2   -1    0    0    0  501 -0.00000000000E+00  0.00000000000E+00  0.10634833278E+04  0.10634833278E+04  0.00000000000E+00 0. -1.
          2   -1    0    0  501    0  0.00000000000E+00 -0.00000000000E+00 -0.26314269685E+04  0.26314269685E+04  0.00000000000E+00 0.  1.
         23    2    1    2    0    0  0.77140628041E+03  0.13080209656E+04 -0.15562949413E+04  0.21763181233E+04  0.91214764847E+02 0.  0.
         13    1    3    3    0    0  0.49327151060E+03  0.77933561676E+03 -0.89578745895E+03  0.12857355709E+04  0.00000000000E+00 0.  1.
        -13    1    3    3    0    0  0.27813476982E+03  0.52868534884E+03 -0.66050748237E+03  0.89058255234E+03  0.00000000000E+00 0. -1.
         22    1    1    2    0    0 -0.77140628041E+03 -0.13080209656E+04 -0.11648699369E+02  0.15185921731E+04  0.00000000000E+00 0.  1.
<mgrwt>
<rscale>  0 0.33457308E+04</rscale>
<asrwt>0</asrwt>
<pdfrwt beam="1">  1        2 0.40483491E+00 0.33457308E+04</pdfrwt>
<pdfrwt beam="2">  1       -2 0.16361282E+00 0.33457308E+04</pdfrwt>
<totfact> 0.57485515E-01</totfact>
</mgrwt>
</event>
<event>
 6    1  0.5040916E-004  0.1097615E+04  0.7818608E-02  0.9207519E-01
          2   -1    0    0  501    0  0.00000000000E+00  0.00000000000E+00  0.11161647871E+04  0.11161647871E+04  0.00000000000E+00 0.  1.
         -2   -1    0    0    0  501 -0.00000000000E+00 -0.00000000000E+00 -0.26984344390E+03  0.26984344390E+03  0.00000000000E+00 0. -1.
         23    2    1    2    0    0  0.11265213275E+01  0.24777169373E+03 -0.18778555522E+03  0.32263192949E+03  0.86231467068E+02 0.  0.
         13    1    3    3    0    0  0.34616333260E+02  0.13010466453E+03 -0.13066633856E+03  0.18761451515E+03  0.00000000000E+00 0. -1.
        -13    1    3    3    0    0 -0.33489811932E+02  0.11766702920E+03 -0.57119216657E+02  0.13501741434E+03  0.00000000000E+00 0.  1.
         22    1    1    2    0    0 -0.11265213275E+01 -0.24777169373E+03  0.10341068984E+04  0.10633763015E+04  0.00000000000E+00 0.  1.
<mgrwt>
<rscale>  0 0.10976151E+04</rscale>
<asrwt>0</asrwt>
<pdfrwt beam="1">  1        2 0.17171766E+00 0.10976151E+04</pdfrwt>
<pdfrwt beam="2">  1       -2 0.41514377E-01 0.10976151E+04</pdfrwt>
<totfact> 0.11614993E+02</totfact>
</mgrwt>
</event>
<event>
 6    1  0.5040916E-004  0.2175897E+04  0.7818608E-02  0.8528528E-01
          2   -1    0    0  501    0  0.00000000000E+00  0.00000000000E+00  0.19282065618E+04  0.19282065618E+04  0.00000000000E+00 0.  1.
         -2   -1    0    0    0  501 -0.00000000000E+00 -0.00000000000E+00 -0.61385121357E+03  0.61385121357E+03  0.00000000000E+00 0. -1.
         23    2    1    2    0    0 -0.81212409500E+03  0.69050027171E+03  0.90126367607E+03  0.13988251216E+04  0.89996312439E+02 0.  0.
         11    1    3    3    0    0 -0.59564488503E+03  0.45240454617E+03  0.62683504706E+03  0.97590208458E+03  0.00000000000E+00 0.  1.
        -11    1    3    3    0    0 -0.21647920997E+03  0.23809572554E+03  0.27442862900E+03  0.42292303707E+03  0.00000000000E+00 0. -1.
         22    1    1    2    0    0  0.81212409500E+03 -0.69050027171E+03  0.41309167216E+03  0.11432326537E+04  0.00000000000E+00 0. -1.
<mgrwt>
<rscale>  0 0.21758970E+04</rscale>
<asrwt>0</asrwt>
<pdfrwt beam="1">  1        2 0.29664716E+00 0.21758970E+04</pdfrwt>
<pdfrwt beam="2">  1       -2 0.94438649E-01 0.21758970E+04</pdfrwt>
<totfact> 0.63388232E+00</totfact>
</mgrwt>
</event>
<event>
 6    1  0.5040916E-004  0.2516143E+04  0.7818608E-02  0.8397257E-01
          2   -1    0    0  501    0  0.00000000000E+00  0.00000000000E+00  0.25667518439E+04  0.25667518439E+04  0.00000000000E+00 0.  1.
         -2   -1    0    0    0  501 -0.00000000000E+00 -0.00000000000E+00 -0.61663284360E+03  0.61663284360E+03  0.00000000000E+00 0. -1.
         23    2    1    2    0    0  0.63252978526E+03 -0.78916032833E+02 -0.39343406740E+03  0.75468901892E+03  0.91888412811E+02 0.  0.
         11    1    3    3    0    0  0.61551263252E+03 -0.61876377258E+02 -0.38724697380E+03  0.72982511985E+03  0.00000000000E+00 0. -1.
        -11    1    3    3    0    0  0.17017152743E+02 -0.17039655575E+02 -0.61870935978E+01  0.24863899067E+02  0.00000000000E+00 0.  1.
         22    1    1    2    0    0 -0.63252978526E+03  0.78916032833E+02  0.23435530677E+04  0.24286956686E+04  0.00000000000E+00 0.  1.
<mgrwt>
<rscale>  0 0.25161427E+04</rscale>
<asrwt>0</asrwt>
<pdfrwt beam="1">  1        2 0.39488489E+00 0.25161427E+04</pdfrwt>
<pdfrwt beam="2">  1       -2 0.94866593E-01 0.25161427E+04</pdfrwt>
<totfact> 0.26505216E+00</totfact>
</mgrwt>
</event>
<event>
 6    1  0.5040916E-004  0.2241200E+04  0.7818608E-02  0.8501473E-01
          1   -1    0    0  501    0  0.00000000000E+00  0.00000000000E+00  0.10218932988E+04  0.10218932988E+04  0.00000000000E+00 0.  1.
         -1   -1    0    0    0  501 -0.00000000000E+00 -0.00000000000E+00 -0.12288412736E+04  0.12288412736E+04  0.00000000000E+00 0. -1.
         23    2    1    2    0    0 -0.41636971679E+03  0.10158464239E+04  0.11217822212E+03  0.11074283022E+04  0.92226855623E+02 0.  0.
         13    1    3    3    0    0 -0.30655152951E+03  0.78731034768E+03  0.50001601817E+02  0.84636374213E+03  0.00000000000E+00 0. -1.
        -13    1    3    3    0    0 -0.10981818727E+03  0.22853607623E+03  0.62176620308E+02  0.26106456004E+03  0.00000000000E+00 0.  1.
         22    1    1    2    0    0  0.41636971679E+03 -0.10158464239E+04 -0.31912619697E+03  0.11433062703E+04  0.00000000000E+00 0.  1.
<mgrwt>
<rscale>  0 0.22412003E+04</rscale>
<asrwt>0</asrwt>
<pdfrwt beam="1">  1        1 0.15721435E+00 0.22412003E+04</pdfrwt>
<pdfrwt beam="2">  1       -1 0.18905250E+00 0.22412003E+04</pdfrwt>
<totfact> 0.23714501E+00</totfact>
</mgrwt>
</event>
<event>
 6    1  0.5040916E-004  0.7464666E+03  0.7818608E-02  0.9640910E-01
         -2   -1    0    0    0  501 -0.00000000000E+00  0.00000000000E+00  0.21725822176E+03  0.21725822176E+03  0.00000000000E+00 0.  1.
          2   -1    0    0  501    0  0.00000000000E+00 -0.00000000000E+00 -0.64118670758E+03  0.64118670758E+03  0.00000000000E+00 0. -1.
         23    2    1    2    0    0  0.22251643245E+03 -0.13222414719E+03 -0.51557500089E+03  0.58386184258E+03  0.89890388039E+02 0.  0.
         11    1    3    3    0    0  0.42749077729E+02 -0.73231507645E+02 -0.16144371020E+03  0.18235791434E+03  0.00000000000E+00 0. -1.
        -11    1    3    3    0    0  0.17976735472E+03 -0.58992639549E+02 -0.35413129069E+03  0.40150392824E+03  0.00000000000E+00 0.  1.
         22    1    1    2    0    0 -0.22251643245E+03  0.13222414719E+03  0.91646515068E+02  0.27458308676E+03  0.00000000000E+00 0.  1.
<mgrwt>
<rscale>  0 0.74646657E+03</rscale>
<asrwt>0</asrwt>
<pdfrwt beam="1">  1        2 0.98644110E-01 0.74646657E+03</pdfrwt>
<pdfrwt beam="2">  1       -2 0.33424342E-01 0.74646657E+03</pdfrwt>
<totfact> 0.38483765E+02</totfact>
</mgrwt>
</event>
<event>
 6    1  0.5040916E-004  0.1564437E+04  0.7818608E-02  0.8842699E-01
         -2   -1    0    0    0  501 -0.00000000000E+00  0.00000000000E+00  0.31539748608E+03  0.31539748608E+03  0.00000000000E+00 0. -1.
          2   -1    0    0  501    0  0.00000000000E+00 -0.00000000000E+00 -0.19399823669E+04  0.19399823669E+04  0.00000000000E+00 0.  1.
         23    2    1    2    0    0  0.52424656521E+03  0.57462939608E+03 -0.73984337488E+03  0.10773302206E+04  0.90767730724E+02 0.  0.
         11    1    3    3    0    0  0.28326113701E+03  0.26532719208E+03 -0.32173436012E+03  0.50413132126E+03  0.00000000000E+00 0.  1.
        -11    1    3    3    0    0  0.24098542820E+03  0.30930220399E+03 -0.41810901476E+03  0.57319889935E+03  0.00000000000E+00 0. -1.
         22    1    1    2    0    0 -0.52424656521E+03 -0.57462939608E+03 -0.88474150590E+03  0.11780496323E+04  0.00000000000E+00 0.  1.
<mgrwt>
<rscale>  0 0.15644367E+04</rscale>
<asrwt>0</asrwt>
<pdfrwt beam="1">  1        2 0.29845883E+00 0.15644367E+04</pdfrwt>
<pdfrwt beam="2">  1       -2 0.48522689E-01 0.15644367E+04</pdfrwt>
<totfact> 0.27910870E+01</totfact>
</mgrwt>
</event>
<event>
 6    1  0.5040916E-004  0.2445941E+04  0.7818608E-02  0.8422502E-01
         -2   -1    0    0    0  501 -0.00000000000E+00  0.00000000000E+00  0.55739674520E+03  0.55739674520E+03  0.00000000000E+00 0. -1.
          2   -1    0    0  501    0  0.00000000000E+00 -0.00000000000E+00 -0.26832890154E+04  0.26832890154E+04  0.00000000000E+00 0.  1.
         23    2    1    2    0    0  0.40414134408E+03 -0.99559304551E+02 -0.25855945675E+04  0.26205499020E+04  0.93489250584E+02 0.  0.
         11    1    3    3    0    0  0.81334098329E+02 -0.35109395707E+02 -0.35979781765E+03  0.37054335078E+03  0.00000000000E+00 0.  1.
        -11    1    3    3    0    0  0.32280724575E+03 -0.64449908844E+02 -0.22257967499E+04  0.22500065512E+04  0.00000000000E+00 0. -1.
         22    1    1    2    0    0 -0.40414134408E+03  0.99559304551E+02  0.45970229727E+03  0.62013585869E+03  0.00000000000E+00 0. -1.
<mgrwt>
<rscale>  0 0.24459408E+04</rscale>
<asrwt>0</asrwt>
<pdfrwt beam="1">  1        2 0.41281370E+00 0.24459408E+04</pdfrwt>
<pdfrwt beam="2">  1       -2 0.85753344E-01 0.24459408E+04</pdfrwt>
<totfact> 0.28742167E+00</totfact>
</mgrwt>
</event>
<event>
 6    1  0.5040916E-004  0.2921990E+04  0.7818608E-02  0.8266365E-01
          2   -1    0    0  501    0  0.00000000000E+00  0.00000000000E+00  0.12095724475E+04  0.12095724475E+04  0.00000000000E+00 0.  1.
         -2   -1    0    0    0  501 -0.00000000000E+00 -0.00000000000E+00 -0.17646785425E+04  0.17646785425E+04  0.00000000000E+00 0. -1.
         23    2    1    2    0    0  0.11903240533E+04 -0.63330473305E+03 -0.84596191811E+03  0.15949238546E+04  0.10091728500E+03 0.  0.
         13    1    3    3    0    0  0.37639067849E+03 -0.25422017755E+03 -0.28520366282E+03  0.53631984003E+03  0.00000000000E+00 0.  1.
        -13    1    3    3    0    0  0.81393337477E+03 -0.37908455550E+03 -0.56075825529E+03  0.10586040146E+04  0.00000000000E+00 0. -1.
         22    1    1    2    0    0 -0.11903240533E+04  0.63330473305E+03  0.29085582313E+03  0.13793271354E+04  0.00000000000E+00 0.  1.
<mgrwt>
<rscale>  0 0.29219901E+04</rscale>
<asrwt>0</asrwt>
<pdfrwt beam="1">  1        2 0.18608807E+00 0.29219901E+04</pdfrwt>
<pdfrwt beam="2">  1       -2 0.27148901E+00 0.29219901E+04</pdfrwt>
<totfact> 0.76432472E-01</totfact>
</mgrwt>
</event>
<event>
 6    1  0.5040916E-004  0.3745340E+04  0.7818608E-02  0.8057988E-01
         -2   -1    0    0    0  501 -0.00000000000E+00  0.00000000000E+00  0.11113810645E+04  0.11113810645E+04  0.00000000000E+00 0. -1.
          2   -1    0    0  501    0  0.00000000000E+00 -0.00000000000E+00 -0.31554365277E+04  0.31554365277E+04  0.00000000000E+00 0.  1.
         23    2    1    2    0    0  0.15785665866E+04  0.81507761487E+03 -0.35224738044E+03  0.18135669781E+04  0.93396896678E+02 0.  0.
         11    1    3    3    0    0  0.11205479484E+04  0.61844097632E+03 -0.23054743094E+03  0.13004803204E+04  0.00000000000E+00 0. -1.
        -11    1    3    3    0    0  0.45801863815E+03  0.19663663855E+03 -0.12169994950E+03  0.51308665761E+03  0.00000000000E+00 0.  1.
         22    1    1    2    0    0 -0.15785665866E+04 -0.81507761487E+03 -0.16918080828E+04  0.24532506141E+04  0.00000000000E+00 0.  1.
<mgrwt>
<rscale>  0 0.37453397E+04</rscale>
<asrwt>0</asrwt>
<pdfrwt beam="1">  1        2 0.48545177E+00 0.37453397E+04</pdfrwt>
<pdfrwt beam="2">  1       -2 0.17098170E+00 0.37453397E+04</pdfrwt>
<totfact> 0.23394029E-01</totfact>
</mgrwt>
</event>
<event>
 6    1  0.5040916E-004  0.2086525E+04  0.7818608E-02  0.8567203E-01
          2   -1    0    0  501    0  0.00000000000E+00  0.00000000000E+00  0.44740271568E+03  0.44740271568E+03  0.00000000000E+00 0.  1.
         -2   -1    0    0    0  501 -0.00000000000E+00 -0.00000000000E+00 -0.24326999590E+04  0.24326999590E+04  0.00000000000E+00 0. -1.
         23    2    1    2    0    0 -0.19722576252E+02 -0.10313045686E+04 -0.11910711973E+04  0.15782681593E+04  0.91113624496E+02 0.  0.
         11    1    3    3    0    0 -0.23736749585E+01 -0.39836015726E+03 -0.39385442114E+03  0.56019438972E+03  0.00000000000E+00 0. -1.
        -11    1    3    3    0    0 -0.17348901294E+02 -0.63294441132E+03 -0.79721677617E+03  0.10180737696E+04  0.00000000000E+00 0.  1.
         22    1    1    2    0    0  0.19722576252E+02  0.10313045686E+04 -0.79422604605E+03  0.13018345154E+04  0.00000000000E+00 0.  1.
<mgrwt>
<rscale>  0 0.20865249E+04</rscale>
<asrwt>0</asrwt>
<pdfrwt beam="1">  1        2 0.68831185E-01 0.20865249E+04</pdfrwt>
<pdfrwt beam="2">  1       -2 0.37426154E+00 0.20865249E+04</pdfrwt>
<totfact> 0.70572534E-01</totfact>
</mgrwt>
</event>
<event>
 6    1  0.5040916E-004  0.3636333E+04  0.7818608E-02  0.8082220E-01
         -2   -1    0    0    0  501 -0.00000000000E+00  0.00000000000E+00  0.88804703608E+03  0.88804703608E+03  0.00000000000E+00 0. -1.
          2   -1    0    0  501    0  0.00000000000E+00 -0.00000000000E+00 -0.37224704978E+04  0.37224704978E+04  0.00000000000E+00 0.  1.
         23    2    1    2    0    0  0.59404102345E+03  0.57718183575E+03 -0.34688481178E+04  0.35671967523E+04  0.77212669729E+02 0.  0.
         13    1    3    3    0    0  0.28010313761E+03  0.22602032959E+03 -0.15853724330E+04  0.16257148300E+04  0.00000000000E+00 0.  1.
        -13    1    3    3    0    0  0.31393788585E+03  0.35116150615E+03 -0.18834756848E+04  0.19414819224E+04  0.00000000000E+00 0. -1.
         22    1    1    2    0    0 -0.59404102345E+03 -0.57718183575E+03  0.63442465606E+03  0.10433207816E+04  0.00000000000E+00 0. -1.
<mgrwt>
<rscale>  0 0.36363327E+04</rscale>
<asrwt>0</asrwt>
<pdfrwt beam="1">  1        2 0.57268777E+00 0.36363327E+04</pdfrwt>
<pdfrwt beam="2">  1       -2 0.13662262E+00 0.36363327E+04</pdfrwt>
<totfact> 0.17426531E-01</totfact>
</mgrwt>
</event>
<event>
 6    1  0.5040916E-004  0.9505208E+03  0.7818608E-02  0.9364542E-01
          2   -1    0    0  501    0  0.00000000000E+00  0.00000000000E+00  0.17135869301E+04  0.17135869301E+04  0.00000000000E+00 0.  1.
         -2   -1    0    0    0  501 -0.00000000000E+00 -0.00000000000E+00 -0.13181264683E+03  0.13181264683E+03  0.00000000000E+00 0. -1.
         23    2    1    2    0    0 -0.82031526959E+02 -0.35179206256E+03  0.13846933435E+04  0.14339050770E+04  0.90671315139E+02 0.  0.
         11    1    3    3    0    0 -0.30789196288E+02 -0.25892432473E+03  0.86268398096E+03  0.90122884528E+03  0.00000000000E+00 0. -1.
        -11    1    3    3    0    0 -0.51242330672E+02 -0.92867737822E+02  0.52200936258E+03  0.53267623169E+03  0.00000000000E+00 0.  1.
         22    1    1    2    0    0  0.82031526959E+02  0.35179206256E+03  0.19708093971E+03  0.41149449995E+03  0.00000000000E+00 0. -1.
<mgrwt>
<rscale>  0 0.95052076E+03</rscale>
<asrwt>0</asrwt>
<pdfrwt beam="1">  1        2 0.26362874E+00 0.95052076E+03</pdfrwt>
<pdfrwt beam="2">  1       -2 0.20278870E-01 0.95052076E+03</pdfrwt>
<totfact> 0.20142515E+02</totfact>
</mgrwt>
</event>
<event>
 6    1  0.5040916E-004  0.3282008E+04  0.7818608E-02  0.8167488E-01
          1   -1    0    0  501    0  0.00000000000E+00  0.00000000000E+00  0.19751134226E+04  0.19751134226E+04  0.00000000000E+00 0.  1.
         -1   -1    0    0    0  501 -0.00000000000E+00 -0.00000000000E+00 -0.13634128071E+04  0.13634128071E+04  0.00000000000E+00 0. -1.
         23    2    1    2    0    0  0.71366531153E+03  0.11558791905E+04  0.12411615496E+04  0.18413302013E+04  0.68117824341E+02 0.  0.
         13    1    3    3    0    0  0.47097295010E+03  0.71148783024E+03  0.80439273104E+03  0.11726372491E+04  0.00000000000E+00 0. -1.
        -13    1    3    3    0    0  0.24269236143E+03  0.44439136030E+03  0.43676881859E+03  0.66869295218E+03  0.00000000000E+00 0.  1.
         22    1    1    2    0    0 -0.71366531153E+03 -0.11558791905E+04 -0.62946093415E+03  0.14971960285E+04  0.00000000000E+00 0.  1.
<mgrwt>
<rscale>  0 0.32820085E+04</rscale>
<asrwt>0</asrwt>
<pdfrwt beam="1">  1        1 0.30386360E+00 0.32820085E+04</pdfrwt>
<pdfrwt beam="2">  1       -1 0.20975582E+00 0.32820085E+04</pdfrwt>
<totfact> 0.33222607E-01</totfact>
</mgrwt>
</event>
<event>
 6    1  0.5040916E-004  0.1453551E+04  0.7818608E-02  0.8915942E-01
          2   -1    0    0  501    0  0.00000000000E+00  0.00000000000E+00  0.15991040873E+04  0.15991040873E+04  0.00000000000E+00 0.  1.
         -2   -1    0    0    0  501 -0.00000000000E+00 -0.00000000000E+00 -0.33031157329E+03  0.33031157329E+03  0.00000000000E+00 0. -1.
         23    2    1    2    0    0  0.15293689446E+03 -0.59613947880E+03  0.11427836236E+04  0.13012037439E+04  0.91677700687E+02 0.  0.
         11    1    3    3    0    0  0.10980222025E+03 -0.44417206090E+03  0.92710621783E+03  0.10338623150E+04  0.00000000000E+00 0. -1.
        -11    1    3    3    0    0  0.43134674214E+02 -0.15196741790E+03  0.21567740578E+03  0.26734142887E+03  0.00000000000E+00 0.  1.
         22    1    1    2    0    0 -0.15293689446E+03  0.59613947880E+03  0.12600889044E+03  0.62821191675E+03  0.00000000000E+00 0.  1.
<mgrwt>
<rscale>  0 0.14535509E+04</rscale>
<asrwt>0</asrwt>
<pdfrwt beam="1">  1        2 0.24601601E+00 0.14535509E+04</pdfrwt>
<pdfrwt beam="2">  1       -2 0.50817166E-01 0.14535509E+04</pdfrwt>
<totfact> 0.39619021E+01</totfact>
</mgrwt>
</event>
<event>
 6    1  0.5040916E-004  0.1721784E+04  0.7818608E-02  0.8749037E-01
          2   -1    0    0  501    0  0.00000000000E+00  0.00000000000E+00  0.15027997700E+04  0.15027997700E+04  0.00000000000E+00 0.  1.
         -2   -1    0    0    0  501 -0.00000000000E+00 -0.00000000000E+00 -0.49316931811E+03  0.49316931811E+03  0.00000000000E+00 0. -1.
         23    2    1    2    0    0  0.51197420606E+03 -0.38120813216E+03 -0.15917046132E+03  0.66422857192E+03  0.91799413387E+02 0.  0.
         11    1    3    3    0    0  0.30531976816E+03 -0.20810849209E+03 -0.13572663219E+03  0.39363818920E+03  0.00000000000E+00 0. -1.
        -11    1    3    3    0    0  0.20665443790E+03 -0.17309964007E+03 -0.23443829132E+02  0.27059038272E+03  0.00000000000E+00 0.  1.
         22    1    1    2    0    0 -0.51197420606E+03  0.38120813216E+03  0.11688009132E+04  0.13317405161E+04  0.00000000000E+00 0.  1.
<mgrwt>
<rscale>  0 0.17217837E+04</rscale>
<asrwt>0</asrwt>
<pdfrwt beam="1">  1        2 0.23119996E+00 0.17217837E+04</pdfrwt>
<pdfrwt beam="2">  1       -2 0.75872203E-01 0.17217837E+04</pdfrwt>
<totfact> 0.18697305E+01</totfact>
</mgrwt>
</event>
<event>
 6    1  0.5040916E-004  0.1260577E+04  0.7818608E-02  0.9061426E-01
          2   -1    0    0  501    0  0.00000000000E+00  0.00000000000E+00  0.55116360632E+03  0.55116360632E+03  0.00000000000E+00 0.  1.
         -2   -1    0    0    0  501 -0.00000000000E+00 -0.00000000000E+00 -0.72077225654E+03  0.72077225654E+03  0.00000000000E+00 0. -1.
         23    2    1    2    0    0  0.43645431915E+03  0.43254765445E+03 -0.21069479856E+03  0.65608042718E+03  0.91974902603E+02 0.  0.
         11    1    3    3    0    0  0.14033115827E+03  0.87314666072E+02 -0.38197886849E+02  0.16963420484E+03  0.00000000000E+00 0.  1.
        -11    1    3    3    0    0  0.29612316088E+03  0.34523298837E+03 -0.17249691172E+03  0.48644622234E+03  0.00000000000E+00 0. -1.
         22    1    1    2    0    0 -0.43645431915E+03 -0.43254765445E+03  0.41086148337E+02  0.61585543568E+03  0.00000000000E+00 0.  1.
<mgrwt>
<rscale>  0 0.12605768E+04</rscale>
<asrwt>0</asrwt>
<pdfrwt beam="1">  1        2 0.84794401E-01 0.12605768E+04</pdfrwt>
<pdfrwt beam="2">  1       -2 0.11088804E+00 0.12605768E+04</pdfrwt>
<totfact> 0.34773448E+01</totfact>
</mgrwt>
</event>
<event>
 6    1  0.5040916E-004  0.2292820E+04  0.7818608E-02  0.8480757E-01
          2   -1    0    0  501    0  0.00000000000E+00  0.00000000000E+00  0.21466307112E+04  0.21466307112E+04  0.00000000000E+00 0.  1.
         -2   -1    0    0    0  501 -0.00000000000E+00 -0.00000000000E+00 -0.61224145187E+03  0.61224145187E+03  0.00000000000E+00 0. -1.
         23    2    1    2    0    0 -0.18205019943E+03  0.11015596636E+04  0.10714122178E+04  0.15501853929E+04  0.92599374377E+02 0.  0.
         11    1    3    3    0    0 -0.71286565359E+02  0.46233277040E+03  0.51230646038E+03  0.69375159411E+03  0.00000000000E+00 0.  1.
        -11    1    3    3    0    0 -0.11076363407E+03  0.63922689320E+03  0.55910575746E+03  0.85643379875E+03  0.00000000000E+00 0. -1.
         22    1    1    2    0    0  0.18205019943E+03 -0.11015596636E+04  0.46297704154E+03  0.12086867702E+04  0.00000000000E+00 0. -1.
<mgrwt>
<rscale>  0 0.22928204E+04</rscale>
<asrwt>0</asrwt>
<pdfrwt beam="1">  1        2 0.33025088E+00 0.22928204E+04</pdfrwt>
<pdfrwt beam="2">  1       -2 0.94190993E-01 0.22928204E+04</pdfrwt>
<totfact> 0.47717914E+00</totfact>
</mgrwt>
</event>
<event>
 6    1  0.5040916E-004  0.1581610E+04  0.7818608E-02  0.8831926E-01
         -2   -1    0    0    0  501 -0.00000000000E+00  0.00000000000E+00  0.29442249854E+03  0.29442249854E+03  0.00000000000E+00 0. -1.
          2   -1    0    0  501    0  0.00000000000E+00 -0.00000000000E+00 -0.21240655951E+04  0.21240655951E+04  0.00000000000E+00 0.  1.
         23    2    1    2    0    0  0.51285595772E+03  0.74195334755E+02 -0.10198011175E+02  0.52668826285E+03  0.93650123986E+02 0.  0.
         11    1    3    3    0    0  0.40585211952E+03  0.76055202465E+02  0.25941615517E+02  0.41373095624E+03  0.00000000000E+00 0.  1.
        -11    1    3    3    0    0  0.10700383820E+03 -0.18598677097E+01 -0.36139626693E+02  0.11295730660E+03  0.00000000000E+00 0. -1.
         22    1    1    2    0    0 -0.51285595772E+03 -0.74195334755E+02 -0.18194450854E+04  0.18917998308E+04  0.00000000000E+00 0.  1.
<mgrwt>
<rscale>  0 0.15816102E+04</rscale>
<asrwt>0</asrwt>
<pdfrwt beam="1">  1        2 0.32677931E+00 0.15816102E+04</pdfrwt>
<pdfrwt beam="2">  1       -2 0.45295771E-01 0.15816102E+04</pdfrwt>
<totfact> 0.25298036E+01</totfact>
</mgrwt>
</event>
<event>
 6    1  0.5040916E-004  0.2325559E+04  0.7818608E-02  0.8467911E-01
         -2   -1    0    0    0  501 -0.00000000000E+00  0.00000000000E+00  0.12235181724E+04  0.12235181724E+04  0.00000000000E+00 0. -1.
          2   -1    0    0  501    0  0.00000000000E+00 -0.00000000000E+00 -0.11050560557E+04  0.11050560557E+04  0.00000000000E+00 0.  1.
         23    2    1    2    0    0  0.26003494471E+03 -0.76671558725E+03 -0.77390311070E+03  0.11236731271E+04  0.90798170179E+02 0.  0.
         11    1    3    3    0    0  0.74416958457E+02 -0.25664529328E+03 -0.31337961646E+03  0.41183913641E+03  0.00000000000E+00 0.  1.
        -11    1    3    3    0    0  0.18561798626E+03 -0.51007029397E+03 -0.46052349424E+03  0.71183399073E+03  0.00000000000E+00 0. -1.
         22    1    1    2    0    0 -0.26003494471E+03  0.76671558725E+03  0.89236522737E+03  0.12049011010E+04  0.00000000000E+00 0. -1.
<mgrwt>
<rscale>  0 0.23255590E+04</rscale>
<asrwt>0</asrwt>
<pdfrwt beam="1">  1        2 0.17000862E+00 0.23255590E+04</pdfrwt>
<pdfrwt beam="2">  1       -2 0.18823356E+00 0.23255590E+04</pdfrwt>
<totfact> 0.31171497E+00</totfact>
</mgrwt>
</event>
<event>
 6    1  0.5040916E-004  0.3156198E+04  0.7818608E-02  0.8200482E-01
          2   -1    0    0  501    0  0.00000000000E+00  0.00000000000E+00  0.16589648361E+04  0.16589648361E+04  0.00000000000E+00 0.  1.
         -2   -1    0    0    0  501 -0.00000000000E+00 -0.00000000000E+00 -0.15011748056E+04  0.15011748056E+04  0.00000000000E+00 0. -1.
         23    2    1    2    0    0 -0.81824642861E+03 -0.27888157407E+03  0.13993011922E+04  0.16473104659E+04  0.91026337512E+02 0.  0.
         11    1    3    3    0    0 -0.47847722814E+03 -0.16949407073E+03  0.90443045050E+03  0.10371418117E+04  0.00000000000E+00 0. -1.
        -11    1    3    3    0    0 -0.33976920047E+03 -0.10938750334E+03  0.49487074175E+03  0.61016865416E+03  0.00000000000E+00 0.  1.
         22    1    1    2    0    0  0.81824642861E+03  0.27888157407E+03 -0.12415111618E+04  0.15128291758E+04  0.00000000000E+00 0. -1.
<mgrwt>
<rscale>  0 0.31561978E+04</rscale>
<asrwt>0</asrwt>
<pdfrwt beam="1">  1        2 0.25522536E+00 0.31561978E+04</pdfrwt>
<pdfrwt beam="2">  1       -2 0.23094997E+00 0.31561978E+04</pdfrwt>
<totfact> 0.73680206E-01</totfact>
</mgrwt>
</event>
<event>
 6    1  0.5040916E-004  0.3452910E+04  0.7818608E-02  0.8125041E-01
          2   -1    0    0  501    0  0.00000000000E+00  0.00000000000E+00  0.17548388524E+04  0.17548388524E+04  0.00000000000E+00 0.  1.
         -2   -1    0    0    0  501 -0.00000000000E+00 -0.00000000000E+00 -0.16985299566E+04  0.16985299566E+04  0.00000000000E+00 0. -1.
         23    2    1    2    0    0 -0.99997328355E+03 -0.35636241380E+03  0.13886372700E+04  0.17498314205E+04  0.81583053853E+02 0.  0.
         13    1    3    3    0    0 -0.62827366357E+03 -0.23410131202E+03  0.93861144709E+03  0.11534828431E+04  0.00000000000E+00 0.  1.
        -13    1    3    3    0    0 -0.37169961998E+03 -0.12226110178E+03  0.45002582289E+03  0.59634857740E+03  0.00000000000E+00 0. -1.
         22    1    1    2    0    0  0.99997328355E+03  0.35636241380E+03 -0.13323283742E+04  0.17035373886E+04  0.00000000000E+00 0. -1.
<mgrwt>
<rscale>  0 0.34529097E+04</rscale>
<asrwt>0</asrwt>
<pdfrwt beam="1">  1        2 0.26997521E+00 0.34529097E+04</pdfrwt>
<pdfrwt beam="2">  1       -2 0.26131230E+00 0.34529097E+04</pdfrwt>
<totfact> 0.41303100E-01</totfact>
</mgrwt>
</event>
<event>
 6    1  0.5040916E-004  0.8724999E+03  0.7818608E-02  0.9460626E-01
         -2   -1    0    0    0  501 -0.00000000000E+00  0.00000000000E+00  0.32339137482E+03  0.32339137482E+03  0.00000000000E+00 0. -1.
          2   -1    0    0  501    0  0.00000000000E+00 -0.00000000000E+00 -0.58849445867E+03  0.58849445867E+03  0.00000000000E+00 0.  1.
         23    2    1    2    0    0  0.13318264458E+03 -0.23491529623E+03  0.21745228897E+03  0.35890979327E+03  0.92778922732E+02 0.  0.
         13    1    3    3    0    0  0.11789801781E+03 -0.21785127885E+03  0.15455332849E+03  0.29196892583E+03  0.00000000000E+00 0. -1.
        -13    1    3    3    0    0  0.15284626774E+02 -0.17064017381E+02  0.62898960473E+02  0.66940867438E+02  0.00000000000E+00 0.  1.
         22    1    1    2    0    0 -0.13318264458E+03  0.23491529623E+03 -0.48255537282E+03  0.55297604023E+03  0.00000000000E+00 0.  1.
<mgrwt>
<rscale>  0 0.87249993E+03</rscale>
<asrwt>0</asrwt>
<pdfrwt beam="1">  1        2 0.90537608E-01 0.87249993E+03</pdfrwt>
<pdfrwt beam="2">  1       -2 0.49752520E-01 0.87249993E+03</pdfrwt>
<totfact> 0.19495568E+02</totfact>
</mgrwt>
</event>
<event>
 6    1  0.5040916E-004  0.3081719E+04  0.7818608E-02  0.8220773E-01
         -2   -1    0    0    0  501 -0.00000000000E+00  0.00000000000E+00  0.69814296541E+03  0.69814296541E+03  0.00000000000E+00 0. -1.
          2   -1    0    0  501    0  0.00000000000E+00 -0.00000000000E+00 -0.34008049726E+04  0.34008049726E+04  0.00000000000E+00 0.  1.
         23    2    1    2    0    0  0.53308124390E+03 -0.97711440668E+02  0.56417707697E+03  0.78745873523E+03  0.89846242446E+02 0.  0.
         11    1    3    3    0    0  0.40844815769E+03 -0.74986713221E+02  0.37348607190E+03  0.55852014340E+03  0.00000000000E+00 0. -1.
        -11    1    3    3    0    0  0.12463308621E+03 -0.22724727447E+02  0.19069100508E+03  0.22893859184E+03  0.00000000000E+00 0.  1.
         22    1    1    2    0    0 -0.53308124390E+03  0.97711440668E+02 -0.32668390841E+04  0.33114892027E+04  0.00000000000E+00 0.  1.
<mgrwt>
<rscale>  0 0.30817190E+04</rscale>
<asrwt>0</asrwt>
<pdfrwt beam="1">  1        2 0.52320077E+00 0.30817190E+04</pdfrwt>
<pdfrwt beam="2">  1       -2 0.10740661E+00 0.30817190E+04</pdfrwt>
<totfact> 0.56300556E-01</totfact>
</mgrwt>
</event>
<event>
 6    1  0.5040916E-004  0.3977914E+04  0.7818608E-02  0.8009017E-01
         -2   -1    0    0    0  501 -0.00000000000E+00  0.00000000000E+00  0.22348150204E+04  0.22348150204E+04  0.00000000000E+00 0. -1.
          2   -1    0    0  501    0  0.00000000000E+00 -0.00000000000E+00 -0.17701465645E+04  0.17701465645E+04  0.00000000000E+00 0.  1.
         23    2    1    2    0    0  0.14841886618E+04 -0.14544782748E+03 -0.10909982901E+04  0.18499511258E+04  0.89837879649E+02 0.  0.
         13    1    3    3    0    0  0.51722911254E+03 -0.23690598009E+02 -0.33768685996E+03  0.61815824404E+03  0.00000000000E+00 0. -1.
        -13    1    3    3    0    0  0.96695954927E+03 -0.12175722947E+03 -0.75331143009E+03  0.12317928818E+04  0.00000000000E+00 0.  1.
         22    1    1    2    0    0 -0.14841886618E+04  0.14544782748E+03  0.15556667459E+04  0.21550104591E+04  0.00000000000E+00 0. -1.
<mgrwt>
<rscale>  0 0.39779141E+04</rscale>
<asrwt>0</asrwt>
<pdfrwt beam="1">  1        2 0.27233024E+00 0.39779141E+04</pdfrwt>
<pdfrwt beam="2">  1       -2 0.34381770E+00 0.39779141E+04</pdfrwt>
<totfact> 0.12052746E-01</totfact>
</mgrwt>
</event>
<event>
 6    1  0.5040916E-004  0.2559496E+04  0.7818608E-02  0.8382091E-01
          2   -1    0    0  501    0  0.00000000000E+00  0.00000000000E+00  0.10070247829E+04  0.10070247829E+04  0.00000000000E+00 0.  1.
         -2   -1    0    0    0  501 -0.00000000000E+00 -0.00000000000E+00 -0.16263303840E+04  0.16263303840E+04  0.00000000000E+00 0. -1.
         23    2    1    2    0    0 -0.39552791048E+03 -0.56799445934E+03 -0.14153293737E+04  0.15785026273E+04  0.97227951546E+02 0.  0.
         13    1    3    3    0    0 -0.30797839506E+03 -0.49817348290E+03 -0.11514417111E+04  0.12918380413E+04  0.00000000000E+00 0.  1.
        -13    1    3    3    0    0 -0.87549515422E+02 -0.69820976438E+02 -0.26388766256E+03  0.28666458598E+03  0.00000000000E+00 0. -1.
         22    1    1    2    0    0  0.39552791048E+03  0.56799445934E+03  0.79602377253E+03  0.10548525396E+04  0.00000000000E+00 0.  1.
<mgrwt>
<rscale>  0 0.25594960E+04</rscale>
<asrwt>0</asrwt>
<pdfrwt beam="1">  1        2 0.15492689E+00 0.25594960E+04</pdfrwt>
<pdfrwt beam="2">  1       -2 0.25020467E+00 0.25594960E+04</pdfrwt>
<totfact> 0.14174724E+00</totfact>
</mgrwt>
</event>
<event>
 6    1  0.5040916E-004  0.1227421E+04  0.7818608E-02  0.9089188E-01
          2   -1    0    0  501    0  0.00000000000E+00  0.00000000000E+00  0.71339627252E+03  0.71339627252E+03  0.00000000000E+00 0.  1.
         -2   -1    0    0    0  501 -0.00000000000E+00 -0.00000000000E+00 -0.52795415658E+03  0.52795415658E+03  0.00000000000E+00 0. -1.
         23    2    1    2    0    0 -0.86363163282E+02  0.33987201981E+03 -0.41196635617E+03  0.54862503735E+03  0.91112936355E+02 0.  0.
         11    1    3    3    0    0 -0.47869401918E+02  0.24570478202E+03 -0.34718652037E+03  0.42801962511E+03  0.00000000000E+00 0.  1.
        -11    1    3    3    0    0 -0.38493761364E+02  0.94167237789E+02 -0.64779835795E+02  0.12060541224E+03  0.00000000000E+00 0. -1.
         22    1    1    2    0    0  0.86363163282E+02 -0.33987201981E+03  0.59740847211E+03  0.69272539175E+03  0.00000000000E+00 0.  1.
<mgrwt>
<rscale>  0 0.12274209E+04</rscale>
<asrwt>0</asrwt>
<pdfrwt beam="1">  1        2 0.10975327E+00 0.12274209E+04</pdfrwt>
<pdfrwt beam="2">  1       -2 0.81223716E-01 0.12274209E+04</pdfrwt>
<totfact> 0.52649374E+01</totfact>
</mgrwt>
</event>
<event>
 6    1  0.5040916E-004  0.1352086E+04  0.7818608E-02  0.8989251E-01
          2   -1    0    0  501    0  0.00000000000E+00  0.00000000000E+00  0.18292739188E+04  0.18292739188E+04  0.00000000000E+00 0.  1.
         -2   -1    0    0    0  501 -0.00000000000E+00 -0.00000000000E+00 -0.24984452535E+03  0.24984452535E+03  0.00000000000E+00 0. -1.
         23    2    1    2    0    0  0.34533181823E+03 -0.17406059732E+03  0.16401653939E+04  0.16876596111E+04  0.92202425175E+02 0.  0.
         11    1    3    3    0    0  0.30603965705E+03 -0.18362060496E+03  0.14554944824E+04  0.14986130210E+04  0.00000000000E+00 0.  1.
        -11    1    3    3    0    0  0.39292161181E+02  0.95600076421E+01  0.18467091149E+03  0.18904659010E+03  0.00000000000E+00 0. -1.
         22    1    1    2    0    0 -0.34533181823E+03  0.17406059732E+03 -0.60736000484E+02  0.39145883306E+03  0.00000000000E+00 0. -1.
<mgrwt>
<rscale>  0 0.13520859E+04</rscale>
<asrwt>0</asrwt>
<pdfrwt beam="1">  1        2 0.28142675E+00 0.13520859E+04</pdfrwt>
<pdfrwt beam="2">  1       -2 0.38437620E-01 0.13520859E+04</pdfrwt>
<totfact> 0.51903135E+01</totfact>
</mgrwt>
</event>
<event>
 6    1  0.5040916E-004  0.2135362E+04  0.7818608E-02  0.8545824E-01
          2   -1    0    0  501    0  0.00000000000E+00  0.00000000000E+00  0.33409112364E+04  0.33409112364E+04  0.00000000000E+00 0.  1.
         -2   -1    0    0    0  501 -0.00000000000E+00 -0.00000000000E+00 -0.34120715207E+03  0.34120715207E+03  0.00000000000E+00 0. -1.
         23    2    1    2    0    0  0.65133954345E+03 -0.28429142721E+03  0.13314999172E+03  0.72878176996E+03  0.91264075525E+02 0.  0.
         13    1    3    3    0    0  0.27512561787E+03 -0.14780974065E+03  0.20327776456E+02  0.31297770454E+03  0.00000000000E+00 0. -1.
        -13    1    3    3    0    0  0.37621392557E+03 -0.13648168656E+03  0.11282221527E+03  0.41580406542E+03  0.00000000000E+00 0.  1.
         22    1    1    2    0    0 -0.65133954345E+03  0.28429142721E+03  0.28665540926E+04  0.29533366185E+04  0.00000000000E+00 0.  1.
<mgrwt>
<rscale>  0 0.21353621E+04</rscale>
<asrwt>0</asrwt>
<pdfrwt beam="1">  1        2 0.51398632E+00 0.21353621E+04</pdfrwt>
<pdfrwt beam="2">  1       -2 0.52493410E-01 0.21353621E+04</pdfrwt>
<totfact> 0.33008910E+00</totfact>
</mgrwt>
</event>
<event>
 6    1  0.5040916E-004  0.7895388E+03  0.7818608E-02  0.9575284E-01
         -2   -1    0    0    0  501 -0.00000000000E+00  0.00000000000E+00  0.29829518030E+03  0.29829518030E+03  0.00000000000E+00 0. -1.
          2   -1    0    0  501    0  0.00000000000E+00 -0.00000000000E+00 -0.52244518662E+03  0.52244518662E+03  0.00000000000E+00 0.  1.
         23    2    1    2    0    0  0.10616109173E+03 -0.71076616616E+02  0.26768888328E+03  0.31257941195E+03  0.98622957338E+02 0.  0.
         13    1    3    3    0    0  0.87040740451E+02 -0.91171189765E+02  0.17391956889E+03  0.21479360509E+03  0.00000000000E+00 0.  1.
        -13    1    3    3    0    0  0.19120351284E+02  0.20094573149E+02  0.93769314390E+02  0.97785806866E+02  0.00000000000E+00 0. -1.
         22    1    1    2    0    0 -0.10616109173E+03  0.71076616616E+02 -0.49183888960E+03  0.50816095497E+03  0.00000000000E+00 0.  1.
<mgrwt>
<rscale>  0 0.78953880E+03</rscale>
<asrwt>0</asrwt>
<pdfrwt beam="1">  1        2 0.80376182E-01 0.78953880E+03</pdfrwt>
<pdfrwt beam="2">  1       -2 0.45891566E-01 0.78953880E+03</pdfrwt>
<totfact> 0.26521422E+02</totfact>
</mgrwt>
</event>
<event>
 6    1  0.5040916E-004  0.3528748E+04  0.7818608E-02  0.8107011E-01
         -2   -1    0    0    0  501 -0.00000000000E+00  0.00000000000E+00  0.24475734335E+04  0.24475734335E+04  0.00000000000E+00 0. -1.
          2   -1    0    0  501    0  0.00000000000E+00 -0.00000000000E+00 -0.12718785174E+04  0.12718785174E+04  0.00000000000E+00 0.  1.
         23    2    1    2    0    0 -0.12421762638E+04 -0.65379138807E+03  0.17128146853E+04  0.22164740082E+04  0.92616593290E+02 0.  0.
         13    1    3    3    0    0 -0.12012325491E+04 -0.64016748427E+03  0.16344732001E+04  0.21270347168E+04  0.00000000000E+00 0.  1.
        -13    1    3    3    0    0 -0.40943714753E+02 -0.13623903802E+02  0.78341485279E+02  0.89439291412E+02  0.00000000000E+00 0. -1.
         22    1    1    2    0    0  0.12421762638E+04  0.65379138807E+03 -0.53711976921E+03  0.15029779426E+04  0.00000000000E+00 0.  1.
<mgrwt>
<rscale>  0 0.35287483E+04</rscale>
<asrwt>0</asrwt>
<pdfrwt beam="1">  1        2 0.19567362E+00 0.35287483E+04</pdfrwt>
<pdfrwt beam="2">  1       -2 0.37654976E+00 0.35287483E+04</pdfrwt>
<totfact> 0.14824279E-01</totfact>
</mgrwt>
</event>
<event>
 6    1  0.5040916E-004  0.2027225E+04  0.7818608E-02  0.8593997E-01
         -2   -1    0    0    0  501 -0.00000000000E+00  0.00000000000E+00  0.14995108262E+04  0.14995108262E+04  0.00000000000E+00 0. -1.
          2   -1    0    0  501    0  0.00000000000E+00 -0.00000000000E+00 -0.68516340725E+03  0.68516340725E+03  0.00000000000E+00 0.  1.
         23    2    1    2    0    0  0.50139931137E+03  0.65899177807E+03  0.10341592808E+04  0.13279428358E+04  0.90968808918E+02 0.  0.
         11    1    3    3    0    0  0.71505977880E+02  0.54047921611E+02  0.13541265816E+03  0.16239110411E+03  0.00000000000E+00 0. -1.
        -11    1    3    3    0    0  0.42989333349E+03  0.60494385646E+03  0.89874662263E+03  0.11655517317E+04  0.00000000000E+00 0.  1.
         22    1    1    2    0    0 -0.50139931137E+03 -0.65899177807E+03 -0.21981186186E+03  0.85673139759E+03  0.00000000000E+00 0.  1.
<mgrwt>
<rscale>  0 0.20272247E+04</rscale>
<asrwt>0</asrwt>
<pdfrwt beam="1">  1        2 0.10540976E+00 0.20272247E+04</pdfrwt>
<pdfrwt beam="2">  1       -2 0.23069397E+00 0.20272247E+04</pdfrwt>
<totfact> 0.33019545E+00</totfact>
</mgrwt>
</event>
<event>
 6    1  0.5040916E-004  0.1331452E+04  0.7818608E-02  0.9004989E-01
          2   -1    0    0  501    0  0.00000000000E+00  0.00000000000E+00  0.13512687794E+04  0.13512687794E+04  0.00000000000E+00 0.  1.
         -2   -1    0    0    0  501 -0.00000000000E+00 -0.00000000000E+00 -0.32798156822E+03  0.32798156822E+03  0.00000000000E+00 0. -1.
         23    2    1    2    0    0  0.52281122231E+03  0.18337379530E+03  0.55598310932E+02  0.56418114320E+03  0.90838687672E+02 0.  0.
         11    1    3    3    0    0  0.38681211234E+03  0.13273220471E+03  0.80882072377E+02  0.41687331175E+03  0.00000000000E+00 0.  1.
        -11    1    3    3    0    0  0.13599910998E+03  0.50641590590E+02 -0.25283761446E+02  0.14730783144E+03  0.00000000000E+00 0. -1.
         22    1    1    2    0    0 -0.52281122231E+03 -0.18337379530E+03  0.96768890023E+03  0.11150692044E+04  0.00000000000E+00 0.  1.
<mgrwt>
<rscale>  0 0.13314522E+04</rscale>
<asrwt>0</asrwt>
<pdfrwt beam="1">  1        2 0.20788750E+00 0.13314522E+04</pdfrwt>
<pdfrwt beam="2">  1       -2 0.50458703E-01 0.13314522E+04</pdfrwt>
<totfact> 0.56059338E+01</totfact>
</mgrwt>
</event>
<event>
 6    1  0.5040916E-004  0.3145482E+04  0.7818608E-02  0.8203366E-01
         -2   -1    0    0    0  501 -0.00000000000E+00  0.00000000000E+00  0.11705571964E+04  0.11705571964E+04  0.00000000000E+00 0. -1.
          2   -1    0    0  501    0  0.00000000000E+00 -0.00000000000E+00 -0.21131082438E+04  0.21131082438E+04  0.00000000000E+00 0.  1.
         23    2    1    2    0    0 -0.80867946240E+03 -0.12424286216E+04 -0.10158692895E+04  0.17994259322E+04  0.91388835721E+02 0.  0.
         11    1    3    3    0    0 -0.63654271441E+02 -0.14164821152E+03 -0.12413477088E+03  0.19881026996E+03  0.00000000000E+00 0.  1.
        -11    1    3    3    0    0 -0.74502519096E+03 -0.11007804100E+04 -0.89173451867E+03  0.16006156622E+04  0.00000000000E+00 0. -1.
         22    1    1    2    0    0  0.80867946240E+03  0.12424286216E+04  0.73318242073E+02  0.14842395080E+04  0.00000000000E+00 0.  1.
<mgrwt>
<rscale>  0 0.31454819E+04</rscale>
<asrwt>0</asrwt>
<pdfrwt beam="1">  1        2 0.32509357E+00 0.31454819E+04</pdfrwt>
<pdfrwt beam="2">  1       -2 0.18008572E+00 0.31454819E+04</pdfrwt>
<totfact> 0.88495197E-01</totfact>
</mgrwt>
</event>
<event>
 6    1  0.5040916E-004  0.3817281E+04  0.7818608E-02  0.8042456E-01
          2   -1    0    0  501    0  0.00000000000E+00  0.00000000000E+00  0.17668334358E+04  0.17668334358E+04  0.00000000000E+00 0.  1.
         -2   -1    0    0    0  501 -0.00000000000E+00 -0.00000000000E+00 -0.20618294641E+04  0.20618294641E+04  0.00000000000E+00 0. -1.
         23    2    1    2    0    0  0.16432423758E+04  0.61042033664E+03  0.60725195021E+03  0.18571381328E+04  0.85724093819E+02 0.  0.
         11    1    3    3    0    0  0.57389130533E+03  0.17568716844E+03  0.18614844991E+03  0.62838559571E+03  0.00000000000E+00 0.  1.
        -11    1    3    3    0    0  0.10693510704E+04  0.43473316820E+03  0.42110350030E+03  0.12287525371E+04  0.00000000000E+00 0. -1.
         22    1    1    2    0    0 -0.16432423758E+04 -0.61042033664E+03 -0.90224797851E+03  0.19715247672E+04  0.00000000000E+00 0. -1.
<mgrwt>
<rscale>  0 0.38172814E+04</rscale>
<asrwt>0</asrwt>
<pdfrwt beam="1">  1        2 0.27182053E+00 0.38172814E+04</pdfrwt>
<pdfrwt beam="2">  1       -2 0.31720453E+00 0.38172814E+04</pdfrwt>
<totfact> 0.17957291E-01</totfact>
</mgrwt>
</event>
<event>
 6    1  0.5040916E-004  0.3223799E+04  0.7818608E-02  0.8182560E-01
          2   -1    0    0  501    0  0.00000000000E+00  0.00000000000E+00  0.17298439905E+04  0.17298439905E+04  0.00000000000E+00 0. -1.
         -2   -1    0    0    0  501 -0.00000000000E+00 -0.00000000000E+00 -0.15019970720E+04  0.15019970720E+04  0.00000000000E+00 0.  1.
         23    2    1    2    0    0  0.11309031424E+04  0.26100746905E+03 -0.10054270281E+04  0.15383147285E+04  0.91988471373E+02 0.  0.
         13    1    3    3    0    0  0.37201160232E+03  0.13038721427E+03 -0.34483516363E+03  0.52374110779E+03  0.00000000000E+00 0. -1.
        -13    1    3    3    0    0  0.75889154006E+03  0.13062025478E+03 -0.66059186448E+03  0.10145736208E+04  0.00000000000E+00 0.  1.
         22    1    1    2    0    0 -0.11309031424E+04 -0.26100746905E+03  0.12332739467E+04  0.16935263340E+04  0.00000000000E+00 0. -1.
<mgrwt>
<rscale>  0 0.32237994E+04</rscale>
<asrwt>0</asrwt>
<pdfrwt beam="1">  1        2 0.26612985E+00 0.32237994E+04</pdfrwt>
<pdfrwt beam="2">  1       -2 0.23107647E+00 0.32237994E+04</pdfrwt>
<totfact> 0.66783979E-01</totfact>
</mgrwt>
</event>
<event>
 6    1  0.5040916E-004  0.1300859E+04  0.7818608E-02  0.9028884E-01
          2   -1    0    0  501    0  0.00000000000E+00  0.00000000000E+00  0.96740776474E+03  0.96740776474E+03  0.00000000000E+00 0.  1.
         -2   -1    0    0    0  501 -0.00000000000E+00 -0.00000000000E+00 -0.43731141340E+03  0.43731141340E+03  0.00000000000E+00 0. -1.
         23    2    1    2    0    0 -0.41687214503E+03 -0.40767848172E+03  0.56966508020E+03  0.82029654506E+03  0.91564122211E+02 0.  0.
         11    1    3    3    0    0 -0.26779935422E+03 -0.31677634068E+03  0.38085494703E+03  0.56312896819E+03  0.00000000000E+00 0. -1.
        -11    1    3    3    0    0 -0.14907279081E+03 -0.90902141038E+02  0.18881013317E+03  0.25716757687E+03  0.00000000000E+00 0.  1.
         22    1    1    2    0    0  0.41687214503E+03  0.40767848172E+03 -0.39568728858E+02  0.58442263309E+03  0.00000000000E+00 0. -1.
<mgrwt>
<rscale>  0 0.13008589E+04</rscale>
<asrwt>0</asrwt>
<pdfrwt beam="1">  1        2 0.14883196E+00 0.13008589E+04</pdfrwt>
<pdfrwt beam="2">  1       -2 0.67278679E-01 0.13008589E+04</pdfrwt>
<totfact> 0.52539067E+01</totfact>
</mgrwt>
</event>
<event>
 6    1  0.5040916E-004  0.2475163E+04  0.7818608E-02  0.8411888E-01
         -2   -1    0    0    0  501 -0.00000000000E+00  0.00000000000E+00  0.11641222583E+04  0.11641222583E+04  0.00000000000E+00 0. -1.
          2   -1    0    0  501    0  0.00000000000E+00 -0.00000000000E+00 -0.13156760530E+04  0.13156760530E+04  0.00000000000E+00 0.  1.
         23    2    1    2    0    0  0.11240160642E+04  0.27062240475E+03 -0.51337211971E+03  0.12683689493E+04  0.92521671422E+02 0.  0.
         11    1    3    3    0    0  0.70770178274E+03  0.15278628013E+03 -0.27573864017E+03  0.77473689622E+03  0.00000000000E+00 0. -1.
        -11    1    3    3    0    0  0.41631428151E+03  0.11783612462E+03 -0.23763347953E+03  0.49363205310E+03  0.00000000000E+00 0.  1.
         22    1    1    2    0    0 -0.11240160642E+04 -0.27062240475E+03  0.36181832499E+03  0.12114293619E+04  0.00000000000E+00 0. -1.
<mgrwt>
<rscale>  0 0.24751628E+04</rscale>
<asrwt>0</asrwt>
<pdfrwt beam="1">  1        2 0.20241170E+00 0.24751628E+04</pdfrwt>
<pdfrwt beam="2">  1       -2 0.17909573E+00 0.24751628E+04</pdfrwt>
<totfact> 0.26614842E+00</totfact>
</mgrwt>
</event>
<event>
 6    1  0.5040916E-004  0.2721745E+04  0.7818608E-02  0.8327984E-01
         -2   -1    0    0    0  501 -0.00000000000E+00  0.00000000000E+00  0.91914141481E+03  0.91914141481E+03  0.00000000000E+00 0.  1.
          2   -1    0    0  501    0  0.00000000000E+00 -0.00000000000E+00 -0.20148956178E+04  0.20148956178E+04  0.00000000000E+00 0. -1.
         23    2    1    2    0    0  0.13022985728E+04 -0.29594906132E+02 -0.13004950107E+03  0.13124812974E+04  0.94004532653E+02 0.  0.
         11    1    3    3    0    0  0.26052976207E+03  0.74296835866E+01 -0.61561441683E+02  0.26780733415E+03  0.00000000000E+00 0. -1.
        -11    1    3    3    0    0  0.10417688107E+04 -0.37024589719E+02 -0.68488059391E+02  0.10446739632E+04  0.00000000000E+00 0.  1.
         22    1    1    2    0    0 -0.13022985728E+04  0.29594906132E+02 -0.96570470189E+03  0.16215557352E+04  0.00000000000E+00 0. -1.
<mgrwt>
<rscale>  0 0.27217450E+04</rscale>
<asrwt>0</asrwt>
<pdfrwt beam="1">  1        2 0.30998394E+00 0.27217450E+04</pdfrwt>
<pdfrwt beam="2">  1       -2 0.14140637E+00 0.27217450E+04</pdfrwt>
<totfact> 0.20088196E+00</totfact>
</mgrwt>
</event>
<event>
 6    1  0.5040916E-004  0.3768064E+04  0.7818608E-02  0.8053043E-01
         -2   -1    0    0    0  501 -0.00000000000E+00  0.00000000000E+00  0.87949531810E+03  0.87949531810E+03  0.00000000000E+00 0. -1.
          2   -1    0    0  501    0  0.00000000000E+00 -0.00000000000E+00 -0.40359243857E+04  0.40359243857E+04  0.00000000000E+00 0.  1.
         23    2    1    2    0    0  0.12075958833E+04 -0.84785364743E+02 -0.34604400168E+04  0.36672614476E+04  0.93193561443E+02 0.  0.
         13    1    3    3    0    0  0.97248198744E+03 -0.98573773850E+02 -0.28501488748E+04  0.30131024897E+04  0.00000000000E+00 0. -1.
        -13    1    3    3    0    0  0.23511389584E+03  0.13788409106E+02 -0.61029114200E+03  0.65415895794E+03  0.00000000000E+00 0.  1.
         22    1    1    2    0    0 -0.12075958833E+04  0.84785364743E+02  0.30401094915E+03  0.12481582562E+04  0.00000000000E+00 0. -1.
<mgrwt>
<rscale>  0 0.37680640E+04</rscale>
<asrwt>0</asrwt>
<pdfrwt beam="1">  1        2 0.62091146E+00 0.37680640E+04</pdfrwt>
<pdfrwt beam="2">  1       -2 0.13530697E+00 0.37680640E+04</pdfrwt>
<totfact> 0.10049588E-01</totfact>
</mgrwt>
</event>
<event>
 6    1  0.5040916E-004  0.5185306E+04  0.7818608E-02  0.7800541E-01
         -2   -1    0    0    0  501 -0.00000000000E+00  0.00000000000E+00  0.23653213326E+04  0.23653213326E+04  0.00000000000E+00 0. -1.
          2   -1    0    0  501    0  0.00000000000E+00 -0.00000000000E+00 -0.28418330901E+04  0.28418330901E+04  0.00000000000E+00 0.  1.
         23    2    1    2    0    0  0.50501283083E+03 -0.17828363525E+04 -0.20582221815E+04  0.27708967834E+04  0.89705164760E+02 0.  0.
         11    1    3    3    0    0  0.16512395481E+03 -0.50335520717E+03 -0.64010590257E+03  0.83088383757E+03  0.00000000000E+00 0. -1.
        -11    1    3    3    0    0  0.33988887602E+03 -0.12794811454E+04 -0.14181162790E+04  0.19400129458E+04  0.00000000000E+00 0.  1.
         22    1    1    2    0    0 -0.50501283083E+03  0.17828363525E+04  0.15817104241E+04  0.24362576393E+04  0.00000000000E+00 0. -1.
<mgrwt>
<rscale>  0 0.51853056E+04</rscale>
<asrwt>0</asrwt>
<pdfrwt beam="1">  1        2 0.43720509E+00 0.51853056E+04</pdfrwt>
<pdfrwt beam="2">  1       -2 0.36389559E+00 0.51853056E+04</pdfrwt>
<totfact> 0.19872516E-02</totfact>
</mgrwt>
</event>
<event>
 6    1  0.5040916E-004  0.1342894E+04  0.7818608E-02  0.8996225E-01
          1   -1    0    0  501    0  0.00000000000E+00  0.00000000000E+00  0.16722280224E+04  0.16722280224E+04  0.00000000000E+00 0.  1.
         -1   -1    0    0    0  501 -0.00000000000E+00 -0.00000000000E+00 -0.26960493823E+03  0.26960493823E+03  0.00000000000E+00 0. -1.
         23    2    1    2    0    0  0.25982262007E+03  0.57775468742E+03  0.39591704328E+03  0.75239388044E+03  0.89654745673E+02 0.  0.
         11    1    3    3    0    0  0.14460031628E+03  0.24110555898E+03  0.13980374410E+03  0.31398444055E+03  0.00000000000E+00 0. -1.
        -11    1    3    3    0    0  0.11522230379E+03  0.33664912844E+03  0.25611329918E+03  0.43840943989E+03  0.00000000000E+00 0.  1.
         22    1    1    2    0    0 -0.25982262007E+03 -0.57775468742E+03  0.10067060408E+04  0.11894390802E+04  0.00000000000E+00 0. -1.
<mgrwt>
<rscale>  0 0.13428938E+04</rscale>
<asrwt>0</asrwt>
<pdfrwt beam="1">  1        1 0.25726584E+00 0.13428938E+04</pdfrwt>
<pdfrwt beam="2">  1       -1 0.41477684E-01 0.13428938E+04</pdfrwt>
<totfact> 0.27786468E+01</totfact>
</mgrwt>
</event>
<event>
 6    1  0.5040916E-004  0.6849573E+04  0.7818608E-02  0.7593151E-01
         -2   -1    0    0    0  501 -0.00000000000E+00  0.00000000000E+00  0.28960717918E+04  0.28960717918E+04  0.00000000000E+00 0. -1.
          2   -1    0    0  501    0  0.00000000000E+00 -0.00000000000E+00 -0.40500248141E+04  0.40500248141E+04  0.00000000000E+00 0.  1.
         23    2    1    2    0    0 -0.13856830927E+04  0.18771458116E+03 -0.37467851345E+04  0.40002295419E+04  0.89906319465E+02 0.  0.
         11    1    3    3    0    0 -0.44650474515E+03  0.90493676423E+02 -0.11356220992E+04  0.12235984411E+04  0.00000000000E+00 0. -1.
        -11    1    3    3    0    0 -0.93917834753E+03  0.97220904738E+02 -0.26111630353E+04  0.27766311008E+04  0.00000000000E+00 0.  1.
         22    1    1    2    0    0  0.13856830927E+04 -0.18771458116E+03  0.25928321121E+04  0.29458670641E+04  0.00000000000E+00 0. -1.
<mgrwt>
<rscale>  0 0.68495730E+04</rscale>
<asrwt>0</asrwt>
<pdfrwt beam="1">  1        2 0.62308074E+00 0.68495730E+04</pdfrwt>
<pdfrwt beam="2">  1       -2 0.44554951E+00 0.68495730E+04</pdfrwt>
<totfact> 0.72877366E-04</totfact>
</mgrwt>
</event>
<event>
 6    1  0.5040916E-004  0.2724395E+04  0.7818608E-02  0.8327133E-01
          1   -1    0    0  501    0  0.00000000000E+00  0.00000000000E+00  0.71984901549E+03  0.71984901549E+03  0.00000000000E+00 0.  1.
         -1   -1    0    0    0  501 -0.00000000000E+00 -0.00000000000E+00 -0.25777383801E+04  0.25777383801E+04  0.00000000000E+00 0. -1.
         23    2    1    2    0    0 -0.77552557840E+03  0.95910123280E+03 -0.16255431833E+04  0.20424779002E+04  0.89499913531E+02 0.  0.
         11    1    3    3    0    0 -0.24464595290E+03  0.37059187055E+03 -0.57783241009E+03  0.72875254438E+03  0.00000000000E+00 0. -1.
        -11    1    3    3    0    0 -0.53087962550E+03  0.58850936225E+03 -0.10477107732E+04  0.13137253558E+04  0.00000000000E+00 0.  1.
         22    1    1    2    0    0  0.77552557840E+03 -0.95910123280E+03 -0.23234618135E+03  0.12551094954E+04  0.00000000000E+00 0.  1.
<mgrwt>
<rscale>  0 0.27243953E+04</rscale>
<asrwt>0</asrwt>
<pdfrwt beam="1">  1        1 0.11074600E+00 0.27243953E+04</pdfrwt>
<pdfrwt beam="2">  1       -1 0.39657514E+00 0.27243953E+04</pdfrwt>
<totfact> 0.17164925E-01</totfact>
</mgrwt>
</event>
<event>
 6    1  0.5040916E-004  0.2170396E+04  0.7818608E-02  0.8530852E-01
          2   -1    0    0  501    0  0.00000000000E+00  0.00000000000E+00  0.12612790581E+04  0.12612790581E+04  0.00000000000E+00 0.  1.
         -2   -1    0    0    0  501 -0.00000000000E+00 -0.00000000000E+00 -0.93369914952E+03  0.93369914952E+03  0.00000000000E+00 0. -1.
         23    2    1    2    0    0 -0.62875998622E+03  0.30587361858E+03 -0.67255981621E+03  0.97465970004E+03  0.93418593829E+02 0.  0.
         13    1    3    3    0    0 -0.46553928263E+03  0.19138638338E+03 -0.44211141014E+03  0.66993885571E+03  0.00000000000E+00 0.  1.
        -13    1    3    3    0    0 -0.16322070359E+03  0.11448723520E+03 -0.23044840607E+03  0.30472084432E+03  0.00000000000E+00 0. -1.
         22    1    1    2    0    0  0.62875998622E+03 -0.30587361858E+03  0.10001397248E+04  0.12203185075E+04  0.00000000000E+00 0.  1.
<mgrwt>
<rscale>  0 0.21703964E+04</rscale>
<asrwt>0</asrwt>
<pdfrwt beam="1">  1        2 0.19404293E+00 0.21703964E+04</pdfrwt>
<pdfrwt beam="2">  1       -2 0.14364602E+00 0.21703964E+04</pdfrwt>
<totfact> 0.53608463E+00</totfact>
</mgrwt>
</event>
<event>
 6    1  0.5040916E-004  0.7042903E+03  0.7818608E-02  0.9709923E-01
          2   -1    0    0  501    0  0.00000000000E+00  0.00000000000E+00  0.26838546882E+04  0.26838546882E+04  0.00000000000E+00 0.  1.
         -2   -1    0    0    0  501 -0.00000000000E+00 -0.00000000000E+00 -0.46204519493E+02  0.46204519493E+02  0.00000000000E+00 0. -1.
         23    2    1    2    0    0 -0.10844667970E+03 -0.71659117126E+02  0.25849776981E+04  0.25898090720E+04  0.90031207336E+02 0.  0.
         13    1    3    3    0    0 -0.69550559465E+02 -0.80625224546E+02  0.13524030528E+04  0.13565882663E+04  0.00000000000E+00 0.  1.
        -13    1    3    3    0    0 -0.38896120234E+02  0.89661074200E+01  0.12325746453E+04  0.12332208056E+04  0.00000000000E+00 0. -1.
         22    1    1    2    0    0  0.10844667970E+03  0.71659117126E+02  0.52672470610E+02  0.14025013570E+03  0.00000000000E+00 0. -1.
<mgrwt>
<rscale>  0 0.70429033E+03</rscale>
<asrwt>0</asrwt>
<pdfrwt beam="1">  1        2 0.41290060E+00 0.70429033E+03</pdfrwt>
<pdfrwt beam="2">  1       -2 0.71083897E-02 0.70429033E+03</pdfrwt>
<totfact> 0.33819303E+02</totfact>
</mgrwt>
</event>
<event>
 6    1  0.5040916E-004  0.4862790E+04  0.7818608E-02  0.7850029E-01
         -2   -1    0    0    0  501 -0.00000000000E+00  0.00000000000E+00  0.15956504971E+04  0.15956504971E+04  0.00000000000E+00 0.  1.
          2   -1    0    0  501    0  0.00000000000E+00 -0.00000000000E+00 -0.37048718221E+04  0.37048718221E+04  0.00000000000E+00 0. -1.
         23    2    1    2    0    0  0.10467306811E+04 -0.19454218178E+04 -0.21596039063E+04  0.30908052395E+04  0.94216920168E+02 0.  0.
         13    1    3    3    0    0  0.95863253214E+03 -0.18303974262E+04 -0.20219909103E+04  0.28909822398E+04  0.00000000000E+00 0. -1.
        -13    1    3    3    0    0  0.88098148962E+02 -0.11502439167E+03 -0.13761299603E+03  0.19982299969E+03  0.00000000000E+00 0.  1.
         22    1    1    2    0    0 -0.10467306811E+04  0.19454218178E+04  0.50382581360E+02  0.22097170798E+04  0.00000000000E+00 0.  1.
<mgrwt>
<rscale>  0 0.48627896E+04</rscale>
<asrwt>0</asrwt>
<pdfrwt beam="1">  1        2 0.56998027E+00 0.48627896E+04</pdfrwt>
<pdfrwt beam="2">  1       -2 0.24548470E+00 0.48627896E+04</pdfrwt>
<totfact> 0.29106447E-02</totfact>
</mgrwt>
</event>
<event>
 6    1  0.5040916E-004  0.1567315E+04  0.7818608E-02  0.8840883E-01
         -2   -1    0    0    0  501 -0.00000000000E+00  0.00000000000E+00  0.26967430195E+03  0.26967430195E+03  0.00000000000E+00 0. -1.
          2   -1    0    0  501    0  0.00000000000E+00 -0.00000000000E+00 -0.22772619952E+04  0.22772619952E+04  0.00000000000E+00 0.  1.
         23    2    1    2    0    0 -0.60834430350E+03  0.21240559362E+02 -0.18019597281E+04  0.19044280770E+04  0.96195039349E+02 0.  0.
         13    1    3    3    0    0 -0.32458281144E+03  0.59068383476E+02 -0.94914471247E+03  0.10048476305E+04  0.00000000000E+00 0.  1.
        -13    1    3    3    0    0 -0.28376149206E+03 -0.37827824114E+02 -0.85281501565E+03  0.89958044642E+03  0.00000000000E+00 0. -1.
         22    1    1    2    0    0  0.60834430350E+03 -0.21240559362E+02 -0.20562796510E+03  0.64250822017E+03  0.00000000000E+00 0. -1.
<mgrwt>
<rscale>  0 0.15673150E+04</rscale>
<asrwt>0</asrwt>
<pdfrwt beam="1">  1        2 0.35034801E+00 0.15673150E+04</pdfrwt>
<pdfrwt beam="2">  1       -2 0.41488353E-01 0.15673150E+04</pdfrwt>
<totfact> 0.24740491E+01</totfact>
</mgrwt>
</event>
<event>
 6    1  0.5040916E-004  0.2674004E+04  0.7818608E-02  0.8343489E-01
         -2   -1    0    0    0  501 -0.00000000000E+00  0.00000000000E+00  0.97956228139E+03  0.97956228139E+03  0.00000000000E+00 0. -1.
          2   -1    0    0  501    0  0.00000000000E+00 -0.00000000000E+00 -0.18248703498E+04  0.18248703498E+04  0.00000000000E+00 0.  1.
         23    2    1    2    0    0 -0.94899186205E+03  0.93842772444E+03 -0.38415124308E+03  0.13923781826E+04  0.99562430864E+02 0.  0.
         11    1    3    3    0    0 -0.25559649136E+03  0.26399025758E+03 -0.15176196528E+03  0.39755768964E+03  0.00000000000E+00 0. -1.
        -11    1    3    3    0    0 -0.69339537069E+03  0.67443746686E+03 -0.23238927780E+03  0.99482049297E+03  0.00000000000E+00 0.  1.
         22    1    1    2    0    0  0.94899186205E+03 -0.93842772444E+03 -0.46115682536E+03  0.14120544486E+04  0.00000000000E+00 0.  1.
<mgrwt>
<rscale>  0 0.26740039E+04</rscale>
<asrwt>0</asrwt>
<pdfrwt beam="1">  1        2 0.28074928E+00 0.26740039E+04</pdfrwt>
<pdfrwt beam="2">  1       -2 0.15070189E+00 0.26740039E+04</pdfrwt>
<totfact> 0.21749933E+00</totfact>
</mgrwt>
</event>
<event>
 6    1  0.7078991E-004  0.3893271E+04  0.7818608E-02  0.8026430E-01
         -2   -1    0    0    0  501 -0.00000000000E+00  0.00000000000E+00  0.20234442410E+04  0.20234442410E+04  0.00000000000E+00 0. -1.
          2   -1    0    0  501    0  0.00000000000E+00 -0.00000000000E+00 -0.18727424621E+04  0.18727424621E+04  0.00000000000E+00 0.  1.
         23    2    1    2    0    0  0.89894627121E+03 -0.99074290137E+02  0.17992081131E+04  0.20158959684E+04  0.93630165159E+02 0.  0.
         13    1    3    3    0    0  0.61312754110E+03 -0.24314359634E+02  0.11955931253E+04  0.13438599224E+04  0.00000000000E+00 0.  1.
        -13    1    3    3    0    0  0.28581873011E+03 -0.74759930503E+02  0.60361498779E+03  0.67203604604E+03  0.00000000000E+00 0. -1.
         22    1    1    2    0    0 -0.89894627121E+03  0.99074290137E+02 -0.16485063342E+04  0.18802907348E+04  0.00000000000E+00 0.  1.
<mgrwt>
<rscale>  0 0.38932711E+04</rscale>
<asrwt>0</asrwt>
<pdfrwt beam="1">  1        2 0.28811423E+00 0.38932711E+04</pdfrwt>
<pdfrwt beam="2">  1       -2 0.31129911E+00 0.38932711E+04</pdfrwt>
<totfact> 0.16949213E-01</totfact>
</mgrwt>
</event>
<event>
 6    1  0.5040916E-004  0.4689990E+04  0.7818608E-02  0.7878194E-01
          2   -1    0    0  501    0  0.00000000000E+00  0.00000000000E+00  0.26742412678E+04  0.26742412678E+04  0.00000000000E+00 0.  1.
         -2   -1    0    0    0  501 -0.00000000000E+00 -0.00000000000E+00 -0.20562849979E+04  0.20562849979E+04  0.00000000000E+00 0. -1.
         23    2    1    2    0    0 -0.59675379533E+03 -0.15873304630E+03 -0.19716928199E+04  0.20682727690E+04  0.94172174912E+02 0.  0.
         13    1    3    3    0    0 -0.41415156050E+03 -0.64468104033E+02 -0.13186277642E+04  0.13836389818E+04  0.00000000000E+00 0. -1.
        -13    1    3    3    0    0 -0.18260223483E+03 -0.94264942271E+02 -0.65306505569E+03  0.68463378712E+03  0.00000000000E+00 0.  1.
         22    1    1    2    0    0  0.59675379533E+03  0.15873304630E+03  0.25896490898E+04  0.26622534967E+04  0.00000000000E+00 0.  1.
<mgrwt>
<rscale>  0 0.46899903E+04</rscale>
<asrwt>0</asrwt>
<pdfrwt beam="1">  1        2 0.41142173E+00 0.46899903E+04</pdfrwt>
<pdfrwt beam="2">  1       -2 0.31635154E+00 0.46899903E+04</pdfrwt>
<totfact> 0.51761110E-02</totfact>
</mgrwt>
</event>
<event>
 6    1  0.5040916E-004  0.2218172E+04  0.7818608E-02  0.8510903E-01
         -2   -1    0    0    0  501 -0.00000000000E+00  0.00000000000E+00  0.82998456406E+03  0.82998456406E+03  0.00000000000E+00 0. -1.
          2   -1    0    0  501    0  0.00000000000E+00 -0.00000000000E+00 -0.14820412237E+04  0.14820412237E+04  0.00000000000E+00 0.  1.
         23    2    1    2    0    0  0.94737134662E+03 -0.56122992579E+03 -0.20569870084E+03  0.11238646348E+04  0.90929994472E+02 0.  0.
         11    1    3    3    0    0  0.68830757176E+03 -0.42502989475E+03 -0.11278211751E+03  0.81678487425E+03  0.00000000000E+00 0. -1.
        -11    1    3    3    0    0  0.25906377486E+03 -0.13620003104E+03 -0.92916583327E+02  0.30707976058E+03  0.00000000000E+00 0.  1.
         22    1    1    2    0    0 -0.94737134662E+03  0.56122992579E+03 -0.44635795884E+03  0.11881611530E+04  0.00000000000E+00 0.  1.
<mgrwt>
<rscale>  0 0.22181716E+04</rscale>
<asrwt>0</asrwt>
<pdfrwt beam="1">  1        2 0.22800634E+00 0.22181716E+04</pdfrwt>
<pdfrwt beam="2">  1       -2 0.12768993E+00 0.22181716E+04</pdfrwt>
<totfact> 0.53905883E+00</totfact>
</mgrwt>
</event>
<event>
 6    1  0.5040916E-004  0.2071760E+04  0.7818608E-02  0.8573786E-01
         -2   -1    0    0    0  501 -0.00000000000E+00  0.00000000000E+00  0.13577151363E+04  0.13577151363E+04  0.00000000000E+00 0. -1.
          2   -1    0    0  501    0  0.00000000000E+00 -0.00000000000E+00 -0.79033307390E+03  0.79033307390E+03  0.00000000000E+00 0.  1.
         23    2    1    2    0    0 -0.99367701203E+03  0.11539222685E+03  0.13736386504E+02  0.10047053462E+04  0.92383840966E+02 0.  0.
         13    1    3    3    0    0 -0.35752576705E+03 -0.24203070591E+01  0.11976150917E+02  0.35773448280E+03  0.00000000000E+00 0. -1.
        -13    1    3    3    0    0 -0.63615124498E+03  0.11781253391E+03  0.17602355869E+01  0.64697086338E+03  0.00000000000E+00 0.  1.
         22    1    1    2    0    0  0.99367701203E+03 -0.11539222685E+03  0.55364567588E+03  0.11433428640E+04  0.00000000000E+00 0. -1.
<mgrwt>
<rscale>  0 0.20717598E+04</rscale>
<asrwt>0</asrwt>
<pdfrwt beam="1">  1        2 0.12158970E+00 0.20717598E+04</pdfrwt>
<pdfrwt beam="2">  1       -2 0.20887925E+00 0.20717598E+04</pdfrwt>
<totfact> 0.37629515E+00</totfact>
</mgrwt>
</event>
<event>
 6    1  0.5040916E-004  0.1704888E+04  0.7818608E-02  0.8758582E-01
         -2   -1    0    0    0  501 -0.00000000000E+00  0.00000000000E+00  0.35669669234E+03  0.35669669234E+03  0.00000000000E+00 0. -1.
          2   -1    0    0  501    0  0.00000000000E+00 -0.00000000000E+00 -0.20371945404E+04  0.20371945404E+04  0.00000000000E+00 0.  1.
         23    2    1    2    0    0  0.40493171017E+03  0.60295891413E+03 -0.22220365687E+03  0.76473467486E+03  0.88969184468E+02 0.  0.
         13    1    3    3    0    0  0.37232783567E+03  0.51518127467E+03 -0.21417532321E+03  0.67075392809E+03  0.00000000000E+00 0. -1.
        -13    1    3    3    0    0  0.32603874499E+02  0.87777639461E+02 -0.80283336558E+01  0.93980746768E+02  0.00000000000E+00 0.  1.
         22    1    1    2    0    0 -0.40493171017E+03 -0.60295891413E+03 -0.14582941912E+04  0.16291565579E+04  0.00000000000E+00 0.  1.
<mgrwt>
<rscale>  0 0.17048877E+04</rscale>
<asrwt>0</asrwt>
<pdfrwt beam="1">  1        2 0.31341454E+00 0.17048877E+04</pdfrwt>
<pdfrwt beam="2">  1       -2 0.54876415E-01 0.17048877E+04</pdfrwt>
<totfact> 0.18928721E+01</totfact>
</mgrwt>
</event>
<event>
 6    1  0.5040916E-004  0.3044395E+04  0.7818608E-02  0.8231166E-01
         -2   -1    0    0    0  501 -0.00000000000E+00  0.00000000000E+00  0.13836027012E+04  0.13836027012E+04  0.00000000000E+00 0. -1.
          2   -1    0    0  501    0  0.00000000000E+00 -0.00000000000E+00 -0.16746757127E+04  0.16746757127E+04  0.00000000000E+00 0.  1.
         23    2    1    2    0    0  0.56101094102E+03  0.11860032196E+04  0.62726821731E+03  0.14568142321E+04  0.86633581687E+02 0.  0.
         11    1    3    3    0    0  0.28064587060E+03  0.61220767766E+03  0.36906014817E+03  0.76796206823E+03  0.00000000000E+00 0. -1.
        -11    1    3    3    0    0  0.28036507042E+03  0.57379554199E+03  0.25820806914E+03  0.68885216388E+03  0.00000000000E+00 0.  1.
         22    1    1    2    0    0 -0.56101094102E+03 -0.11860032196E+04 -0.91834122883E+03  0.16014641818E+04  0.00000000000E+00 0.  1.
<mgrwt>
<rscale>  0 0.30443954E+04</rscale>
<asrwt>0</asrwt>
<pdfrwt beam="1">  1        2 0.25764242E+00 0.30443954E+04</pdfrwt>
<pdfrwt beam="2">  1       -2 0.21286195E+00 0.30443954E+04</pdfrwt>
<totfact> 0.94844925E-01</totfact>
</mgrwt>
</event>
<event>
 6    1  0.5040916E-004  0.1139941E+04  0.7818608E-02  0.9167114E-01
         -2   -1    0    0    0  501 -0.00000000000E+00  0.00000000000E+00  0.26748660356E+03  0.26748660356E+03  0.00000000000E+00 0. -1.
          2   -1    0    0  501    0  0.00000000000E+00 -0.00000000000E+00 -0.12145145187E+04  0.12145145187E+04  0.00000000000E+00 0.  1.
         23    2    1    2    0    0 -0.20901801876E+03 -0.40771920273E+03 -0.90912693193E+03  0.10222621039E+04  0.92652848455E+02 0.  0.
         13    1    3    3    0    0 -0.34476603675E+02 -0.15669618122E+03 -0.27795532942E+03  0.32093845915E+03  0.00000000000E+00 0. -1.
        -13    1    3    3    0    0 -0.17454141508E+03 -0.25102302151E+03 -0.63117160251E+03  0.70132364478E+03  0.00000000000E+00 0.  1.
         22    1    1    2    0    0  0.20901801876E+03  0.40771920273E+03 -0.37900983204E+02  0.45973901832E+03  0.00000000000E+00 0. -1.
<mgrwt>
<rscale>  0 0.11399410E+04</rscale>
<asrwt>0</asrwt>
<pdfrwt beam="1">  1        2 0.18684839E+00 0.11399410E+04</pdfrwt>
<pdfrwt beam="2">  1       -2 0.41151784E-01 0.11399410E+04</pdfrwt>
<totfact> 0.10278902E+02</totfact>
</mgrwt>
</event>
<event>
 6    1  0.5040916E-004  0.4225340E+04  0.7818608E-02  0.7960569E-01
          2   -1    0    0  501    0  0.00000000000E+00  0.00000000000E+00  0.29145272793E+04  0.29145272793E+04  0.00000000000E+00 0.  1.
         -2   -1    0    0    0  501 -0.00000000000E+00 -0.00000000000E+00 -0.15314234945E+04  0.15314234945E+04  0.00000000000E+00 0. -1.
         23    2    1    2    0    0 -0.88544548195E+03  0.13812780397E+04  0.20897248698E+04  0.26595420629E+04  0.11946224734E+03 0.  0.
         13    1    3    3    0    0 -0.40677031702E+03  0.70961057822E+03  0.11114848233E+04  0.13800028174E+04  0.00000000000E+00 0. -1.
        -13    1    3    3    0    0 -0.47867516493E+03  0.67166746148E+03  0.97824004651E+03  0.12795392456E+04  0.00000000000E+00 0.  1.
         22    1    1    2    0    0  0.88544548195E+03 -0.13812780397E+04 -0.70662108506E+03  0.17864087109E+04  0.00000000000E+00 0. -1.
<mgrwt>
<rscale>  0 0.42253405E+04</rscale>
<asrwt>0</asrwt>
<pdfrwt beam="1">  1        2 0.44838881E+00 0.42253405E+04</pdfrwt>
<pdfrwt beam="2">  1       -2 0.23560362E+00 0.42253405E+04</pdfrwt>
<totfact> 0.12021273E-01</totfact>
</mgrwt>
</event>
<event>
 6    1  0.5040916E-004  0.6654585E+04  0.7818608E-02  0.7614146E-01
          2   -1    0    0  501    0  0.00000000000E+00  0.00000000000E+00  0.32996827840E+04  0.32996827840E+04  0.00000000000E+00 0.  1.
         -2   -1    0    0    0  501 -0.00000000000E+00 -0.00000000000E+00 -0.33551336126E+04  0.33551336126E+04  0.00000000000E+00 0. -1.
         23    2    1    2    0    0  0.18064877762E+04  0.14514239897E+04 -0.24145480162E+04  0.33479494166E+04  0.93238887776E+02 0.  0.
         11    1    3    3    0    0  0.90720098337E+03  0.67626614205E+03 -0.11463398263E+04  0.16107279462E+04  0.00000000000E+00 0.  1.
        -11    1    3    3    0    0  0.89928679282E+03  0.77515784764E+03 -0.12682081899E+04  0.17372214704E+04  0.00000000000E+00 0. -1.
         22    1    1    2    0    0 -0.18064877762E+04 -0.14514239897E+04  0.23590971876E+04  0.33068669800E+04  0.00000000000E+00 0.  1.
<mgrwt>
<rscale>  0 0.66545854E+04</rscale>
<asrwt>0</asrwt>
<pdfrwt beam="1">  1        2 0.50764350E+00 0.66545854E+04</pdfrwt>
<pdfrwt beam="2">  1       -2 0.51617441E+00 0.66545854E+04</pdfrwt>
<totfact> 0.95330776E-04</totfact>
</mgrwt>
</event>
<event>
 6    1  0.5040916E-004  0.2276385E+04  0.7818608E-02  0.8487291E-01
         -2   -1    0    0    0  501 -0.00000000000E+00  0.00000000000E+00  0.15430019163E+04  0.15430019163E+04  0.00000000000E+00 0. -1.
          2   -1    0    0  501    0  0.00000000000E+00 -0.00000000000E+00 -0.83958576420E+03  0.83958576420E+03  0.00000000000E+00 0.  1.
         23    2    1    2    0    0 -0.12554988254E+03 -0.32892556679E+03  0.14831375853E+04  0.15270642647E+04  0.90958068061E+02 0.  0.
         13    1    3    3    0    0 -0.96428555910E+02 -0.13872177154E+03  0.60903767416E+03  0.63203566738E+03  0.00000000000E+00 0.  1.
        -13    1    3    3    0    0 -0.29121326628E+02 -0.19020379525E+03  0.87409991112E+03  0.89502859732E+03  0.00000000000E+00 0. -1.
         22    1    1    2    0    0  0.12554988254E+03  0.32892556679E+03 -0.77972143322E+03  0.85552341576E+03  0.00000000000E+00 0.  1.
<mgrwt>
<rscale>  0 0.22763852E+04</rscale>
<asrwt>0</asrwt>
<pdfrwt beam="1">  1        2 0.12916704E+00 0.22763852E+04</pdfrwt>
<pdfrwt beam="2">  1       -2 0.23738491E+00 0.22763852E+04</pdfrwt>
<totfact> 0.22539103E+00</totfact>
</mgrwt>
</event>
<event>
 6    1  0.5040916E-004  0.2127826E+04  0.7818608E-02  0.8549084E-01
          2   -1    0    0  501    0  0.00000000000E+00  0.00000000000E+00  0.13636530341E+04  0.13636530341E+04  0.00000000000E+00 0.  1.
         -2   -1    0    0    0  501 -0.00000000000E+00 -0.00000000000E+00 -0.83005761757E+03  0.83005761757E+03  0.00000000000E+00 0. -1.
         23    2    1    2    0    0  0.79486062961E+03 -0.11646008211E+03 -0.44820071819E+03  0.92513269926E+03  0.98082904850E+02 0.  0.
         13    1    3    3    0    0  0.39424291430E+03 -0.10416092334E+02 -0.20203253987E+03  0.44311749866E+03  0.00000000000E+00 0. -1.
        -13    1    3    3    0    0  0.40061771531E+03 -0.10604398978E+03 -0.24616817832E+03  0.48201520060E+03  0.00000000000E+00 0.  1.
         22    1    1    2    0    0 -0.79486062961E+03  0.11646008211E+03  0.98179613474E+03  0.12685779524E+04  0.00000000000E+00 0.  1.
<mgrwt>
<rscale>  0 0.21278257E+04</rscale>
<asrwt>0</asrwt>
<pdfrwt beam="1">  1        2 0.20979278E+00 0.21278257E+04</pdfrwt>
<pdfrwt beam="2">  1       -2 0.12770117E+00 0.21278257E+04</pdfrwt>
<totfact> 0.63442667E+00</totfact>
</mgrwt>
</event>
<event>
 6    1  0.5040916E-004  0.4166473E+04  0.7818608E-02  0.7971780E-01
         -2   -1    0    0    0  501 -0.00000000000E+00  0.00000000000E+00  0.20196099801E+04  0.20196099801E+04  0.00000000000E+00 0.  1.
          2   -1    0    0  501    0  0.00000000000E+00 -0.00000000000E+00 -0.21488679066E+04  0.21488679066E+04  0.00000000000E+00 0. -1.
         23    2    1    2    0    0 -0.14255477779E+04  0.71273221150E+02 -0.15814292315E+04  0.21322883479E+04  0.92026327541E+02 0.  0.
         11    1    3    3    0    0 -0.11844829862E+04  0.64133498853E+02 -0.12611428384E+04  0.17313562052E+04  0.00000000000E+00 0. -1.
        -11    1    3    3    0    0 -0.24106479168E+03  0.71397222969E+01 -0.32028639312E+03  0.40093214269E+03  0.00000000000E+00 0.  1.
         22    1    1    2    0    0  0.14255477779E+04 -0.71273221150E+02  0.14521713050E+04  0.20361895389E+04  0.00000000000E+00 0.  1.
<mgrwt>
<rscale>  0 0.41664734E+04</rscale>
<asrwt>0</asrwt>
<pdfrwt beam="1">  1        2 0.33059506E+00 0.41664734E+04</pdfrwt>
<pdfrwt beam="2">  1       -2 0.31070923E+00 0.41664734E+04</pdfrwt>
<totfact> 0.11731747E-01</totfact>
</mgrwt>
</event>
<event>
 6    1  0.5040916E-004  0.2949714E+04  0.7818608E-02  0.8258238E-01
          2   -1    0    0  501    0  0.00000000000E+00  0.00000000000E+00  0.97707376476E+03  0.97707376476E+03  0.00000000000E+00 0.  1.
         -2   -1    0    0    0  501 -0.00000000000E+00 -0.00000000000E+00 -0.22262418151E+04  0.22262418151E+04  0.00000000000E+00 0. -1.
         23    2    1    2    0    0 -0.53226220736E+03 -0.16576284604E+02  0.86681178136E+03  0.10213558005E+04  0.90703783277E+02 0.  0.
         11    1    3    3    0    0 -0.29107619493E+03 -0.18078266225E+02  0.55698526215E+03  0.62871675436E+03  0.00000000000E+00 0.  1.
        -11    1    3    3    0    0 -0.24118601243E+03  0.15019816211E+01  0.30982651922E+03  0.39263904613E+03  0.00000000000E+00 0. -1.
         22    1    1    2    0    0  0.53226220736E+03  0.16576284604E+02 -0.21159798317E+04  0.21819597794E+04  0.00000000000E+00 0. -1.
<mgrwt>
<rscale>  0 0.29497135E+04</rscale>
<asrwt>0</asrwt>
<pdfrwt beam="1">  1        2 0.15031904E+00 0.29497135E+04</pdfrwt>
<pdfrwt beam="2">  1       -2 0.34249874E+00 0.29497135E+04</pdfrwt>
<totfact> 0.38849016E-01</totfact>
</mgrwt>
</event>
<event>
 6    1  0.5040916E-004  0.7882668E+03  0.7818608E-02  0.9577157E-01
         -2   -1    0    0    0  501 -0.00000000000E+00  0.00000000000E+00  0.18152880138E+03  0.18152880138E+03  0.00000000000E+00 0. -1.
          2   -1    0    0  501    0  0.00000000000E+00 -0.00000000000E+00 -0.85573830604E+03  0.85573830604E+03  0.00000000000E+00 0.  1.
         23    2    1    2    0    0 -0.14060718209E+03  0.21626995725E+02 -0.81779466235E+03  0.83514139380E+03  0.91841881839E+02 0.  0.
         13    1    3    3    0    0 -0.66620641950E+02 -0.35705756306E+02 -0.38260413528E+03  0.38999889141E+03  0.00000000000E+00 0. -1.
        -13    1    3    3    0    0 -0.73986540142E+02  0.57332752031E+02 -0.43519052707E+03  0.44514250239E+03  0.00000000000E+00 0.  1.
         22    1    1    2    0    0  0.14060718209E+03 -0.21626995725E+02  0.14358515769E+03  0.20212571363E+03  0.00000000000E+00 0. -1.
<mgrwt>
<rscale>  0 0.78826683E+03</rscale>
<asrwt>0</asrwt>
<pdfrwt beam="1">  1        2 0.13165205E+00 0.78826683E+03</pdfrwt>
<pdfrwt beam="2">  1       -2 0.27927508E-01 0.78826683E+03</pdfrwt>
<totfact> 0.36991807E+02</totfact>
</mgrwt>
</event>
<event>
 6    1  0.5040916E-004  0.2539350E+04  0.7818608E-02  0.8389100E-01
         -2   -1    0    0    0  501 -0.00000000000E+00  0.00000000000E+00  0.54305472346E+03  0.54305472346E+03  0.00000000000E+00 0. -1.
          2   -1    0    0  501    0  0.00000000000E+00 -0.00000000000E+00 -0.29685304278E+04  0.29685304278E+04  0.00000000000E+00 0.  1.
         23    2    1    2    0    0  0.68188962675E+02  0.12474319853E+04 -0.91390636065E+03  0.15505705737E+04  0.91148096727E+02 0.  0.
         11    1    3    3    0    0 -0.13278905295E+02  0.41951712844E+03 -0.27783553337E+03  0.50335229610E+03  0.00000000000E+00 0.  1.
        -11    1    3    3    0    0  0.81467867970E+02  0.82791485683E+03 -0.63607082728E+03  0.10472182776E+04  0.00000000000E+00 0. -1.
         22    1    1    2    0    0 -0.68188962675E+02 -0.12474319853E+04 -0.15115693437E+04  0.19610145775E+04  0.00000000000E+00 0.  1.
<mgrwt>
<rscale>  0 0.25393499E+04</rscale>
<asrwt>0</asrwt>
<pdfrwt beam="1">  1        2 0.45669698E+00 0.25393499E+04</pdfrwt>
<pdfrwt beam="2">  1       -2 0.83546883E-01 0.25393499E+04</pdfrwt>
<totfact> 0.20296661E+00</totfact>
</mgrwt>
</event>
<event>
 6    1  0.5040916E-004  0.2771655E+04  0.7818608E-02  0.8312123E-01
         -2   -1    0    0    0  501 -0.00000000000E+00  0.00000000000E+00  0.78489246053E+03  0.78489246053E+03  0.00000000000E+00 0. -1.
          2   -1    0    0  501    0  0.00000000000E+00 -0.00000000000E+00 -0.24468546583E+04  0.24468546583E+04  0.00000000000E+00 0.  1.
         23    2    1    2    0    0 -0.39317926055E+03 -0.12401263011E+04 -0.28031892848E+03  0.13340007456E+04  0.92065813642E+02 0.  0.
         11    1    3    3    0    0 -0.22365199129E+03 -0.56207355784E+03 -0.11451148952E+03  0.61567830794E+03  0.00000000000E+00 0. -1.
        -11    1    3    3    0    0 -0.16952726926E+03 -0.67805274323E+03 -0.16580743896E+03  0.71832243766E+03  0.00000000000E+00 0.  1.
         22    1    1    2    0    0  0.39317926055E+03  0.12401263011E+04 -0.13816432693E+04  0.18977463732E+04  0.00000000000E+00 0. -1.
<mgrwt>
<rscale>  0 0.27716549E+04</rscale>
<asrwt>0</asrwt>
<pdfrwt beam="1">  1        2 0.37643917E+00 0.27716549E+04</pdfrwt>
<pdfrwt beam="2">  1       -2 0.12075269E+00 0.27716549E+04</pdfrwt>
<totfact> 0.17033455E+00</totfact>
</mgrwt>
</event>
<event>
 6    1  0.5040916E-004  0.1307806E+04  0.7818608E-02  0.9023397E-01
         -4   -1    0    0    0  501 -0.00000000000E+00  0.00000000000E+00  0.16870878897E+04  0.16870878897E+04  0.00000000000E+00 0. -1.
          4   -1    0    0  501    0  0.00000000000E+00 -0.00000000000E+00 -0.25344821401E+03  0.25344821401E+03  0.00000000000E+00 0.  1.
         23    2    1    2    0    0  0.76499390881E+02 -0.33491410821E+03  0.15403544267E+04  0.15808033490E+04  0.90707507063E+02 0.  0.
         11    1    3    3    0    0  0.18542951265E+02 -0.13849018625E+03  0.82346456280E+03  0.83523485255E+03  0.00000000000E+00 0.  1.
        -11    1    3    3    0    0  0.57956439616E+02 -0.19642392196E+03  0.71688986388E+03  0.74556849648E+03  0.00000000000E+00 0. -1.
         22    1    1    2    0    0 -0.76499390881E+02  0.33491410821E+03 -0.10671475102E+03  0.35973275465E+03  0.00000000000E+00 0.  1.
<mgrwt>
<rscale>  0 0.13078064E+04</rscale>
<asrwt>0</asrwt>
<pdfrwt beam="1">  1        4 0.38992034E-01 0.13078064E+04</pdfrwt>
<pdfrwt beam="2">  1       -4 0.25955198E+00 0.13078064E+04</pdfrwt>
<totfact> 0.69581963E-01</totfact>
</mgrwt>
</event>
<event>
 6    1  0.5040916E-004  0.9116066E+03  0.7818608E-02  0.9411188E-01
          2   -1    0    0  501    0  0.00000000000E+00  0.00000000000E+00  0.12011731823E+04  0.12011731823E+04  0.00000000000E+00 0.  1.
         -2   -1    0    0    0  501 -0.00000000000E+00 -0.00000000000E+00 -0.17296145547E+03  0.17296145547E+03  0.00000000000E+00 0. -1.
         23    2    1    2    0    0 -0.13514597032E+02  0.24271920726E+03  0.10923393574E+04  0.11227233992E+04  0.90594157657E+02 0.  0.
         13    1    3    3    0    0  0.33985510594E+02  0.60899505551E+02  0.35724525455E+03  0.36398892374E+03  0.00000000000E+00 0. -1.
        -13    1    3    3    0    0 -0.47500107626E+02  0.18181970171E+03  0.73509410287E+03  0.75873447545E+03  0.00000000000E+00 0.  1.
         22    1    1    2    0    0  0.13514597032E+02 -0.24271920726E+03 -0.64127630543E+02  0.25141123863E+03  0.00000000000E+00 0. -1.
<mgrwt>
<rscale>  0 0.91160663E+03</rscale>
<asrwt>0</asrwt>
<pdfrwt beam="1">  1        2 0.18479587E+00 0.91160663E+03</pdfrwt>
<pdfrwt beam="2">  1       -2 0.26609455E-01 0.91160663E+03</pdfrwt>
<totfact> 0.24226124E+02</totfact>
</mgrwt>
</event>
<event>
 6    1  0.5040916E-004  0.2087329E+04  0.7818608E-02  0.8566846E-01
          2   -1    0    0  501    0  0.00000000000E+00  0.00000000000E+00  0.55845033165E+03  0.55845033165E+03  0.00000000000E+00 0.  1.
         -2   -1    0    0    0  501 -0.00000000000E+00 -0.00000000000E+00 -0.19504606164E+04  0.19504606164E+04  0.00000000000E+00 0. -1.
         23    2    1    2    0    0  0.29679791142E+03  0.77299832948E+03  0.61945992971E+02  0.83570914458E+03  0.94641696417E+02 0.  0.
         13    1    3    3    0    0  0.26200774845E+03  0.57623244272E+03  0.60490673340E+02  0.63588600382E+03  0.00000000000E+00 0. -1.
        -13    1    3    3    0    0  0.34790162971E+02  0.19676588676E+03  0.14553196310E+01  0.19982314077E+03  0.00000000000E+00 0.  1.
         22    1    1    2    0    0 -0.29679791142E+03 -0.77299832948E+03 -0.14539562777E+04  0.16732018035E+04  0.00000000000E+00 0. -1.
<mgrwt>
<rscale>  0 0.20873288E+04</rscale>
<asrwt>0</asrwt>
<pdfrwt beam="1">  1        2 0.85915434E-01 0.20873288E+04</pdfrwt>
<pdfrwt beam="2">  1       -2 0.30007087E+00 0.20873288E+04</pdfrwt>
<totfact> 0.15848352E+00</totfact>
</mgrwt>
</event>
<event>
 6    1  0.5040916E-004  0.1362732E+04  0.7818608E-02  0.8981245E-01
          2   -1    0    0  501    0  0.00000000000E+00  0.00000000000E+00  0.10567362164E+04  0.10567362164E+04  0.00000000000E+00 0. -1.
         -2   -1    0    0    0  501 -0.00000000000E+00 -0.00000000000E+00 -0.43933377074E+03  0.43933377074E+03  0.00000000000E+00 0.  1.
         23    2    1    2    0    0  0.30862816733E+03  0.19882453356E+03  0.93623635439E+03  0.10098214887E+04  0.91751768494E+02 0.  0.
         13    1    3    3    0    0  0.68786083873E+02  0.22735089713E+02  0.28106165505E+03  0.29024827920E+03  0.00000000000E+00 0. -1.
        -13    1    3    3    0    0  0.23984208346E+03  0.17608944384E+03  0.65517469934E+03  0.71957320954E+03  0.00000000000E+00 0.  1.
         22    1    1    2    0    0 -0.30862816733E+03 -0.19882453356E+03 -0.31883390875E+03  0.48624849838E+03  0.00000000000E+00 0.  1.
<mgrwt>
<rscale>  0 0.13627324E+04</rscale>
<asrwt>0</asrwt>
<pdfrwt beam="1">  1        2 0.16257480E+00 0.13627324E+04</pdfrwt>
<pdfrwt beam="2">  1       -2 0.67589811E-01 0.13627324E+04</pdfrwt>
<totfact> 0.45396644E+01</totfact>
</mgrwt>
</event>
<event>
 6    1  0.5040916E-004  0.7142310E+04  0.7818608E-02  0.7562934E-01
          2   -1    0    0  501    0  0.00000000000E+00  0.00000000000E+00  0.28657932228E+04  0.28657932228E+04  0.00000000000E+00 0.  1.
         -2   -1    0    0    0  501 -0.00000000000E+00 -0.00000000000E+00 -0.44501284403E+04  0.44501284403E+04  0.00000000000E+00 0. -1.
         23    2    1    2    0    0  0.27321647902E+03 -0.35067769256E+04 -0.14211295907E+04  0.37947332661E+04  0.90882325854E+02 0.  0.
         13    1    3    3    0    0  0.24515329017E+03 -0.27948374831E+04 -0.11593319086E+04  0.30356658523E+04  0.00000000000E+00 0. -1.
        -13    1    3    3    0    0  0.28063188851E+02 -0.71193944252E+03 -0.26179768213E+03  0.75906741383E+03  0.00000000000E+00 0.  1.
         22    1    1    2    0    0 -0.27321647902E+03  0.35067769256E+04 -0.16320562681E+03  0.35211883970E+04  0.00000000000E+00 0.  1.
<mgrwt>
<rscale>  0 0.71423100E+04</rscale>
<asrwt>0</asrwt>
<pdfrwt beam="1">  1        2 0.44089127E+00 0.71423100E+04</pdfrwt>
<pdfrwt beam="2">  1       -2 0.68463514E+00 0.71423100E+04</pdfrwt>
<totfact> 0.34433218E-04</totfact>
</mgrwt>
</event>
<event>
 6    1  0.5040916E-004  0.1989568E+04  0.7818608E-02  0.8611513E-01
         -2   -1    0    0    0  501 -0.00000000000E+00  0.00000000000E+00  0.98605335257E+03  0.98605335257E+03  0.00000000000E+00 0. -1.
          2   -1    0    0  501    0  0.00000000000E+00 -0.00000000000E+00 -0.10035922870E+04  0.10035922870E+04  0.00000000000E+00 0.  1.
         23    2    1    2    0    0  0.59464310863E+02  0.46265645901E+03  0.86749052117E+03  0.98921366257E+03  0.91743460625E+02 0.  0.
         11    1    3    3    0    0  0.95085935706E+01  0.36461804767E+03  0.64443625174E+03  0.74049633125E+03  0.00000000000E+00 0.  1.
        -11    1    3    3    0    0  0.49955717292E+02  0.98038411338E+02  0.22305426944E+03  0.24871733132E+03  0.00000000000E+00 0. -1.
         22    1    1    2    0    0 -0.59464310863E+02 -0.46265645901E+03 -0.88502945562E+03  0.10004319770E+04  0.00000000000E+00 0.  1.
<mgrwt>
<rscale>  0 0.19895683E+04</rscale>
<asrwt>0</asrwt>
<pdfrwt beam="1">  1        2 0.15439881E+00 0.19895683E+04</pdfrwt>
<pdfrwt beam="2">  1       -2 0.15170052E+00 0.19895683E+04</pdfrwt>
<totfact> 0.67733853E+00</totfact>
</mgrwt>
</event>
<event>
 6    1  0.5040916E-004  0.2186303E+04  0.7818608E-02  0.8524151E-01
         -2   -1    0    0    0  501 -0.00000000000E+00  0.00000000000E+00  0.29563176708E+03  0.29563176708E+03  0.00000000000E+00 0. -1.
          2   -1    0    0  501    0  0.00000000000E+00 -0.00000000000E+00 -0.40421242995E+04  0.40421242995E+04  0.00000000000E+00 0.  1.
         23    2    1    2    0    0  0.93087542143E+03 -0.55595759603E+03 -0.21215974756E+04  0.23843227187E+04  0.90559813482E+02 0.  0.
         13    1    3    3    0    0  0.50049237410E+03 -0.32142951111E+03 -0.12517935263E+04  0.13859280572E+04  0.00000000000E+00 0.  1.
        -13    1    3    3    0    0  0.43038304733E+03 -0.23452808492E+03 -0.86980394927E+03  0.99839466155E+03  0.00000000000E+00 0. -1.
         22    1    1    2    0    0 -0.93087542143E+03  0.55595759603E+03 -0.16248950569E+04  0.19534333479E+04  0.00000000000E+00 0. -1.
<mgrwt>
<rscale>  0 0.21863031E+04</rscale>
<asrwt>0</asrwt>
<pdfrwt beam="1">  1        2 0.62186528E+00 0.21863031E+04</pdfrwt>
<pdfrwt beam="2">  1       -2 0.45481810E-01 0.21863031E+04</pdfrwt>
<totfact> 0.13362771E+00</totfact>
</mgrwt>
</event>
<event>
 6    1  0.5040916E-004  0.1533156E+04  0.7818608E-02  0.8862699E-01
         -2   -1    0    0    0  501 -0.00000000000E+00  0.00000000000E+00  0.15548473986E+04  0.15548473986E+04  0.00000000000E+00 0. -1.
          2   -1    0    0  501    0  0.00000000000E+00 -0.00000000000E+00 -0.37794158086E+03  0.37794158086E+03  0.00000000000E+00 0.  1.
         23    2    1    2    0    0  0.25272073012E+03 -0.10733803665E+03 -0.30792163396E+03  0.42278838910E+03  0.92439535671E+02 0.  0.
         11    1    3    3    0    0  0.65195065623E+02  0.13260683897E+02 -0.77937739036E+02  0.10247211077E+03  0.00000000000E+00 0.  1.
        -11    1    3    3    0    0  0.18752566449E+03 -0.12059872054E+03 -0.22998389493E+03  0.32031627833E+03  0.00000000000E+00 0. -1.
         22    1    1    2    0    0 -0.25272073012E+03  0.10733803665E+03  0.14848274518E+04  0.15100005904E+04  0.00000000000E+00 0. -1.
<mgrwt>
<rscale>  0 0.15331555E+04</rscale>
<asrwt>0</asrwt>
<pdfrwt beam="1">  1        2 0.58144859E-01 0.15331555E+04</pdfrwt>
<pdfrwt beam="2">  1       -2 0.23920729E+00 0.15331555E+04</pdfrwt>
<totfact> 0.61210685E+00</totfact>
</mgrwt>
</event>
<event>
 6    1  0.5040916E-004  0.2047456E+04  0.7818608E-02  0.8584749E-01
         -2   -1    0    0    0  501 -0.00000000000E+00  0.00000000000E+00  0.75110347971E+03  0.75110347971E+03  0.00000000000E+00 0. -1.
          2   -1    0    0  501    0  0.00000000000E+00 -0.00000000000E+00 -0.13953056376E+04  0.13953056376E+04  0.00000000000E+00 0.  1.
         23    2    1    2    0    0  0.54913106803E+03  0.86041359441E+03 -0.27511602625E+03  0.10610146932E+04  0.90591765082E+02 0.  0.
         11    1    3    3    0    0  0.29690652134E+03  0.38247472518E+03 -0.12171541208E+03  0.49925448356E+03  0.00000000000E+00 0. -1.
        -11    1    3    3    0    0  0.25222454669E+03  0.47793886923E+03 -0.15340061416E+03  0.56176020961E+03  0.00000000000E+00 0.  1.
         22    1    1    2    0    0 -0.54913106803E+03 -0.86041359441E+03 -0.36908613161E+03  0.10853944241E+04  0.00000000000E+00 0. -1.
<mgrwt>
<rscale>  0 0.20474559E+04</rscale>
<asrwt>0</asrwt>
<pdfrwt beam="1">  1        2 0.21466241E+00 0.20474559E+04</pdfrwt>
<pdfrwt beam="2">  1       -2 0.11555438E+00 0.20474559E+04</pdfrwt>
<totfact> 0.78544560E+00</totfact>
</mgrwt>
</event>
<event>
 6    1  0.5040916E-004  0.4617205E+04  0.7818608E-02  0.7890433E-01
         -2   -1    0    0    0  501 -0.00000000000E+00  0.00000000000E+00  0.31137487888E+04  0.31137487888E+04  0.00000000000E+00 0. -1.
          2   -1    0    0  501    0  0.00000000000E+00 -0.00000000000E+00 -0.17116495137E+04  0.17116495137E+04  0.00000000000E+00 0.  1.
         23    2    1    2    0    0 -0.14258114977E+04 -0.16834949361E+04 -0.62242489125E+01  0.22080582835E+04  0.91591568092E+02 0.  0.
         11    1    3    3    0    0 -0.17955218553E+03 -0.16894130967E+03 -0.81609096449E+01  0.24667134793E+03  0.00000000000E+00 0.  1.
        -11    1    3    3    0    0 -0.12462593122E+04 -0.15145536264E+04  0.19366607324E+01  0.19613869356E+04  0.00000000000E+00 0. -1.
         22    1    1    2    0    0  0.14258114977E+04  0.16834949361E+04  0.14083235240E+04  0.26173400190E+04  0.00000000000E+00 0. -1.
<mgrwt>
<rscale>  0 0.46172055E+04</rscale>
<asrwt>0</asrwt>
<pdfrwt beam="1">  1        2 0.26333070E+00 0.46172055E+04</pdfrwt>
<pdfrwt beam="2">  1       -2 0.47903827E+00 0.46172055E+04</pdfrwt>
<totfact> 0.16296709E-02</totfact>
</mgrwt>
</event>
<event>
 6    1  0.5040916E-004  0.2280173E+04  0.7818608E-02  0.8485780E-01
         -2   -1    0    0    0  501 -0.00000000000E+00  0.00000000000E+00  0.40498039493E+03  0.40498039493E+03  0.00000000000E+00 0. -1.
          2   -1    0    0  501    0  0.00000000000E+00 -0.00000000000E+00 -0.32095309889E+04  0.32095309889E+04  0.00000000000E+00 0.  1.
         23    2    1    2    0    0  0.86877877029E+03  0.63146510322E+01 -0.25715114794E+04  0.27149983736E+04  0.61061066356E+02 0.  0.
         11    1    3    3    0    0  0.41597736509E+03  0.33345210435E+02 -0.12217752636E+04  0.12910785669E+04  0.00000000000E+00 0. -1.
        -11    1    3    3    0    0  0.45280140520E+03 -0.27030559402E+02 -0.13497362158E+04  0.14239198067E+04  0.00000000000E+00 0.  1.
         22    1    1    2    0    0 -0.86877877029E+03 -0.63146510322E+01 -0.23303911457E+03  0.89951301015E+03  0.00000000000E+00 0.  1.
<mgrwt>
<rscale>  0 0.22801729E+04</rscale>
<asrwt>0</asrwt>
<pdfrwt beam="1">  1        2 0.49377397E+00 0.22801729E+04</pdfrwt>
<pdfrwt beam="2">  1       -2 0.62304679E-01 0.22801729E+04</pdfrwt>
<totfact> 0.27792862E+00</totfact>
</mgrwt>
</event>
<event>
 6    1  0.5040916E-004  0.2332067E+04  0.7818608E-02  0.8465384E-01
          2   -1    0    0  501    0  0.00000000000E+00  0.00000000000E+00  0.15977657495E+04  0.15977657495E+04  0.00000000000E+00 0.  1.
         -2   -1    0    0    0  501 -0.00000000000E+00 -0.00000000000E+00 -0.85095965777E+03  0.85095965777E+03  0.00000000000E+00 0. -1.
         23    2    1    2    0    0 -0.74553646571E+03  0.76896434151E+02  0.13095812033E+04  0.15114669000E+04  0.88269918147E+02 0.  0.
         13    1    3    3    0    0 -0.31327071914E+03  0.72130312437E+02  0.52200715749E+03  0.61305203524E+03  0.00000000000E+00 0.  1.
        -13    1    3    3    0    0 -0.43226574657E+03  0.47661217149E+01  0.78757404579E+03  0.89841486474E+03  0.00000000000E+00 0. -1.
         22    1    1    2    0    0  0.74553646571E+03 -0.76896434151E+02 -0.56277511156E+03  0.93725850729E+03  0.00000000000E+00 0. -1.
<mgrwt>
<rscale>  0 0.23320671E+04</rscale>
<asrwt>0</asrwt>
<pdfrwt beam="1">  1        2 0.24581011E+00 0.23320671E+04</pdfrwt>
<pdfrwt beam="2">  1       -2 0.13091687E+00 0.23320671E+04</pdfrwt>
<totfact> 0.43152318E+00</totfact>
</mgrwt>
</event>
<event>
 6    1  0.5040916E-004  0.1507173E+04  0.7818608E-02  0.8879697E-01
          2   -1    0    0  501    0  0.00000000000E+00  0.00000000000E+00  0.34038920386E+04  0.34038920386E+04  0.00000000000E+00 0.  1.
         -2   -1    0    0    0  501 -0.00000000000E+00 -0.00000000000E+00 -0.16683625981E+03  0.16683625981E+03  0.00000000000E+00 0. -1.
         23    2    1    2    0    0  0.74493678010E+03 -0.93816735723E+02  0.16389190540E+04  0.18050065261E+04  0.90887332893E+02 0.  0.
         11    1    3    3    0    0  0.56162786278E+03 -0.55520409908E+02  0.11387222562E+04  0.12709039101E+04  0.00000000000E+00 0. -1.
        -11    1    3    3    0    0  0.18330891732E+03 -0.38296325815E+02  0.50019679789E+03  0.53410261595E+03  0.00000000000E+00 0.  1.
         22    1    1    2    0    0 -0.74493678010E+03  0.93816735723E+02  0.15981367248E+04  0.17657217723E+04  0.00000000000E+00 0. -1.
<mgrwt>
<rscale>  0 0.15071730E+04</rscale>
<asrwt>0</asrwt>
<pdfrwt beam="1">  1        2 0.52367565E+00 0.15071730E+04</pdfrwt>
<pdfrwt beam="2">  1       -2 0.25667119E-01 0.15071730E+04</pdfrwt>
<totfact> 0.12670954E+01</totfact>
</mgrwt>
</event>
<event>
 6    1  0.5040916E-004  0.1937621E+04  0.7818608E-02  0.8636353E-01
          2   -1    0    0  501    0  0.00000000000E+00  0.00000000000E+00  0.22452307946E+04  0.22452307946E+04  0.00000000000E+00 0.  1.
         -2   -1    0    0    0  501 -0.00000000000E+00 -0.00000000000E+00 -0.41803902005E+03  0.41803902005E+03  0.00000000000E+00 0. -1.
         23    2    1    2    0    0 -0.78328926481E+03 -0.51649134514E+03  0.59512635988E+03  0.11146282912E+04  0.88968879148E+02 0.  0.
         11    1    3    3    0    0 -0.59588693255E+03 -0.34572435255E+03  0.43565454237E+03  0.81510824104E+03  0.00000000000E+00 0. -1.
        -11    1    3    3    0    0 -0.18740233226E+03 -0.17076699259E+03  0.15947181751E+03  0.29952005021E+03  0.00000000000E+00 0.  1.
         22    1    1    2    0    0  0.78328926481E+03  0.51649134514E+03  0.12320654147E+04  0.15486415234E+04  0.00000000000E+00 0.  1.
<mgrwt>
<rscale>  0 0.19376213E+04</rscale>
<asrwt>0</asrwt>
<pdfrwt beam="1">  1        2 0.34542011E+00 0.19376213E+04</pdfrwt>
<pdfrwt beam="2">  1       -2 0.64313697E-01 0.19376213E+04</pdfrwt>
<totfact> 0.10156716E+01</totfact>
</mgrwt>
</event>
<event>
 6    1  0.5040916E-004  0.1124308E+04  0.7818608E-02  0.9181818E-01
          2   -1    0    0  501    0  0.00000000000E+00  0.00000000000E+00  0.19482334592E+04  0.19482334592E+04  0.00000000000E+00 0.  1.
         -2   -1    0    0    0  501 -0.00000000000E+00 -0.00000000000E+00 -0.16220695874E+03  0.16220695874E+03  0.00000000000E+00 0. -1.
         23    2    1    2    0    0  0.13117827172E+03  0.50322577813E+03  0.51662914598E+03  0.73864831770E+03  0.90839088640E+02 0.  0.
         13    1    3    3    0    0  0.58715237392E+02  0.34903487859E+03  0.30710804894E+03  0.46860236801E+03  0.00000000000E+00 0. -1.
        -13    1    3    3    0    0  0.72463034326E+02  0.15419089953E+03  0.20952109703E+03  0.27004594969E+03  0.00000000000E+00 0.  1.
         22    1    1    2    0    0 -0.13117827172E+03 -0.50322577813E+03  0.12693973545E+04  0.13717921003E+04  0.00000000000E+00 0.  1.
<mgrwt>
<rscale>  0 0.11243078E+04</rscale>
<asrwt>0</asrwt>
<pdfrwt beam="1">  1        2 0.29972821E+00 0.11243078E+04</pdfrwt>
<pdfrwt beam="2">  1       -2 0.24954918E-01 0.11243078E+04</pdfrwt>
<totfact> 0.10202712E+02</totfact>
</mgrwt>
</event>
<event>
 6    1  0.5040916E-004  0.1859991E+04  0.7818608E-02  0.8675032E-01
          2   -1    0    0  501    0  0.00000000000E+00  0.00000000000E+00  0.30564221240E+04  0.30564221240E+04  0.00000000000E+00 0.  1.
         -2   -1    0    0    0  501 -0.00000000000E+00 -0.00000000000E+00 -0.28297512783E+03  0.28297512783E+03  0.00000000000E+00 0. -1.
         23    2    1    2    0    0 -0.77919181064E+03  0.50346582288E+03  0.13910519721E+04  0.16745748243E+04  0.92506975729E+02 0.  0.
         11    1    3    3    0    0 -0.56331989693E+03  0.40315793911E+03  0.99226734157E+03  0.12101487955E+04  0.00000000000E+00 0.  1.
        -11    1    3    3    0    0 -0.21587191371E+03  0.10030788377E+03  0.39878463052E+03  0.46442602879E+03  0.00000000000E+00 0. -1.
         22    1    1    2    0    0  0.77919181064E+03 -0.50346582288E+03  0.13823950240E+04  0.16648224275E+04  0.00000000000E+00 0.  1.
<mgrwt>
<rscale>  0 0.18599908E+04</rscale>
<asrwt>0</asrwt>
<pdfrwt beam="1">  1        2 0.47021877E+00 0.18599908E+04</pdfrwt>
<pdfrwt beam="2">  1       -2 0.43534637E-01 0.18599908E+04</pdfrwt>
<totfact> 0.75689888E+00</totfact>
</mgrwt>
</event>
<event>
 6    1  0.5040916E-004  0.2294668E+04  0.7818608E-02  0.8480026E-01
          2   -1    0    0  501    0  0.00000000000E+00  0.00000000000E+00  0.11134586493E+04  0.11134586493E+04  0.00000000000E+00 0.  1.
         -2   -1    0    0    0  501 -0.00000000000E+00 -0.00000000000E+00 -0.11822403903E+04  0.11822403903E+04  0.00000000000E+00 0. -1.
         23    2    1    2    0    0 -0.76134357963E+03  0.75584660077E+03 -0.43552324748E+03  0.11619232846E+04  0.97144686295E+02 0.  0.
         13    1    3    3    0    0 -0.44958103010E+03  0.44405024593E+03 -0.30774449027E+03  0.70285873035E+03  0.00000000000E+00 0. -1.
        -13    1    3    3    0    0 -0.31176254953E+03  0.31179635484E+03 -0.12777875721E+03  0.45906455426E+03  0.00000000000E+00 0.  1.
         22    1    1    2    0    0  0.76134357963E+03 -0.75584660077E+03  0.36674150651E+03  0.11337757550E+04  0.00000000000E+00 0.  1.
<mgrwt>
<rscale>  0 0.22946684E+04</rscale>
<asrwt>0</asrwt>
<pdfrwt beam="1">  1        2 0.17130133E+00 0.22946684E+04</pdfrwt>
<pdfrwt beam="2">  1       -2 0.18188314E+00 0.22946684E+04</pdfrwt>
<totfact> 0.34114492E+00</totfact>
</mgrwt>
</event>
<event>
 6    1  0.5040916E-004  0.7906304E+03  0.7818608E-02  0.9573679E-01
          2   -1    0    0  501    0  0.00000000000E+00  0.00000000000E+00  0.48442241125E+03  0.48442241125E+03  0.00000000000E+00 0.  1.
         -2   -1    0    0    0  501 -0.00000000000E+00 -0.00000000000E+00 -0.32259884391E+03  0.32259884391E+03  0.00000000000E+00 0. -1.
         23    2    1    2    0    0 -0.14847519833E+03  0.57438678426E+02  0.44437151373E+03  0.48271055797E+03  0.10099185249E+03 0.  0.
         11    1    3    3    0    0 -0.12241181783E+03  0.81134379990E+02  0.29882502956E+03  0.33296221866E+03  0.00000000000E+00 0.  1.
        -11    1    3    3    0    0 -0.26063380505E+02 -0.23695701563E+02  0.14554648416E+03  0.14974833932E+03  0.00000000000E+00 0. -1.
         22    1    1    2    0    0  0.14847519833E+03 -0.57438678426E+02 -0.28254794639E+03  0.32431069718E+03  0.00000000000E+00 0. -1.
<mgrwt>
<rscale>  0 0.79063041E+03</rscale>
<asrwt>0</asrwt>
<pdfrwt beam="1">  1        2 0.74526524E-01 0.79063041E+03</pdfrwt>
<pdfrwt beam="2">  1       -2 0.49630592E-01 0.79063041E+03</pdfrwt>
<totfact> 0.24724843E+02</totfact>
</mgrwt>
</event>
<event>
 6    1  0.5040916E-004  0.3889719E+04  0.7818608E-02  0.8027171E-01
         -2   -1    0    0    0  501 -0.00000000000E+00  0.00000000000E+00  0.17097344740E+04  0.17097344740E+04  0.00000000000E+00 0. -1.
          2   -1    0    0  501    0  0.00000000000E+00 -0.00000000000E+00 -0.22123187319E+04  0.22123187319E+04  0.00000000000E+00 0.  1.
         23    2    1    2    0    0  0.14168429663E+04 -0.41463290861E+03  0.10235451797E+04  0.17987455267E+04  0.92066797381E+02 0.  0.
         11    1    3    3    0    0  0.11557787191E+04 -0.36461636504E+03  0.80879945835E+03  0.14570264599E+04  0.00000000000E+00 0.  1.
        -11    1    3    3    0    0  0.26106424717E+03 -0.50016543573E+02  0.21474572133E+03  0.34171906680E+03  0.00000000000E+00 0. -1.
         22    1    1    2    0    0 -0.14168429663E+04  0.41463290861E+03 -0.15261294376E+04  0.21233076791E+04  0.00000000000E+00 0.  1.
<mgrwt>
<rscale>  0 0.38897186E+04</rscale>
<asrwt>0</asrwt>
<pdfrwt beam="1">  1        2 0.34035673E+00 0.38897186E+04</pdfrwt>
<pdfrwt beam="2">  1       -2 0.26303607E+00 0.38897186E+04</pdfrwt>
<totfact> 0.21624931E-01</totfact>
</mgrwt>
</event>
<event>
 6    1  0.5040916E-004  0.1062251E+04  0.7818608E-02  0.9242786E-01
         -1   -1    0    0    0  501 -0.00000000000E+00  0.00000000000E+00  0.49475135188E+03  0.49475135188E+03  0.00000000000E+00 0. -1.
          1   -1    0    0  501    0  0.00000000000E+00 -0.00000000000E+00 -0.57017399519E+03  0.57017399519E+03  0.00000000000E+00 0.  1.
         23    2    1    2    0    0 -0.20034673102E+03  0.14027250249E+02  0.45070255075E+03  0.50177057598E+03  0.91133667142E+02 0.  0.
         13    1    3    3    0    0 -0.14649837811E+03 -0.29912783731E+02  0.27910440595E+03  0.31663199277E+03  0.00000000000E+00 0.  1.
        -13    1    3    3    0    0 -0.53848352907E+02  0.43940033980E+02  0.17159814479E+03  0.18513858321E+03  0.00000000000E+00 0. -1.
         22    1    1    2    0    0  0.20034673102E+03 -0.14027250249E+02 -0.52612519406E+03  0.56315477109E+03  0.00000000000E+00 0.  1.
<mgrwt>
<rscale>  0 0.10622511E+04</rscale>
<asrwt>0</asrwt>
<pdfrwt beam="1">  1        1 0.87719076E-01 0.10622511E+04</pdfrwt>
<pdfrwt beam="2">  1       -1 0.76115592E-01 0.10622511E+04</pdfrwt>
<totfact> 0.63842971E+01</totfact>
</mgrwt>
</event>
<event>
 6    1  0.5040916E-004  0.4566338E+04  0.7818608E-02  0.7899125E-01
          2   -1    0    0  501    0  0.00000000000E+00  0.00000000000E+00  0.31670182066E+04  0.31670182066E+04  0.00000000000E+00 0.  1.
         -2   -1    0    0    0  501 -0.00000000000E+00 -0.00000000000E+00 -0.16459839020E+04  0.16459839020E+04  0.00000000000E+00 0. -1.
         23    2    1    2    0    0 -0.17120336832E+04 -0.97104615088E+03 -0.45685601040E+03  0.20226544496E+04  0.91780437266E+02 0.  0.
         11    1    3    3    0    0 -0.86166711102E+03 -0.43619613629E+03 -0.21967305666E+03  0.99045117565E+03  0.00000000000E+00 0.  1.
        -11    1    3    3    0    0 -0.85036657219E+03 -0.53485001459E+03 -0.23718295374E+03  0.10322032739E+04  0.00000000000E+00 0. -1.
         22    1    1    2    0    0  0.17120336832E+04  0.97104615088E+03  0.19778903150E+04  0.27903476589E+04  0.00000000000E+00 0.  1.
<mgrwt>
<rscale>  0 0.45663381E+04</rscale>
<asrwt>0</asrwt>
<pdfrwt beam="1">  1        2 0.48723357E+00 0.45663381E+04</pdfrwt>
<pdfrwt beam="2">  1       -2 0.25322829E+00 0.45663381E+04</pdfrwt>
<totfact> 0.62981867E-02</totfact>
</mgrwt>
</event>
<event>
 6    1  0.5040916E-004  0.3383433E+04  0.7818608E-02  0.8141984E-01
          2   -1    0    0  501    0  0.00000000000E+00  0.00000000000E+00  0.27838058687E+04  0.27838058687E+04  0.00000000000E+00 0.  1.
         -2   -1    0    0    0  501 -0.00000000000E+00 -0.00000000000E+00 -0.10280547298E+04  0.10280547298E+04  0.00000000000E+00 0. -1.
         23    2    1    2    0    0  0.15856621861E+04 -0.27759804654E+03  0.29713435301E+03  0.16395465853E+04  0.91863692102E+02 0.  0.
         13    1    3    3    0    0  0.75294762663E+03 -0.85334465515E+02  0.14208079673E+03  0.77097279605E+03  0.00000000000E+00 0. -1.
        -13    1    3    3    0    0  0.83271455946E+03 -0.19226358103E+03  0.15505355627E+03  0.86857378929E+03  0.00000000000E+00 0.  1.
         22    1    1    2    0    0 -0.15856621861E+04  0.27759804654E+03  0.14586167858E+04  0.21723140131E+04  0.00000000000E+00 0.  1.
<mgrwt>
<rscale>  0 0.33834330E+04</rscale>
<asrwt>0</asrwt>
<pdfrwt beam="1">  1        2 0.42827782E+00 0.33834330E+04</pdfrwt>
<pdfrwt beam="2">  1       -2 0.15816227E+00 0.33834330E+04</pdfrwt>
<totfact> 0.50977357E-01</totfact>
</mgrwt>
</event>
<event>
 6    1  0.5040916E-004  0.2988589E+04  0.7818608E-02  0.8246997E-01
          2   -1    0    0  501    0  0.00000000000E+00  0.00000000000E+00  0.28841941363E+04  0.28841941363E+04  0.00000000000E+00 0.  1.
         -2   -1    0    0    0  501 -0.00000000000E+00 -0.00000000000E+00 -0.77419086846E+03  0.77419086846E+03  0.00000000000E+00 0. -1.
         23    2    1    2    0    0 -0.11857894383E+04 -0.72934282570E+03  0.17163236093E+04  0.22116572408E+04  0.87312480541E+02 0.  0.
         11    1    3    3    0    0 -0.81746774331E+03 -0.53882259290E+03  0.11646392399E+04  0.15215018426E+04  0.00000000000E+00 0.  1.
        -11    1    3    3    0    0 -0.36832169503E+03 -0.19052023279E+03  0.55168436941E+03  0.69015539814E+03  0.00000000000E+00 0. -1.
         22    1    1    2    0    0  0.11857894383E+04  0.72934282570E+03  0.39367965850E+03  0.14467277640E+04  0.00000000000E+00 0.  1.
<mgrwt>
<rscale>  0 0.29885895E+04</rscale>
<asrwt>0</asrwt>
<pdfrwt beam="1">  1        2 0.44372217E+00 0.29885895E+04</pdfrwt>
<pdfrwt beam="2">  1       -2 0.11910629E+00 0.29885895E+04</pdfrwt>
<totfact> 0.95181544E-01</totfact>
</mgrwt>
</event>
<event>
 6    1  0.5040916E-004  0.2571339E+04  0.7818608E-02  0.8378002E-01
          2   -1    0    0  501    0  0.00000000000E+00  0.00000000000E+00  0.30993123708E+04  0.30993123708E+04  0.00000000000E+00 0.  1.
         -2   -1    0    0    0  501 -0.00000000000E+00 -0.00000000000E+00 -0.53332690845E+03  0.53332690845E+03  0.00000000000E+00 0. -1.
         23    2    1    2    0    0  0.74509179648E+03 -0.10265688452E+04  0.10031905737E+04  0.16198468799E+04  0.92234527485E+02 0.  0.
         13    1    3    3    0    0  0.53109809750E+03 -0.69929099101E+03  0.74181330890E+03  0.11495042690E+04  0.00000000000E+00 0. -1.
        -13    1    3    3    0    0  0.21399369898E+03 -0.32727785414E+03  0.26137726481E+03  0.47034261084E+03  0.00000000000E+00 0.  1.
         22    1    1    2    0    0 -0.74509179648E+03  0.10265688452E+04  0.15627948887E+04  0.20127923994E+04  0.00000000000E+00 0. -1.
<mgrwt>
<rscale>  0 0.25713395E+04</rscale>
<asrwt>0</asrwt>
<pdfrwt beam="1">  1        2 0.47681728E+00 0.25713395E+04</pdfrwt>
<pdfrwt beam="2">  1       -2 0.82050296E-01 0.25713395E+04</pdfrwt>
<totfact> 0.17439073E+00</totfact>
</mgrwt>
</event>
<event>
 6    1  0.6179165E-004  0.3775953E+04  0.7818608E-02  0.8051335E-01
          1   -1    0    0  501    0  0.00000000000E+00  0.00000000000E+00  0.22832067916E+04  0.22832067916E+04  0.00000000000E+00 0.  1.
         -1   -1    0    0    0  501 -0.00000000000E+00 -0.00000000000E+00 -0.15611620775E+04  0.15611620775E+04  0.00000000000E+00 0. -1.
         23    2    1    2    0    0 -0.12691925498E+04  0.13462259175E+04 -0.16005315539E+02  0.18524120935E+04  0.89445204881E+02 0.  0.
         11    1    3    3    0    0 -0.55734568855E+03  0.52949628319E+03 -0.18979815476E+02  0.76899984646E+03  0.00000000000E+00 0. -1.
        -11    1    3    3    0    0 -0.71184686123E+03  0.81672963432E+03  0.29744999368E+01  0.10834122471E+04  0.00000000000E+00 0.  1.
         22    1    1    2    0    0  0.12691925498E+04 -0.13462259175E+04  0.73805002970E+03  0.19919567756E+04  0.00000000000E+00 0. -1.
<mgrwt>
<rscale>  0 0.37759533E+04</rscale>
<asrwt>0</asrwt>
<pdfrwt beam="1">  1        1 0.35126258E+00 0.37759533E+04</pdfrwt>
<pdfrwt beam="2">  1       -1 0.24017878E+00 0.37759533E+04</pdfrwt>
<totfact> 0.12320391E-01</totfact>
</mgrwt>
</event>
<event>
 6    1  0.5040916E-004  0.8157860E+04  0.7818608E-02  0.7468543E-01
          2   -1    0    0  501    0  0.00000000000E+00  0.00000000000E+00  0.36612465104E+04  0.36612465104E+04  0.00000000000E+00 0. -1.
         -2   -1    0    0    0  501 -0.00000000000E+00 -0.00000000000E+00 -0.45442632834E+04  0.45442632834E+04  0.00000000000E+00 0.  1.
         23    2    1    2    0    0 -0.36099874432E+04 -0.11714146348E+04 -0.19433695580E+04  0.42648791823E+04  0.91036334186E+02 0.  0.
         13    1    3    3    0    0 -0.20229405850E+04 -0.69401339408E+03 -0.10638991248E+04  0.23886867834E+04  0.00000000000E+00 0. -1.
        -13    1    3    3    0    0 -0.15870468583E+04 -0.47740124069E+03 -0.87947043318E+03  0.18761923989E+04  0.00000000000E+00 0.  1.
         22    1    1    2    0    0  0.36099874432E+04  0.11714146348E+04  0.10603527850E+04  0.39406306114E+04  0.00000000000E+00 0. -1.
<mgrwt>
<rscale>  0 0.81578595E+04</rscale>
<asrwt>0</asrwt>
<pdfrwt beam="1">  1        2 0.56326869E+00 0.81578595E+04</pdfrwt>
<pdfrwt beam="2">  1       -2 0.69911743E+00 0.81578595E+04</pdfrwt>
<totfact> 0.84192858E-05</totfact>
</mgrwt>
</event>
<event>
 6    1  0.5040916E-004  0.1129690E+04  0.7818608E-02  0.9176728E-01
          1   -1    0    0  501    0  0.00000000000E+00  0.00000000000E+00  0.46156705968E+03  0.46156705968E+03  0.00000000000E+00 0.  1.
         -1   -1    0    0    0  501 -0.00000000000E+00 -0.00000000000E+00 -0.69123140766E+03  0.69123140766E+03  0.00000000000E+00 0. -1.
         23    2    1    2    0    0 -0.27298811421E+03 -0.45789447550E+03  0.64223453450E+02  0.54406215250E+03  0.87687585316E+02 0.  0.
         13    1    3    3    0    0 -0.58177078620E+02 -0.16718566070E+03  0.46566461636E+00  0.17701930534E+03  0.00000000000E+00 0. -1.
        -13    1    3    3    0    0 -0.21481103559E+03 -0.29070881479E+03  0.63757788834E+02  0.36704284715E+03  0.00000000000E+00 0.  1.
         22    1    1    2    0    0  0.27298811421E+03  0.45789447550E+03 -0.29388780143E+03  0.60873631485E+03  0.00000000000E+00 0.  1.
<mgrwt>
<rscale>  0 0.11296896E+04</rscale>
<asrwt>0</asrwt>
<pdfrwt beam="1">  1        1 0.71010317E-01 0.11296896E+04</pdfrwt>
<pdfrwt beam="2">  1       -1 0.10634329E+00 0.11296896E+04</pdfrwt>
<totfact> 0.40679210E+01</totfact>
</mgrwt>
</event>
<event>
 6    1  0.5040916E-004  0.2337046E+04  0.7818608E-02  0.8463456E-01
         -2   -1    0    0    0  501 -0.00000000000E+00  0.00000000000E+00  0.57669928829E+03  0.57669928829E+03  0.00000000000E+00 0. -1.
          2   -1    0    0  501    0  0.00000000000E+00 -0.00000000000E+00 -0.23676918947E+04  0.23676918947E+04  0.00000000000E+00 0.  1.
         23    2    1    2    0    0  0.93354698110E+03  0.63647402710E+03 -0.12611003854E+04  0.16964348861E+04  0.10444131191E+03 0.  0.
         11    1    3    3    0    0  0.34825733075E+03  0.27944908920E+03 -0.55394742881E+03  0.71150032731E+03  0.00000000000E+00 0.  1.
        -11    1    3    3    0    0  0.58528965035E+03  0.35702493790E+03 -0.70715295656E+03  0.98493455877E+03  0.00000000000E+00 0. -1.
         22    1    1    2    0    0 -0.93354698110E+03 -0.63647402710E+03 -0.52989222105E+03  0.12479562969E+04  0.00000000000E+00 0. -1.
<mgrwt>
<rscale>  0 0.23370462E+04</rscale>
<asrwt>0</asrwt>
<pdfrwt beam="1">  1        2 0.36426029E+00 0.23370462E+04</pdfrwt>
<pdfrwt beam="2">  1       -2 0.88722968E-01 0.23370462E+04</pdfrwt>
<totfact> 0.40949628E+00</totfact>
</mgrwt>
</event>
<event>
 6    1  0.5040916E-004  0.5178325E+04  0.7818608E-02  0.7801573E-01
          2   -1    0    0  501    0  0.00000000000E+00  0.00000000000E+00  0.34846785204E+04  0.34846785204E+04  0.00000000000E+00 0.  1.
         -2   -1    0    0    0  501 -0.00000000000E+00 -0.00000000000E+00 -0.19237822423E+04  0.19237822423E+04  0.00000000000E+00 0. -1.
         23    2    1    2    0    0 -0.70453674625E+03 -0.22986683648E+04  0.17821119677E+04  0.29940903148E+04  0.91681347451E+02 0.  0.
         11    1    3    3    0    0 -0.20030423479E+03 -0.76489220769E+03  0.62100647599E+03  0.10054008748E+04  0.00000000000E+00 0.  1.
        -11    1    3    3    0    0 -0.50423251146E+03 -0.15337761571E+04  0.11611054918E+04  0.19886894400E+04  0.00000000000E+00 0. -1.
         22    1    1    2    0    0  0.70453674625E+03  0.22986683648E+04 -0.22121568964E+03  0.24143704478E+04  0.00000000000E+00 0. -1.
<mgrwt>
<rscale>  0 0.51783251E+04</rscale>
<asrwt>0</asrwt>
<pdfrwt beam="1">  1        2 0.53610439E+00 0.51783251E+04</pdfrwt>
<pdfrwt beam="2">  1       -2 0.29596650E+00 0.51783251E+04</pdfrwt>
<totfact> 0.20083731E-02</totfact>
</mgrwt>
</event>
<event>
 6    1  0.5040916E-004  0.2246008E+04  0.7818608E-02  0.8499519E-01
         -2   -1    0    0    0  501 -0.00000000000E+00  0.00000000000E+00  0.65892144932E+03  0.65892144932E+03  0.00000000000E+00 0. -1.
          2   -1    0    0  501    0  0.00000000000E+00 -0.00000000000E+00 -0.19139422552E+04  0.19139422552E+04  0.00000000000E+00 0.  1.
         23    2    1    2    0    0  0.53177916499E+03 -0.93931367133E+03 -0.28111280605E+03  0.11190425169E+04  0.90180327318E+02 0.  0.
         11    1    3    3    0    0  0.38236424140E+03 -0.63520522786E+03 -0.15455887585E+03  0.75734836152E+03  0.00000000000E+00 0. -1.
        -11    1    3    3    0    0  0.14941492359E+03 -0.30410844347E+03 -0.12655393020E+03  0.36169415537E+03  0.00000000000E+00 0.  1.
         22    1    1    2    0    0 -0.53177916499E+03  0.93931367133E+03 -0.97390799981E+03  0.14538211876E+04  0.00000000000E+00 0.  1.
<mgrwt>
<rscale>  0 0.22460077E+04</rscale>
<asrwt>0</asrwt>
<pdfrwt beam="1">  1        2 0.29445265E+00 0.22460077E+04</pdfrwt>
<pdfrwt beam="2">  1       -2 0.10137253E+00 0.22460077E+04</pdfrwt>
<totfact> 0.54313358E+00</totfact>
</mgrwt>
</event>
<event>
 6    1  0.5040916E-004  0.1190975E+04  0.7818608E-02  0.9120793E-01
          2   -1    0    0  501    0  0.00000000000E+00  0.00000000000E+00  0.75329289003E+03  0.75329289003E+03  0.00000000000E+00 0.  1.
         -2   -1    0    0    0  501 -0.00000000000E+00 -0.00000000000E+00 -0.47074032619E+03  0.47074032619E+03  0.00000000000E+00 0. -1.
         23    2    1    2    0    0 -0.17757360260E+03  0.29143616336E+03 -0.35525903525E+03  0.50065844642E+03  0.89344704333E+02 0.  0.
         11    1    3    3    0    0 -0.14060528903E+03  0.23541223621E+03 -0.22731005571E+03  0.35617219106E+03  0.00000000000E+00 0. -1.
        -11    1    3    3    0    0 -0.36968313573E+02  0.56023927145E+02 -0.12794897954E+03  0.14448625536E+03  0.00000000000E+00 0.  1.
         22    1    1    2    0    0  0.17757360260E+03 -0.29143616336E+03  0.63781159909E+03  0.72337476980E+03  0.00000000000E+00 0.  1.
<mgrwt>
<rscale>  0 0.11909750E+04</rscale>
<asrwt>0</asrwt>
<pdfrwt beam="1">  1        2 0.11589121E+00 0.11909750E+04</pdfrwt>
<pdfrwt beam="2">  1       -2 0.72421589E-01 0.11909750E+04</pdfrwt>
<totfact> 0.63543903E+01</totfact>
</mgrwt>
</event>
<event>
 6    1  0.5040916E-004  0.1796772E+04  0.7818608E-02  0.8708018E-01
         -2   -1    0    0    0  501 -0.00000000000E+00  0.00000000000E+00  0.93514014717E+03  0.93514014717E+03  0.00000000000E+00 0. -1.
          2   -1    0    0  501    0  0.00000000000E+00 -0.00000000000E+00 -0.86307630516E+03  0.86307630516E+03  0.00000000000E+00 0.  1.
         23    2    1    2    0    0  0.56469890350E+03 -0.25995484404E+03 -0.60971267019E+03  0.87556777317E+03  0.91695216188E+02 0.  0.
         11    1    3    3    0    0  0.15305678414E+03 -0.11380637666E+03 -0.16482062137E+03  0.25207956635E+03  0.00000000000E+00 0. -1.
        -11    1    3    3    0    0  0.41164211935E+03 -0.14614846738E+03 -0.44489204882E+03  0.62348820682E+03  0.00000000000E+00 0.  1.
         22    1    1    2    0    0 -0.56469890350E+03  0.25995484404E+03  0.68177651221E+03  0.92264867916E+03  0.00000000000E+00 0. -1.
<mgrwt>
<rscale>  0 0.17967719E+04</rscale>
<asrwt>0</asrwt>
<pdfrwt beam="1">  1        2 0.13278097E+00 0.17967719E+04</pdfrwt>
<pdfrwt beam="2">  1       -2 0.14386772E+00 0.17967719E+04</pdfrwt>
<totfact> 0.98147568E+00</totfact>
</mgrwt>
</event>
<event>
 6    1  0.5072413E-004  0.3602463E+04  0.7818608E-02  0.8089928E-01
         -2   -1    0    0    0  501 -0.00000000000E+00  0.00000000000E+00  0.21410201984E+04  0.21410201984E+04  0.00000000000E+00 0. -1.
          2   -1    0    0  501    0  0.00000000000E+00 -0.00000000000E+00 -0.15153684298E+04  0.15153684298E+04  0.00000000000E+00 0.  1.
         23    2    1    2    0    0  0.13413198516E+04  0.11965760608E+04  0.40929314931E+03  0.18459344681E+04  0.94973494941E+02 0.  0.
         11    1    3    3    0    0  0.52865020022E+03  0.51226731697E+03  0.20398354945E+03  0.76387049078E+03  0.00000000000E+00 0. -1.
        -11    1    3    3    0    0  0.81266965142E+03  0.68430874386E+03  0.20530959987E+03  0.10820639773E+04  0.00000000000E+00 0.  1.
         22    1    1    2    0    0 -0.13413198516E+04 -0.11965760608E+04  0.21635861933E+03  0.18104541601E+04  0.00000000000E+00 0.  1.
<mgrwt>
<rscale>  0 0.36024627E+04</rscale>
<asrwt>0</asrwt>
<pdfrwt beam="1">  1        2 0.23313361E+00 0.36024627E+04</pdfrwt>
<pdfrwt beam="2">  1       -2 0.32938772E+00 0.36024627E+04</pdfrwt>
<totfact> 0.21227317E-01</totfact>
</mgrwt>
</event>
<event>
 6    1  0.5040916E-004  0.9169115E+03  0.7818608E-02  0.9404685E-01
         -2   -1    0    0    0  501 -0.00000000000E+00  0.00000000000E+00  0.26133385174E+03  0.26133385174E+03  0.00000000000E+00 0. -1.
          2   -1    0    0  501    0  0.00000000000E+00 -0.00000000000E+00 -0.80426497571E+03  0.80426497571E+03  0.00000000000E+00 0.  1.
         23    2    1    2    0    0  0.37670509131E+03  0.23348323521E+03 -0.38867740121E+03  0.59632773530E+03  0.90086062973E+02 0.  0.
         11    1    3    3    0    0  0.20279573455E+03  0.73369535070E+02 -0.19442387671E+03  0.29036157195E+03  0.00000000000E+00 0. -1.
        -11    1    3    3    0    0  0.17390935675E+03  0.16011370014E+03 -0.19425352450E+03  0.30596616336E+03  0.00000000000E+00 0.  1.
         22    1    1    2    0    0 -0.37670509131E+03 -0.23348323521E+03 -0.15425372277E+03  0.46927109215E+03  0.00000000000E+00 0. -1.
<mgrwt>
<rscale>  0 0.91691148E+03</rscale>
<asrwt>0</asrwt>
<pdfrwt beam="1">  1        2 0.12373307E+00 0.91691148E+03</pdfrwt>
<pdfrwt beam="2">  1       -2 0.40205209E-01 0.91691148E+03</pdfrwt>
<totfact> 0.20057437E+02</totfact>
</mgrwt>
</event>
<event>
 6    1  0.5040916E-004  0.1958069E+04  0.7818608E-02  0.8626479E-01
         -2   -1    0    0    0  501 -0.00000000000E+00  0.00000000000E+00  0.88455283395E+03  0.88455283395E+03  0.00000000000E+00 0. -1.
          2   -1    0    0  501    0  0.00000000000E+00 -0.00000000000E+00 -0.10836083536E+04  0.10836083536E+04  0.00000000000E+00 0.  1.
         23    2    1    2    0    0 -0.90127432480E+03 -0.37326035471E+03 -0.47280230809E+02  0.98091530161E+03  0.91327475371E+02 0.  0.
         13    1    3    3    0    0 -0.24653828832E+01 -0.78920802971E+01  0.42863763799E+01  0.93132199934E+01  0.00000000000E+00 0. -1.
        -13    1    3    3    0    0 -0.89880894192E+03 -0.36536827442E+03 -0.51566607189E+02  0.97160208162E+03  0.00000000000E+00 0.  1.
         22    1    1    2    0    0  0.90127432480E+03  0.37326035471E+03 -0.15177528882E+03  0.98724588591E+03  0.00000000000E+00 0.  1.
<mgrwt>
<rscale>  0 0.19580693E+04</rscale>
<asrwt>0</asrwt>
<pdfrwt beam="1">  1        2 0.16670898E+00 0.19580693E+04</pdfrwt>
<pdfrwt beam="2">  1       -2 0.13608505E+00 0.19580693E+04</pdfrwt>
<totfact> 0.80358772E+00</totfact>
</mgrwt>
</event>
<event>
 6    1  0.5040916E-004  0.3113044E+04  0.7818608E-02  0.8212167E-01
          2   -1    0    0  501    0  0.00000000000E+00  0.00000000000E+00  0.12973587240E+04  0.12973587240E+04  0.00000000000E+00 0.  1.
         -2   -1    0    0    0  501 -0.00000000000E+00 -0.00000000000E+00 -0.18674568521E+04  0.18674568521E+04  0.00000000000E+00 0. -1.
         23    2    1    2    0    0 -0.23141772380E+03  0.15325238551E+03 -0.18409683801E+04  0.18639882801E+04  0.90814510417E+02 0.  0.
         13    1    3    3    0    0 -0.14198174614E+03  0.10075607602E+03 -0.14105123755E+04  0.14212162976E+04  0.00000000000E+00 0. -1.
        -13    1    3    3    0    0 -0.89435977658E+02  0.52496309484E+02 -0.43045600463E+03  0.44277198255E+03  0.00000000000E+00 0.  1.
         22    1    1    2    0    0  0.23141772380E+03 -0.15325238551E+03  0.12708702520E+04  0.13008272960E+04  0.00000000000E+00 0.  1.
<mgrwt>
<rscale>  0 0.31130445E+04</rscale>
<asrwt>0</asrwt>
<pdfrwt beam="1">  1        2 0.19959365E+00 0.31130445E+04</pdfrwt>
<pdfrwt beam="2">  1       -2 0.28730105E+00 0.31130445E+04</pdfrwt>
<totfact> 0.53471935E-01</totfact>
</mgrwt>
</event>
<event>
 6    1  0.5040916E-004  0.2364533E+04  0.7818608E-02  0.8452903E-01
         -2   -1    0    0    0  501 -0.00000000000E+00  0.00000000000E+00  0.69262115643E+03  0.69262115643E+03  0.00000000000E+00 0. -1.
          2   -1    0    0  501    0  0.00000000000E+00 -0.00000000000E+00 -0.20180642096E+04  0.20180642096E+04  0.00000000000E+00 0.  1.
         23    2    1    2    0    0  0.58265385034E+03  0.82924856756E+02 -0.18370728336E+04  0.19308603385E+04  0.83803398904E+02 0.  0.
         13    1    3    3    0    0  0.24135294136E+03  0.76192540728E+02 -0.78063741767E+03  0.82064080050E+03  0.00000000000E+00 0. -1.
        -13    1    3    3    0    0  0.34130090898E+03  0.67323160284E+01 -0.10564354160E+04  0.11102195381E+04  0.00000000000E+00 0.  1.
         22    1    1    2    0    0 -0.58265385034E+03 -0.82924856756E+02  0.51162978048E+03  0.77982502747E+03  0.00000000000E+00 0. -1.
<mgrwt>
<rscale>  0 0.23645329E+04</rscale>
<asrwt>0</asrwt>
<pdfrwt beam="1">  1        2 0.31047142E+00 0.23645329E+04</pdfrwt>
<pdfrwt beam="2">  1       -2 0.10655710E+00 0.23645329E+04</pdfrwt>
<totfact> 0.41769605E+00</totfact>
</mgrwt>
</event>
<event>
 6    1  0.5040916E-004  0.3734841E+04  0.7818608E-02  0.8060284E-01
         -2   -1    0    0    0  501 -0.00000000000E+00  0.00000000000E+00  0.17219770569E+04  0.17219770569E+04  0.00000000000E+00 0. -1.
          2   -1    0    0  501    0  0.00000000000E+00 -0.00000000000E+00 -0.20251482061E+04  0.20251482061E+04  0.00000000000E+00 0.  1.
         23    2    1    2    0    0  0.31475412570E+03  0.16059033322E+04  0.74851336819E+03  0.18018653842E+04  0.91928930108E+02 0.  0.
         11    1    3    3    0    0  0.16056872513E+03  0.10475994797E+04  0.48522921469E+03  0.11656304629E+04  0.00000000000E+00 0. -1.
        -11    1    3    3    0    0  0.15418540057E+03  0.55830385253E+03  0.26328415350E+03  0.63623492122E+03  0.00000000000E+00 0.  1.
         22    1    1    2    0    0 -0.31475412570E+03 -0.16059033322E+04 -0.10516845174E+04  0.19452598788E+04  0.00000000000E+00 0.  1.
<mgrwt>
<rscale>  0 0.37348407E+04</rscale>
<asrwt>0</asrwt>
<pdfrwt beam="1">  1        2 0.31156126E+00 0.37348407E+04</pdfrwt>
<pdfrwt beam="2">  1       -2 0.26491955E+00 0.37348407E+04</pdfrwt>
<totfact> 0.27149691E-01</totfact>
</mgrwt>
</event>
<event>
 6    1  0.5040916E-004  0.3133801E+04  0.7818608E-02  0.8206522E-01
          2   -1    0    0  501    0  0.00000000000E+00  0.00000000000E+00  0.17783108947E+04  0.17783108947E+04  0.00000000000E+00 0.  1.
         -2   -1    0    0    0  501 -0.00000000000E+00 -0.00000000000E+00 -0.13806233240E+04  0.13806233240E+04  0.00000000000E+00 0. -1.
         23    2    1    2    0    0 -0.96479444938E+03  0.28062116754E+03  0.14092385133E+04  0.17331670994E+04  0.91315046890E+02 0.  0.
         13    1    3    3    0    0 -0.87753932085E+03  0.23556916933E+03  0.13027868715E+04  0.15883392980E+04  0.00000000000E+00 0.  1.
        -13    1    3    3    0    0 -0.87255128526E+02  0.45051998216E+02  0.10645164183E+03  0.14482780136E+03  0.00000000000E+00 0. -1.
         22    1    1    2    0    0  0.96479444938E+03 -0.28062116754E+03 -0.10115509426E+04  0.14257671194E+04  0.00000000000E+00 0. -1.
<mgrwt>
<rscale>  0 0.31338012E+04</rscale>
<asrwt>0</asrwt>
<pdfrwt beam="1">  1        2 0.27358629E+00 0.31338012E+04</pdfrwt>
<pdfrwt beam="2">  1       -2 0.21240359E+00 0.31338012E+04</pdfrwt>
<totfact> 0.83008236E-01</totfact>
</mgrwt>
</event>
<event>
 6    1  0.5040916E-004  0.2205343E+04  0.7818608E-02  0.8516208E-01
          2   -1    0    0  501    0  0.00000000000E+00  0.00000000000E+00  0.19210716240E+04  0.19210716240E+04  0.00000000000E+00 0.  1.
         -2   -1    0    0    0  501 -0.00000000000E+00 -0.00000000000E+00 -0.63291974113E+03  0.63291974113E+03  0.00000000000E+00 0. -1.
         23    2    1    2    0    0  0.54663135819E+03 -0.95549415953E+03  0.64840177089E+03  0.12807847297E+04  0.90607597770E+02 0.  0.
         11    1    3    3    0    0  0.54448603813E+03 -0.92372020948E+03  0.62345477695E+03  0.12403305729E+04  0.00000000000E+00 0.  1.
        -11    1    3    3    0    0  0.21453200575E+01 -0.31773950051E+02  0.24946993946E+02  0.40454156856E+02  0.00000000000E+00 0. -1.
         22    1    1    2    0    0 -0.54663135819E+03  0.95549415953E+03  0.63975011198E+03  0.12732066354E+04  0.00000000000E+00 0.  1.
<mgrwt>
<rscale>  0 0.22053427E+04</rscale>
<asrwt>0</asrwt>
<pdfrwt beam="1">  1        2 0.29554948E+00 0.22053427E+04</pdfrwt>
<pdfrwt beam="2">  1       -2 0.97372269E-01 0.22053427E+04</pdfrwt>
<totfact> 0.59399211E+00</totfact>
</mgrwt>
</event>
<event>
 6    1  0.5040916E-004  0.5156354E+04  0.7818608E-02  0.7804831E-01
         -2   -1    0    0    0  501 -0.00000000000E+00  0.00000000000E+00  0.20196996805E+04  0.20196996805E+04  0.00000000000E+00 0. -1.
          2   -1    0    0  501    0  0.00000000000E+00 -0.00000000000E+00 -0.32910818914E+04  0.32910818914E+04  0.00000000000E+00 0.  1.
         23    2    1    2    0    0  0.10143360191E+04 -0.21660770198E+04  0.35308048231E+03  0.24194762858E+04  0.91828401079E+02 0.  0.
         11    1    3    3    0    0  0.85945040989E+03 -0.17557548917E+04  0.29954563165E+03  0.19776394597E+04  0.00000000000E+00 0. -1.
        -11    1    3    3    0    0  0.15488560926E+03 -0.41032212804E+03  0.53534850666E+02  0.44183682616E+03  0.00000000000E+00 0.  1.
         22    1    1    2    0    0 -0.10143360191E+04  0.21660770198E+04 -0.16244626932E+04  0.28913052860E+04  0.00000000000E+00 0.  1.
<mgrwt>
<rscale>  0 0.51563542E+04</rscale>
<asrwt>0</asrwt>
<pdfrwt beam="1">  1        2 0.50632029E+00 0.51563542E+04</pdfrwt>
<pdfrwt beam="2">  1       -2 0.31072303E+00 0.51563542E+04</pdfrwt>
<totfact> 0.22151180E-02</totfact>
</mgrwt>
</event>
<event>
 6    1  0.5040916E-004  0.2490284E+04  0.7818608E-02  0.8406455E-01
         -1   -1    0    0    0  501 -0.00000000000E+00  0.00000000000E+00  0.15257792573E+04  0.15257792573E+04  0.00000000000E+00 0. -1.
          1   -1    0    0  501    0  0.00000000000E+00 -0.00000000000E+00 -0.10161224768E+04  0.10161224768E+04  0.00000000000E+00 0.  1.
         23    2    1    2    0    0 -0.21770736520E+03 -0.15546520708E+03  0.14946845457E+04  0.15211933401E+04  0.91549764177E+02 0.  0.
         13    1    3    3    0    0 -0.29622843842E+02 -0.52810001081E+02  0.50247884683E+03  0.50611401937E+03  0.00000000000E+00 0. -1.
        -13    1    3    3    0    0 -0.18808452136E+03 -0.10265520600E+03  0.99220569885E+03  0.10150793207E+04  0.00000000000E+00 0.  1.
         22    1    1    2    0    0  0.21770736520E+03  0.15546520708E+03 -0.98502776518E+03  0.10207083940E+04  0.00000000000E+00 0.  1.
<mgrwt>
<rscale>  0 0.24902840E+04</rscale>
<asrwt>0</asrwt>
<pdfrwt beam="1">  1        1 0.15632653E+00 0.24902840E+04</pdfrwt>
<pdfrwt beam="2">  1       -1 0.23473527E+00 0.24902840E+04</pdfrwt>
<totfact> 0.11476853E+00</totfact>
</mgrwt>
</event>
<event>
 6    1  0.5040916E-004  0.9824787E+03  0.7818608E-02  0.9327973E-01
          2   -1    0    0  501    0  0.00000000000E+00  0.00000000000E+00  0.72751599118E+03  0.72751599118E+03  0.00000000000E+00 0.  1.
         -2   -1    0    0    0  501 -0.00000000000E+00 -0.00000000000E+00 -0.33169871639E+03  0.33169871639E+03  0.00000000000E+00 0. -1.
         23    2    1    2    0    0 -0.31367554774E+02  0.40825888947E+03  0.48326924001E+03  0.64051781178E+03  0.95156001121E+02 0.  0.
         13    1    3    3    0    0  0.33356361727E+02  0.16163238486E+03  0.17708895679E+03  0.24207059574E+03  0.00000000000E+00 0. -1.
        -13    1    3    3    0    0 -0.64723916501E+02  0.24662650460E+03  0.30618028322E+03  0.39844721604E+03  0.00000000000E+00 0.  1.
         22    1    1    2    0    0  0.31367554774E+02 -0.40825888947E+03 -0.87451965214E+02  0.41869689578E+03  0.00000000000E+00 0. -1.
<mgrwt>
<rscale>  0 0.98247874E+03</rscale>
<asrwt>0</asrwt>
<pdfrwt beam="1">  1        2 0.11192554E+00 0.98247874E+03</pdfrwt>
<pdfrwt beam="2">  1       -2 0.51030572E-01 0.98247874E+03</pdfrwt>
<totfact> 0.14148219E+02</totfact>
</mgrwt>
</event>
<event>
 6    1  0.5040916E-004  0.5895895E+04  0.7818608E-02  0.7703445E-01
         -2   -1    0    0    0  501 -0.00000000000E+00  0.00000000000E+00  0.23990049119E+04  0.23990049119E+04  0.00000000000E+00 0. -1.
          2   -1    0    0  501    0  0.00000000000E+00 -0.00000000000E+00 -0.36225002678E+04  0.36225002678E+04  0.00000000000E+00 0.  1.
         23    2    1    2    0    0  0.43247165172E+03  0.22568449887E+04 -0.24966574777E+04  0.33944682897E+04  0.93463233294E+02 0.  0.
         13    1    3    3    0    0  0.23621432556E+03  0.12298365354E+04 -0.12917538500E+04  0.17991451082E+04  0.00000000000E+00 0.  1.
        -13    1    3    3    0    0  0.19625732616E+03  0.10270084533E+04 -0.12049036277E+04  0.15953231815E+04  0.00000000000E+00 0. -1.
         22    1    1    2    0    0 -0.43247165172E+03 -0.22568449887E+04  0.12731621218E+04  0.26270368900E+04  0.00000000000E+00 0. -1.
<mgrwt>
<rscale>  0 0.58958955E+04</rscale>
<asrwt>0</asrwt>
<pdfrwt beam="1">  1        2 0.55730773E+00 0.58958955E+04</pdfrwt>
<pdfrwt beam="2">  1       -2 0.36907768E+00 0.58958955E+04</pdfrwt>
<totfact> 0.52983914E-03</totfact>
</mgrwt>
</event>
<event>
 6    1  0.5040916E-004  0.2628522E+04  0.7818608E-02  0.8358577E-01
          2   -1    0    0  501    0  0.00000000000E+00  0.00000000000E+00  0.25886391876E+04  0.25886391876E+04  0.00000000000E+00 0.  1.
         -2   -1    0    0    0  501 -0.00000000000E+00 -0.00000000000E+00 -0.66725481286E+03  0.66725481286E+03  0.00000000000E+00 0. -1.
         23    2    1    2    0    0  0.61889599729E+03 -0.11556648517E+04  0.10442035414E+04  0.16785418777E+04  0.92456986250E+02 0.  0.
         11    1    3    3    0    0  0.60013446047E+03 -0.10811027396E+04  0.96858485119E+03  0.15707008366E+04  0.00000000000E+00 0. -1.
        -11    1    3    3    0    0  0.18761536824E+02 -0.74562112065E+02  0.75618690251E+02  0.10784104105E+03  0.00000000000E+00 0.  1.
         22    1    1    2    0    0 -0.61889599729E+03  0.11556648517E+04  0.87718083328E+03  0.15773521228E+04  0.00000000000E+00 0. -1.
<mgrwt>
<rscale>  0 0.26285220E+04</rscale>
<asrwt>0</asrwt>
<pdfrwt beam="1">  1        2 0.39825218E+00 0.26285220E+04</pdfrwt>
<pdfrwt beam="2">  1       -2 0.10265459E+00 0.26285220E+04</pdfrwt>
<totfact> 0.21157326E+00</totfact>
</mgrwt>
</event>
<event>
 6    1  0.5040916E-004  0.3502496E+04  0.7818608E-02  0.8113199E-01
         -2   -1    0    0    0  501 -0.00000000000E+00  0.00000000000E+00  0.10640746217E+04  0.10640746217E+04  0.00000000000E+00 0. -1.
          2   -1    0    0  501    0  0.00000000000E+00 -0.00000000000E+00 -0.28821938252E+04  0.28821938252E+04  0.00000000000E+00 0.  1.
         23    2    1    2    0    0  0.10039156080E+04 -0.12395512322E+04 -0.17208053814E+04  0.23482059371E+04  0.92553535904E+02 0.  0.
         11    1    3    3    0    0  0.88629920952E+03 -0.10517980091E+04 -0.14557660660E+04  0.20027631362E+04  0.00000000000E+00 0.  1.
        -11    1    3    3    0    0  0.11761639846E+03 -0.18775322308E+03 -0.26503931541E+03  0.34544280088E+03  0.00000000000E+00 0. -1.
         22    1    1    2    0    0 -0.10039156080E+04  0.12395512322E+04 -0.97313822078E+02  0.15980625098E+04  0.00000000000E+00 0. -1.
<mgrwt>
<rscale>  0 0.35024959E+04</rscale>
<asrwt>0</asrwt>
<pdfrwt beam="1">  1        2 0.44341443E+00 0.35024959E+04</pdfrwt>
<pdfrwt beam="2">  1       -2 0.16370379E+00 0.35024959E+04</pdfrwt>
<totfact> 0.40027155E-01</totfact>
</mgrwt>
</event>
<event>
 6    1  0.5040916E-004  0.3046687E+04  0.7818608E-02  0.8230523E-01
         -2   -1    0    0    0  501 -0.00000000000E+00  0.00000000000E+00  0.24903278755E+04  0.24903278755E+04  0.00000000000E+00 0. -1.
          2   -1    0    0  501    0  0.00000000000E+00 -0.00000000000E+00 -0.93183539194E+03  0.93183539194E+03  0.00000000000E+00 0.  1.
         23    2    1    2    0    0  0.65432771649E+02 -0.13280505480E+04  0.16117299460E+04  0.20914364235E+04  0.91832398176E+02 0.  0.
         13    1    3    3    0    0  0.22083466043E+00 -0.83192513946E+03  0.10342823764E+04  0.13273430305E+04  0.00000000000E+00 0.  1.
        -13    1    3    3    0    0  0.65211936989E+02 -0.49612540853E+03  0.57744756954E+03  0.76409339304E+03  0.00000000000E+00 0. -1.
         22    1    1    2    0    0 -0.65432771649E+02  0.13280505480E+04 -0.53237462418E+02  0.13307268439E+04  0.00000000000E+00 0.  1.
<mgrwt>
<rscale>  0 0.30466872E+04</rscale>
<asrwt>0</asrwt>
<pdfrwt beam="1">  1        2 0.14335929E+00 0.30466872E+04</pdfrwt>
<pdfrwt beam="2">  1       -2 0.38312736E+00 0.30466872E+04</pdfrwt>
<totfact> 0.22734953E-01</totfact>
</mgrwt>
</event>
<event>
 6    1  0.5040916E-004  0.4452266E+04  0.7818608E-02  0.7919047E-01
          2   -1    0    0  501    0  0.00000000000E+00  0.00000000000E+00  0.39758088581E+04  0.39758088581E+04  0.00000000000E+00 0.  1.
         -2   -1    0    0    0  501 -0.00000000000E+00 -0.00000000000E+00 -0.12464550772E+04  0.12464550772E+04  0.00000000000E+00 0. -1.
         23    2    1    2    0    0 -0.29590883988E+03 -0.29416823568E+03  0.39289829172E+04  0.39521430524E+04  0.91820209633E+02 0.  0.
         13    1    3    3    0    0 -0.19340823349E+03 -0.24618321630E+03  0.27629222294E+04  0.27806028423E+04  0.00000000000E+00 0.  1.
        -13    1    3    3    0    0 -0.10250060638E+03 -0.47985019382E+02  0.11660606877E+04  0.11715402101E+04  0.00000000000E+00 0. -1.
         22    1    1    2    0    0  0.29590883988E+03  0.29416823568E+03 -0.11996291363E+04  0.12701208829E+04  0.00000000000E+00 0. -1.
<mgrwt>
<rscale>  0 0.44522656E+04</rscale>
<asrwt>0</asrwt>
<pdfrwt beam="1">  1        2 0.61166289E+00 0.44522656E+04</pdfrwt>
<pdfrwt beam="2">  1       -2 0.19176232E+00 0.44522656E+04</pdfrwt>
<totfact> 0.40893567E-02</totfact>
</mgrwt>
</event>
<event>
 6    1  0.5040916E-004  0.2401213E+04  0.7818608E-02  0.8439049E-01
          2   -1    0    0  501    0  0.00000000000E+00  0.00000000000E+00  0.25563276693E+04  0.25563276693E+04  0.00000000000E+00 0.  1.
         -2   -1    0    0    0  501 -0.00000000000E+00 -0.00000000000E+00 -0.56387784739E+03  0.56387784739E+03  0.00000000000E+00 0. -1.
         23    2    1    2    0    0 -0.41875995709E+03  0.70889688910E+03  0.21300799455E+04  0.22854380329E+04  0.89954026294E+02 0.  0.
         11    1    3    3    0    0 -0.14038481894E+03  0.27071703414E+03  0.68048121854E+03  0.74568780247E+03  0.00000000000E+00 0. -1.
        -11    1    3    3    0    0 -0.27837513815E+03  0.43817985496E+03  0.14495987270E+04  0.15397502304E+04  0.00000000000E+00 0.  1.
         22    1    1    2    0    0  0.41875995709E+03 -0.70889688910E+03 -0.13763012363E+03  0.83476748378E+03  0.00000000000E+00 0. -1.
<mgrwt>
<rscale>  0 0.24012135E+04</rscale>
<asrwt>0</asrwt>
<pdfrwt beam="1">  1        2 0.39328117E+00 0.24012135E+04</pdfrwt>
<pdfrwt beam="2">  1       -2 0.86750440E-01 0.24012135E+04</pdfrwt>
<totfact> 0.33376751E+00</totfact>
</mgrwt>
</event>
<event>
 6    1  0.5040916E-004  0.2820817E+04  0.7818608E-02  0.8296834E-01
         -2   -1    0    0    0  501 -0.00000000000E+00  0.00000000000E+00  0.90767990223E+03  0.90767990223E+03  0.00000000000E+00 0. -1.
          2   -1    0    0  501    0  0.00000000000E+00 -0.00000000000E+00 -0.21915796727E+04  0.21915796727E+04  0.00000000000E+00 0.  1.
         23    2    1    2    0    0  0.13741342406E+04 -0.22451482472E+03 -0.87909816496E+03  0.16492540034E+04  0.92592473880E+02 0.  0.
         11    1    3    3    0    0  0.10704844530E+04 -0.13797867402E+03 -0.66455721486E+03  0.12675217436E+04  0.00000000000E+00 0.  1.
        -11    1    3    3    0    0  0.30364978763E+03 -0.86536150704E+02 -0.21454095010E+03  0.38173225981E+03  0.00000000000E+00 0. -1.
         22    1    1    2    0    0 -0.13741342406E+04  0.22451482472E+03 -0.40480160553E+03  0.14500055716E+04  0.00000000000E+00 0. -1.
<mgrwt>
<rscale>  0 0.28208175E+04</rscale>
<asrwt>0</asrwt>
<pdfrwt beam="1">  1        2 0.33716610E+00 0.28208175E+04</pdfrwt>
<pdfrwt beam="2">  1       -2 0.13964306E+00 0.28208175E+04</pdfrwt>
<totfact> 0.16395410E+00</totfact>
</mgrwt>
</event>
<event>
 6    1  0.5040916E-004  0.1988333E+04  0.7818608E-02  0.8612095E-01
          1   -1    0    0  501    0  0.00000000000E+00  0.00000000000E+00  0.11456543115E+04  0.11456543115E+04  0.00000000000E+00 0.  1.
         -1   -1    0    0    0  501 -0.00000000000E+00 -0.00000000000E+00 -0.86270998047E+03  0.86270998047E+03  0.00000000000E+00 0. -1.
         23    2    1    2    0    0 -0.19057137241E+03  0.52291828224E+02  0.11237524060E+04  0.11446455287E+04  0.91334731150E+02 0.  0.
         13    1    3    3    0    0 -0.63023453501E+02  0.20561603162E+02  0.63766988452E+03  0.64110655654E+03  0.00000000000E+00 0. -1.
        -13    1    3    3    0    0 -0.12754791891E+03  0.31730225062E+02  0.48608252146E+03  0.50353897214E+03  0.00000000000E+00 0.  1.
         22    1    1    2    0    0  0.19057137241E+03 -0.52291828224E+02 -0.84080807491E+03  0.86371876332E+03  0.00000000000E+00 0. -1.
<mgrwt>
<rscale>  0 0.19883334E+04</rscale>
<asrwt>0</asrwt>
<pdfrwt beam="1">  1        1 0.17625451E+00 0.19883334E+04</pdfrwt>
<pdfrwt beam="2">  1       -1 0.13272461E+00 0.19883334E+04</pdfrwt>
<totfact> 0.52361391E+00</totfact>
</mgrwt>
</event>
<event>
 6    1  0.5706364E-004  0.3895575E+04  0.7818608E-02  0.8025950E-01
          2   -1    0    0  501    0  0.00000000000E+00  0.00000000000E+00  0.27122320284E+04  0.27122320284E+04  0.00000000000E+00 0.  1.
         -2   -1    0    0    0  501 -0.00000000000E+00 -0.00000000000E+00 -0.13988019109E+04  0.13988019109E+04  0.00000000000E+00 0. -1.
         23    2    1    2    0    0 -0.99649904988E+03  0.13101044134E+04  0.17539688991E+04  0.24070801992E+04  0.90797883399E+02 0.  0.
         13    1    3    3    0    0 -0.28415545908E+03  0.44193730461E+03  0.57189670026E+03  0.77660719923E+03  0.00000000000E+00 0.  1.
        -13    1    3    3    0    0 -0.71234359080E+03  0.86816710881E+03  0.11820721989E+04  0.16304729999E+04  0.00000000000E+00 0. -1.
         22    1    1    2    0    0  0.99649904988E+03 -0.13101044134E+04 -0.44053878158E+03  0.17039537401E+04  0.00000000000E+00 0.  1.
<mgrwt>
<rscale>  0 0.38955746E+04</rscale>
<asrwt>0</asrwt>
<pdfrwt beam="1">  1        2 0.41726647E+00 0.38955746E+04</pdfrwt>
<pdfrwt beam="2">  1       -2 0.21520029E+00 0.38955746E+04</pdfrwt>
<totfact> 0.22024104E-01</totfact>
</mgrwt>
</event>
<event>
 6    1  0.5040916E-004  0.3869744E+04  0.7818608E-02  0.8031352E-01
          2   -1    0    0  501    0  0.00000000000E+00  0.00000000000E+00  0.23202979707E+04  0.23202979707E+04  0.00000000000E+00 0.  1.
         -2   -1    0    0    0  501 -0.00000000000E+00 -0.00000000000E+00 -0.16134691652E+04  0.16134691652E+04  0.00000000000E+00 0. -1.
         23    2    1    2    0    0  0.13377854391E+04 -0.78436942811E+03  0.15279701211E+04  0.21790083659E+04  0.92084129221E+02 0.  0.
         11    1    3    3    0    0  0.82298946240E+03 -0.52455055714E+03  0.92404388377E+03  0.13439948070E+04  0.00000000000E+00 0.  1.
        -11    1    3    3    0    0  0.51479597669E+03 -0.25981887097E+03  0.60392623736E+03  0.83501355887E+03  0.00000000000E+00 0. -1.
         22    1    1    2    0    0 -0.13377854391E+04  0.78436942811E+03 -0.82114131560E+03  0.17547587700E+04  0.00000000000E+00 0. -1.
<mgrwt>
<rscale>  0 0.38697438E+04</rscale>
<asrwt>0</asrwt>
<pdfrwt beam="1">  1        2 0.35696892E+00 0.38697438E+04</pdfrwt>
<pdfrwt beam="2">  1       -2 0.24822603E+00 0.38697438E+04</pdfrwt>
<totfact> 0.23195611E-01</totfact>
</mgrwt>
</event>
<event>
 6    1  0.5040916E-004  0.1631276E+04  0.7818608E-02  0.8801561E-01
         -2   -1    0    0    0  501 -0.00000000000E+00  0.00000000000E+00  0.48003498433E+03  0.48003498433E+03  0.00000000000E+00 0. -1.
          2   -1    0    0  501    0  0.00000000000E+00 -0.00000000000E+00 -0.13858677540E+04  0.13858677540E+04  0.00000000000E+00 0.  1.
         23    2    1    2    0    0  0.60407377883E+03 -0.52852113327E+03 -0.60278087808E+03  0.10079515931E+04  0.91552763751E+02 0.  0.
         13    1    3    3    0    0  0.35903096135E+03 -0.27718095197E+03 -0.29471150245E+03  0.54091346907E+03  0.00000000000E+00 0.  1.
        -13    1    3    3    0    0  0.24504281748E+03 -0.25134018130E+03 -0.30806937564E+03  0.46703812407E+03  0.00000000000E+00 0. -1.
         22    1    1    2    0    0 -0.60407377883E+03  0.52852113327E+03 -0.30305189162E+03  0.85795114523E+03  0.00000000000E+00 0.  1.
<mgrwt>
<rscale>  0 0.16312756E+04</rscale>
<asrwt>0</asrwt>
<pdfrwt beam="1">  1        2 0.21321042E+00 0.16312756E+04</pdfrwt>
<pdfrwt beam="2">  1       -2 0.73851537E-01 0.16312756E+04</pdfrwt>
<totfact> 0.23304809E+01</totfact>
</mgrwt>
</event>
<event>
 6    1  0.5040916E-004  0.1987146E+04  0.7818608E-02  0.8612654E-01
          2   -1    0    0  501    0  0.00000000000E+00  0.00000000000E+00  0.46805638845E+03  0.46805638845E+03  0.00000000000E+00 0.  1.
         -2   -1    0    0    0  501 -0.00000000000E+00 -0.00000000000E+00 -0.21091203949E+04  0.21091203949E+04  0.00000000000E+00 0. -1.
         23    2    1    2    0    0 -0.57544277470E+03 -0.14156189029E+03  0.20881809610E+03  0.63469436411E+03  0.89765153793E+02 0.  0.
         13    1    3    3    0    0 -0.29769122487E+03 -0.43644996083E+02  0.69000979163E+02  0.30868444433E+03  0.00000000000E+00 0. -1.
        -13    1    3    3    0    0 -0.27775154984E+03 -0.97916894205E+02  0.13981711694E+03  0.32600991978E+03  0.00000000000E+00 0.  1.
         22    1    1    2    0    0  0.57544277470E+03  0.14156189029E+03 -0.18498821025E+04  0.19424824192E+04  0.00000000000E+00 0. -1.
<mgrwt>
<rscale>  0 0.19871460E+04</rscale>
<asrwt>0</asrwt>
<pdfrwt beam="1">  1        2 0.72008675E-01 0.19871460E+04</pdfrwt>
<pdfrwt beam="2">  1       -2 0.32448006E+00 0.19871460E+04</pdfrwt>
<totfact> 0.13912129E+00</totfact>
</mgrwt>
</event>
<event>
 6    1  0.5040916E-004  0.2171628E+04  0.7818608E-02  0.8530331E-01
          2   -1    0    0  501    0  0.00000000000E+00  0.00000000000E+00  0.19630082345E+04  0.19630082345E+04  0.00000000000E+00 0.  1.
         -2   -1    0    0    0  501 -0.00000000000E+00 -0.00000000000E+00 -0.60060456871E+03  0.60060456871E+03  0.00000000000E+00 0. -1.
         23    2    1    2    0    0  0.27159369076E+03 -0.50190043483E+03 -0.40617800496E+03  0.70524031485E+03  0.81952124064E+02 0.  0.
         13    1    3    3    0    0  0.17544940327E+03 -0.35770359066E+03 -0.32353583188E+03  0.51323463093E+03  0.00000000000E+00 0. -1.
        -13    1    3    3    0    0  0.96144287499E+02 -0.14419684417E+03 -0.82642173074E+02  0.19200568392E+03  0.00000000000E+00 0.  1.
         22    1    1    2    0    0 -0.27159369076E+03  0.50190043483E+03  0.17685816707E+04  0.18583724883E+04  0.00000000000E+00 0.  1.
<mgrwt>
<rscale>  0 0.21716277E+04</rscale>
<asrwt>0</asrwt>
<pdfrwt beam="1">  1        2 0.30200126E+00 0.21716277E+04</pdfrwt>
<pdfrwt beam="2">  1       -2 0.92400704E-01 0.21716277E+04</pdfrwt>
<totfact> 0.63809729E+00</totfact>
</mgrwt>
</event>
<event>
 6    1  0.5040916E-004  0.1134976E+04  0.7818608E-02  0.9171757E-01
          2   -1    0    0  501    0  0.00000000000E+00  0.00000000000E+00  0.42410367066E+03  0.42410367066E+03  0.00000000000E+00 0.  1.
         -2   -1    0    0    0  501 -0.00000000000E+00 -0.00000000000E+00 -0.75934844031E+03  0.75934844031E+03  0.00000000000E+00 0. -1.
         23    2    1    2    0    0 -0.26342897719E+03  0.44966062893E+03  0.56289095158E+02  0.53161756560E+03  0.88652504700E+02 0.  0.
         11    1    3    3    0    0 -0.20713458774E+03  0.33997555545E+03  0.51352779004E+01  0.39813877835E+03  0.00000000000E+00 0. -1.
        -11    1    3    3    0    0 -0.56294389450E+02  0.10968507348E+03  0.51153817257E+02  0.13347878725E+03  0.00000000000E+00 0.  1.
         22    1    1    2    0    0  0.26342897719E+03 -0.44966062893E+03 -0.39153386481E+03  0.65183454536E+03  0.00000000000E+00 0.  1.
<mgrwt>
<rscale>  0 0.11349757E+04</rscale>
<asrwt>0</asrwt>
<pdfrwt beam="1">  1        2 0.65246719E-01 0.11349757E+04</pdfrwt>
<pdfrwt beam="2">  1       -2 0.11682284E+00 0.11349757E+04</pdfrwt>
<totfact> 0.41821470E+01</totfact>
</mgrwt>
</event>
<event>
 6    1  0.5040916E-004  0.8618739E+03  0.7818608E-02  0.9474537E-01
          2   -1    0    0  501    0  0.00000000000E+00  0.00000000000E+00  0.93440933316E+03  0.93440933316E+03  0.00000000000E+00 0.  1.
         -2   -1    0    0    0  501 -0.00000000000E+00 -0.00000000000E+00 -0.19874229128E+03  0.19874229128E+03  0.00000000000E+00 0. -1.
         23    2    1    2    0    0 -0.26800342434E+03  0.94787759441E+02 -0.44307103449E+02  0.30298885595E+03  0.95018801375E+02 0.  0.
         13    1    3    3    0    0 -0.20099042780E+03  0.30004396033E+02 -0.93201433121E+01  0.20343126829E+03  0.00000000000E+00 0. -1.
        -13    1    3    3    0    0 -0.67012996540E+02  0.64783363408E+02 -0.34986960137E+02  0.99557587653E+02  0.00000000000E+00 0.  1.
         22    1    1    2    0    0  0.26800342434E+03 -0.94787759441E+02  0.77997414534E+03  0.83016276849E+03  0.00000000000E+00 0.  1.
<mgrwt>
<rscale>  0 0.86187389E+03</rscale>
<asrwt>0</asrwt>
<pdfrwt beam="1">  1        2 0.14375528E+00 0.86187389E+03</pdfrwt>
<pdfrwt beam="2">  1       -2 0.30575738E-01 0.86187389E+03</pdfrwt>
<totfact> 0.27583793E+02</totfact>
</mgrwt>
</event>
<event>
 6    1  0.5040916E-004  0.7891156E+03  0.7818608E-02  0.9575907E-01
          2   -1    0    0  501    0  0.00000000000E+00  0.00000000000E+00  0.16207651311E+03  0.16207651311E+03  0.00000000000E+00 0.  1.
         -2   -1    0    0    0  501 -0.00000000000E+00 -0.00000000000E+00 -0.96050846463E+03  0.96050846463E+03  0.00000000000E+00 0. -1.
         23    2    1    2    0    0  0.31335024489E+02 -0.15226415037E+03  0.10503511492E+03  0.20584128651E+03  0.84687688718E+02 0.  0.
         13    1    3    3    0    0  0.41486391571E+02 -0.73120898880E+02  0.14757069224E+02  0.85355478036E+02  0.00000000000E+00 0.  1.
        -13    1    3    3    0    0 -0.10151367082E+02 -0.79143251488E+02  0.90278045699E+02  0.12048580848E+03  0.00000000000E+00 0. -1.
         22    1    1    2    0    0 -0.31335024489E+02  0.15226415037E+03 -0.90346706645E+03  0.91674369123E+03  0.00000000000E+00 0. -1.
<mgrwt>
<rscale>  0 0.78911561E+03</rscale>
<asrwt>0</asrwt>
<pdfrwt beam="1">  1        2 0.24934848E-01 0.78911561E+03</pdfrwt>
<pdfrwt beam="2">  1       -2 0.14777053E+00 0.78911561E+03</pdfrwt>
<totfact> 0.69128007E+01</totfact>
</mgrwt>
</event>
<event>
 6    1  0.5040916E-004  0.1614081E+04  0.7818608E-02  0.8811944E-01
         -2   -1    0    0    0  501 -0.00000000000E+00  0.00000000000E+00  0.21524948407E+03  0.21524948407E+03  0.00000000000E+00 0. -1.
          2   -1    0    0  501    0  0.00000000000E+00 -0.00000000000E+00 -0.30258581344E+04  0.30258581344E+04  0.00000000000E+00 0.  1.
         23    2    1    2    0    0  0.48925416696E+02 -0.70354942643E+03 -0.63175017860E+03  0.95095484373E+03  0.88494829356E+02 0.  0.
         11    1    3    3    0    0  0.39303957577E+02 -0.35491223215E+03 -0.37542812244E+03  0.51812524425E+03  0.00000000000E+00 0. -1.
        -11    1    3    3    0    0  0.96214591191E+01 -0.34863719428E+03 -0.25632205616E+03  0.43282959948E+03  0.00000000000E+00 0.  1.
         22    1    1    2    0    0 -0.48925416696E+02  0.70354942643E+03 -0.21788584717E+04  0.22901527747E+04  0.00000000000E+00 0.  1.
<mgrwt>
<rscale>  0 0.16140810E+04</rscale>
<asrwt>0</asrwt>
<pdfrwt beam="1">  1        2 0.46551664E+00 0.16140810E+04</pdfrwt>
<pdfrwt beam="2">  1       -2 0.33115305E-01 0.16140810E+04</pdfrwt>
<totfact> 0.13760637E+01</totfact>
</mgrwt>
</event>
<event>
 6    1  0.5040916E-004  0.3570287E+04  0.7818608E-02  0.8097332E-01
         -2   -1    0    0    0  501 -0.00000000000E+00  0.00000000000E+00  0.19404294972E+04  0.19404294972E+04  0.00000000000E+00 0. -1.
          2   -1    0    0  501    0  0.00000000000E+00 -0.00000000000E+00 -0.16422846794E+04  0.16422846794E+04  0.00000000000E+00 0.  1.
         23    2    1    2    0    0  0.19215716475E+03 -0.10641996214E+04  0.15729441741E+04  0.19110208407E+04  0.91662799679E+02 0.  0.
         11    1    3    3    0    0  0.14403223966E+03 -0.90550642152E+03  0.13768649529E+04  0.16542201377E+04  0.00000000000E+00 0.  1.
        -11    1    3    3    0    0  0.48124925097E+02 -0.15869319983E+03  0.19607922116E+03  0.25680070300E+03  0.00000000000E+00 0. -1.
         22    1    1    2    0    0 -0.19215716475E+03  0.10641996214E+04 -0.12747993564E+04  0.16716933358E+04  0.00000000000E+00 0.  1.
<mgrwt>
<rscale>  0 0.35702872E+04</rscale>
<asrwt>0</asrwt>
<pdfrwt beam="1">  1        2 0.25265918E+00 0.35702872E+04</pdfrwt>
<pdfrwt beam="2">  1       -2 0.29852762E+00 0.35702872E+04</pdfrwt>
<totfact> 0.27997570E-01</totfact>
</mgrwt>
</event>
<event>
 6    1  0.5040916E-004  0.2152234E+04  0.7818608E-02  0.8538576E-01
          1   -1    0    0  501    0  0.00000000000E+00  0.00000000000E+00  0.12165495125E+04  0.12165495125E+04  0.00000000000E+00 0.  1.
         -1   -1    0    0    0  501 -0.00000000000E+00 -0.00000000000E+00 -0.95189566303E+03  0.95189566303E+03  0.00000000000E+00 0. -1.
         23    2    1    2    0    0  0.75638295608E+03 -0.76067373328E+03  0.18826156008E+03  0.10930031796E+04  0.92053413507E+02 0.  0.
         11    1    3    3    0    0  0.35291379229E+03 -0.32357445385E+03  0.12468931389E+03  0.49476862974E+03  0.00000000000E+00 0. -1.
        -11    1    3    3    0    0  0.40346916379E+03 -0.43709927943E+03  0.63572246192E+02  0.59823454990E+03  0.00000000000E+00 0.  1.
         22    1    1    2    0    0 -0.75638295608E+03  0.76067373328E+03  0.76392289434E+02  0.10754419959E+04  0.00000000000E+00 0. -1.
<mgrwt>
<rscale>  0 0.21522344E+04</rscale>
<asrwt>0</asrwt>
<pdfrwt beam="1">  1        1 0.18716146E+00 0.21522344E+04</pdfrwt>
<pdfrwt beam="2">  1       -1 0.14644549E+00 0.21522344E+04</pdfrwt>
<totfact> 0.35406584E+00</totfact>
</mgrwt>
</event>
<event>
 6    1  0.5040916E-004  0.1704746E+04  0.7818608E-02  0.8758662E-01
         -2   -1    0    0    0  501 -0.00000000000E+00  0.00000000000E+00  0.41327988525E+03  0.41327988525E+03  0.00000000000E+00 0. -1.
          2   -1    0    0  501    0  0.00000000000E+00 -0.00000000000E+00 -0.17579837823E+04  0.17579837823E+04  0.00000000000E+00 0.  1.
         23    2    1    2    0    0  0.32636906812E+03 -0.75997015544E+03 -0.42443897206E+03  0.93394441291E+03  0.89623209207E+02 0.  0.
         13    1    3    3    0    0  0.12613140335E+03 -0.35572651461E+03 -0.23540158617E+03  0.44481950371E+03  0.00000000000E+00 0. -1.
        -13    1    3    3    0    0  0.20023766477E+03 -0.40424364082E+03 -0.18903738589E+03  0.48912490920E+03  0.00000000000E+00 0.  1.
         22    1    1    2    0    0 -0.32636906812E+03  0.75997015544E+03 -0.92026492503E+03  0.12373192547E+04  0.00000000000E+00 0. -1.
<mgrwt>
<rscale>  0 0.17047455E+04</rscale>
<asrwt>0</asrwt>
<pdfrwt beam="1">  1        2 0.27045905E+00 0.17047455E+04</pdfrwt>
<pdfrwt beam="2">  1       -2 0.63581519E-01 0.17047455E+04</pdfrwt>
<totfact> 0.19823218E+01</totfact>
</mgrwt>
</event>
<event>
 6    1  0.5040916E-004  0.5273158E+03  0.7818608E-02  0.1006885E+00
          2   -1    0    0  501    0  0.00000000000E+00  0.00000000000E+00  0.64357066754E+02  0.64357066754E+02  0.00000000000E+00 0.  1.
         -2   -1    0    0    0  501 -0.00000000000E+00 -0.00000000000E+00 -0.10801531122E+04  0.10801531122E+04  0.00000000000E+00 0. -1.
         23    2    1    2    0    0 -0.19738691891E+03  0.14112100964E+03 -0.35531025017E+03  0.44086380407E+03  0.96118597298E+02 0.  0.
         11    1    3    3    0    0 -0.10403184233E+03  0.82448754240E+02 -0.27201803885E+03  0.30267843457E+03  0.00000000000E+00 0.  1.
        -11    1    3    3    0    0 -0.93355076585E+02  0.58672255399E+02 -0.83292211315E+02  0.13818536950E+03  0.00000000000E+00 0. -1.
         22    1    1    2    0    0  0.19738691891E+03 -0.14112100964E+03 -0.66048579526E+03  0.70364637487E+03  0.00000000000E+00 0. -1.
<mgrwt>
<rscale>  0 0.52731579E+03</rscale>
<asrwt>0</asrwt>
<pdfrwt beam="1">  1        2 0.99010877E-02 0.52731579E+03</pdfrwt>
<pdfrwt beam="2">  1       -2 0.16617739E+00 0.52731579E+03</pdfrwt>
<totfact> 0.15595727E+02</totfact>
</mgrwt>
</event>
<event>
 6    1  0.5040916E-004  0.1795132E+04  0.7818608E-02  0.8708892E-01
         -2   -1    0    0    0  501 -0.00000000000E+00  0.00000000000E+00  0.37801075457E+03  0.37801075457E+03  0.00000000000E+00 0. -1.
          2   -1    0    0  501    0  0.00000000000E+00 -0.00000000000E+00 -0.21312221690E+04  0.21312221690E+04  0.00000000000E+00 0.  1.
         23    2    1    2    0    0 -0.77628172802E+03  0.41443622716E+03 -0.11086954868E+04  0.14184664551E+04  0.92036375267E+02 0.  0.
         11    1    3    3    0    0 -0.38853947249E+03  0.16853224669E+03 -0.48301275352E+03  0.64239190524E+03  0.00000000000E+00 0.  1.
        -11    1    3    3    0    0 -0.38774225553E+03  0.24590398048E+03 -0.62568273323E+03  0.77607454990E+03  0.00000000000E+00 0. -1.
         22    1    1    2    0    0  0.77628172802E+03 -0.41443622716E+03 -0.64451592771E+03  0.10907664685E+04  0.00000000000E+00 0. -1.
<mgrwt>
<rscale>  0 0.17951322E+04</rscale>
<asrwt>0</asrwt>
<pdfrwt beam="1">  1        2 0.32788034E+00 0.17951322E+04</pdfrwt>
<pdfrwt beam="2">  1       -2 0.58155500E-01 0.17951322E+04</pdfrwt>
<totfact> 0.14748672E+01</totfact>
</mgrwt>
</event>
<event>
 6    1  0.5040916E-004  0.3436571E+04  0.7818608E-02  0.8128988E-01
         -1   -1    0    0    0  501 -0.00000000000E+00  0.00000000000E+00  0.63179905081E+03  0.63179905081E+03  0.00000000000E+00 0.  1.
          1   -1    0    0  501    0  0.00000000000E+00 -0.00000000000E+00 -0.46731710285E+04  0.46731710285E+04  0.00000000000E+00 0. -1.
         23    2    1    2    0    0  0.34917830836E+03 -0.17261934569E+03 -0.46036097312E+04  0.46209859998E+04  0.92553356926E+02 0.  0.
         11    1    3    3    0    0  0.19326466497E+03 -0.47252070203E+02 -0.24842550613E+04  0.24922093006E+04  0.00000000000E+00 0. -1.
        -11    1    3    3    0    0  0.15591364340E+03 -0.12536727548E+03 -0.21193546700E+04  0.21287766992E+04  0.00000000000E+00 0.  1.
         22    1    1    2    0    0 -0.34917830836E+03  0.17261934569E+03  0.56223775350E+03  0.68398407949E+03  0.00000000000E+00 0.  1.
<mgrwt>
<rscale>  0 0.34365710E+04</rscale>
<asrwt>0</asrwt>
<pdfrwt beam="1">  1        1 0.71894937E+00 0.34365710E+04</pdfrwt>
<pdfrwt beam="2">  1       -1 0.97199856E-01 0.34365710E+04</pdfrwt>
<totfact> 0.17515773E-02</totfact>
</mgrwt>
</event>
<event>
 6    1  0.5040916E-004  0.3840614E+04  0.7818608E-02  0.8037495E-01
          2   -1    0    0  501    0  0.00000000000E+00  0.00000000000E+00  0.17544804157E+04  0.17544804157E+04  0.00000000000E+00 0.  1.
         -2   -1    0    0    0  501 -0.00000000000E+00 -0.00000000000E+00 -0.21018064329E+04  0.21018064329E+04  0.00000000000E+00 0. -1.
         23    2    1    2    0    0 -0.71381112551E+03 -0.10368185612E+04  0.12808743054E+04  0.17982403616E+04  0.92251612182E+02 0.  0.
         13    1    3    3    0    0 -0.17778425583E+03 -0.21913948914E+03  0.33294826219E+03  0.43644461575E+03  0.00000000000E+00 0.  1.
        -13    1    3    3    0    0 -0.53602686968E+03 -0.81767907208E+03  0.94792604324E+03  0.13617957458E+04  0.00000000000E+00 0. -1.
         22    1    1    2    0    0  0.71381112551E+03  0.10368185612E+04 -0.16282003226E+04  0.20580464869E+04  0.00000000000E+00 0. -1.
<mgrwt>
<rscale>  0 0.38406136E+04</rscale>
<asrwt>0</asrwt>
<pdfrwt beam="1">  1        2 0.26992007E+00 0.38406136E+04</pdfrwt>
<pdfrwt beam="2">  1       -2 0.32335483E+00 0.38406136E+04</pdfrwt>
<totfact> 0.16681793E-01</totfact>
</mgrwt>
</event>
<event>
 6    1  0.5040916E-004  0.4022016E+04  0.7818608E-02  0.8000120E-01
          2   -1    0    0  501    0  0.00000000000E+00  0.00000000000E+00  0.27738896462E+04  0.27738896462E+04  0.00000000000E+00 0.  1.
         -2   -1    0    0    0  501 -0.00000000000E+00 -0.00000000000E+00 -0.14579359379E+04  0.14579359379E+04  0.00000000000E+00 0. -1.
         23    2    1    2    0    0  0.15052064898E+04 -0.11384689258E+04 -0.69194948067E+02  0.18908012630E+04  0.92646660327E+02 0.  0.
         13    1    3    3    0    0  0.45669560876E+03 -0.30701582183E+03  0.87178042218E+01  0.55036859832E+03  0.00000000000E+00 0. -1.
        -13    1    3    3    0    0  0.10485108810E+04 -0.83145310393E+03 -0.77912752288E+02  0.13404326647E+04  0.00000000000E+00 0.  1.
         22    1    1    2    0    0 -0.15052064898E+04  0.11384689258E+04  0.13851486564E+04  0.23410243211E+04  0.00000000000E+00 0.  1.
<mgrwt>
<rscale>  0 0.40220161E+04</rscale>
<asrwt>0</asrwt>
<pdfrwt beam="1">  1        2 0.42675225E+00 0.40220161E+04</pdfrwt>
<pdfrwt beam="2">  1       -2 0.22429784E+00 0.40220161E+04</pdfrwt>
<totfact> 0.17528086E-01</totfact>
</mgrwt>
</event>
<event>
 6    1  0.5040916E-004  0.1633615E+04  0.7818608E-02  0.8800159E-01
         -2   -1    0    0    0  501 -0.00000000000E+00  0.00000000000E+00  0.25723746122E+03  0.25723746122E+03  0.00000000000E+00 0. -1.
          2   -1    0    0  501    0  0.00000000000E+00 -0.00000000000E+00 -0.25936140911E+04  0.25936140911E+04  0.00000000000E+00 0.  1.
         23    2    1    2    0    0  0.46984132000E+03  0.47552000406E+03 -0.36052177675E+03  0.76497702569E+03  0.91344173825E+02 0.  0.
         13    1    3    3    0    0  0.26177940264E+03  0.22967110895E+03 -0.23065308140E+03  0.41770577910E+03  0.00000000000E+00 0. -1.
        -13    1    3    3    0    0  0.20806191736E+03  0.24584889510E+03 -0.12986869535E+03  0.34727124659E+03  0.00000000000E+00 0.  1.
         22    1    1    2    0    0 -0.46984132000E+03 -0.47552000406E+03 -0.19758548532E+04  0.20858745267E+04  0.00000000000E+00 0.  1.
<mgrwt>
<rscale>  0 0.16336153E+04</rscale>
<asrwt>0</asrwt>
<pdfrwt beam="1">  1        2 0.39901757E+00 0.16336153E+04</pdfrwt>
<pdfrwt beam="2">  1       -2 0.39574993E-01 0.16336153E+04</pdfrwt>
<totfact> 0.17775832E+01</totfact>
</mgrwt>
</event>
<event>
 6    1  0.5040916E-004  0.3628037E+04  0.7818608E-02  0.8084100E-01
         -2   -1    0    0    0  501 -0.00000000000E+00  0.00000000000E+00  0.17297587149E+04  0.17297587149E+04  0.00000000000E+00 0. -1.
          2   -1    0    0  501    0  0.00000000000E+00 -0.00000000000E+00 -0.19023824946E+04  0.19023824946E+04  0.00000000000E+00 0.  1.
         23    2    1    2    0    0 -0.11811939366E+04 -0.58066352413E+03 -0.13343861323E+04  0.18765555499E+04  0.92114807092E+02 0.  0.
         11    1    3    3    0    0 -0.73149874245E+03 -0.40798497968E+03 -0.83436057968E+03  0.11822435159E+04  0.00000000000E+00 0. -1.
        -11    1    3    3    0    0 -0.44969519418E+03 -0.17267854445E+03 -0.50002555263E+03  0.69431203408E+03  0.00000000000E+00 0.  1.
         22    1    1    2    0    0  0.11811939366E+04  0.58066352413E+03  0.11617623526E+04  0.17555856596E+04  0.00000000000E+00 0. -1.
<mgrwt>
<rscale>  0 0.36280368E+04</rscale>
<asrwt>0</asrwt>
<pdfrwt beam="1">  1        2 0.29267423E+00 0.36280368E+04</pdfrwt>
<pdfrwt beam="2">  1       -2 0.26611673E+00 0.36280368E+04</pdfrwt>
<totfact> 0.31513451E-01</totfact>
</mgrwt>
</event>
<event>
 6    1  0.5040916E-004  0.2591736E+04  0.7818608E-02  0.8371014E-01
          2   -1    0    0  501    0  0.00000000000E+00  0.00000000000E+00  0.21539934386E+04  0.21539934386E+04  0.00000000000E+00 0.  1.
         -2   -1    0    0    0  501 -0.00000000000E+00 -0.00000000000E+00 -0.77960973709E+03  0.77960973709E+03  0.00000000000E+00 0. -1.
         23    2    1    2    0    0  0.39484356927E+03 -0.72580063512E+03 -0.43968869799E+03  0.94022747684E+03  0.89518439030E+02 0.  0.
         13    1    3    3    0    0  0.30159440139E+03 -0.54025513705E+03 -0.37130982328E+03  0.72159946017E+03  0.00000000000E+00 0.  1.
        -13    1    3    3    0    0  0.93249167885E+02 -0.18554549806E+03 -0.68378874712E+02  0.21862801666E+03  0.00000000000E+00 0. -1.
         22    1    1    2    0    0 -0.39484356927E+03  0.72580063512E+03  0.18140723995E+04  0.19933756988E+04  0.00000000000E+00 0.  1.
<mgrwt>
<rscale>  0 0.25917363E+04</rscale>
<asrwt>0</asrwt>
<pdfrwt beam="1">  1        2 0.33138360E+00 0.25917363E+04</pdfrwt>
<pdfrwt beam="2">  1       -2 0.11993996E+00 0.25917363E+04</pdfrwt>
<totfact> 0.25790475E+00</totfact>
</mgrwt>
</event>
<event>
 6    1  0.5040916E-004  0.2703348E+04  0.7818608E-02  0.8333919E-01
         -2   -1    0    0    0  501 -0.00000000000E+00  0.00000000000E+00  0.73430845295E+03  0.73430845295E+03  0.00000000000E+00 0. -1.
          2   -1    0    0  501    0  0.00000000000E+00 -0.00000000000E+00 -0.24880868402E+04  0.24880868402E+04  0.00000000000E+00 0.  1.
         23    2    1    2    0    0  0.99861361928E+03  0.33824218998E+03  0.12742963835E+03  0.10658748144E+04  0.90630389832E+02 0.  0.
         13    1    3    3    0    0  0.23683283259E+03  0.64713904628E+02 -0.57993395005E+01  0.24558361587E+03  0.00000000000E+00 0.  1.
        -13    1    3    3    0    0  0.76178078669E+03  0.27352828535E+03  0.13322897785E+03  0.82029119854E+03  0.00000000000E+00 0. -1.
         22    1    1    2    0    0 -0.99861361928E+03 -0.33824218998E+03 -0.18812080256E+04  0.21565204788E+04  0.00000000000E+00 0.  1.
<mgrwt>
<rscale>  0 0.27033484E+04</rscale>
<asrwt>0</asrwt>
<pdfrwt beam="1">  1        2 0.38278259E+00 0.27033484E+04</pdfrwt>
<pdfrwt beam="2">  1       -2 0.11297053E+00 0.27033484E+04</pdfrwt>
<totfact> 0.19098979E+00</totfact>
</mgrwt>
</event>
<event>
 6    1  0.5040916E-004  0.1636251E+04  0.7818608E-02  0.8798582E-01
         -2   -1    0    0    0  501 -0.00000000000E+00  0.00000000000E+00  0.37458852943E+03  0.37458852943E+03  0.00000000000E+00 0. -1.
          2   -1    0    0  501    0  0.00000000000E+00 -0.00000000000E+00 -0.17868398088E+04  0.17868398088E+04  0.00000000000E+00 0.  1.
         23    2    1    2    0    0 -0.15056266003E+03  0.50259466179E+03 -0.15331831484E+04  0.16230093326E+04  0.90764632491E+02 0.  0.
         11    1    3    3    0    0 -0.13514520132E+03  0.38197760418E+03 -0.10704947462E+04  0.11446091548E+04  0.00000000000E+00 0. -1.
        -11    1    3    3    0    0 -0.15417458709E+02  0.12061705761E+03 -0.46268840219E+03  0.47840017782E+03  0.00000000000E+00 0.  1.
         22    1    1    2    0    0  0.15056266003E+03 -0.50259466179E+03  0.12093186905E+03  0.53841900562E+03  0.00000000000E+00 0. -1.
<mgrwt>
<rscale>  0 0.16362514E+04</rscale>
<asrwt>0</asrwt>
<pdfrwt beam="1">  1        2 0.27489843E+00 0.16362514E+04</pdfrwt>
<pdfrwt beam="2">  1       -2 0.57629005E-01 0.16362514E+04</pdfrwt>
<totfact> 0.23660020E+01</totfact>
</mgrwt>
</event>
<event>
 6    1  0.5040916E-004  0.2875266E+04  0.7818608E-02  0.8280275E-01
          2   -1    0    0  501    0  0.00000000000E+00  0.00000000000E+00  0.11730151044E+04  0.11730151044E+04  0.00000000000E+00 0.  1.
         -2   -1    0    0    0  501 -0.00000000000E+00 -0.00000000000E+00 -0.17619453936E+04  0.17619453936E+04  0.00000000000E+00 0. -1.
         23    2    1    2    0    0  0.12460641076E+04 -0.59139921618E+03  0.11372372284E+03  0.13870097708E+04  0.91838043568E+02 0.  0.
         11    1    3    3    0    0  0.56182474571E+03 -0.31592467321E+03  0.42166348024E+02  0.64593609974E+03  0.00000000000E+00 0.  1.
        -11    1    3    3    0    0  0.68423936184E+03 -0.27547454298E+03  0.71557374819E+02  0.74107367111E+03  0.00000000000E+00 0. -1.
         22    1    1    2    0    0 -0.12460641076E+04  0.59139921618E+03 -0.70265401204E+03  0.15479507271E+04  0.00000000000E+00 0. -1.
<mgrwt>
<rscale>  0 0.28752659E+04</rscale>
<asrwt>0</asrwt>
<pdfrwt beam="1">  1        2 0.18046386E+00 0.28752659E+04</pdfrwt>
<pdfrwt beam="2">  1       -2 0.27106852E+00 0.28752659E+04</pdfrwt>
<totfact> 0.81179110E-01</totfact>
</mgrwt>
</event>
<event>
 6    1  0.5040916E-004  0.1616451E+04  0.7818608E-02  0.8810505E-01
          2   -1    0    0  501    0  0.00000000000E+00  0.00000000000E+00  0.63275686019E+03  0.63275686019E+03  0.00000000000E+00 0.  1.
         -2   -1    0    0    0  501 -0.00000000000E+00 -0.00000000000E+00 -0.10323528527E+04  0.10323528527E+04  0.00000000000E+00 0. -1.
         23    2    1    2    0    0  0.34979655174E+03 -0.23895096802E+03  0.50536421643E+03  0.66590594364E+03  0.92642008811E+02 0.  0.
         13    1    3    3    0    0  0.10935100324E+03 -0.81687766058E+02  0.10069725884E+03  0.16961860444E+03  0.00000000000E+00 0. -1.
        -13    1    3    3    0    0  0.24044554850E+03 -0.15726320196E+03  0.40466695759E+03  0.49628733920E+03  0.00000000000E+00 0.  1.
         22    1    1    2    0    0 -0.34979655174E+03  0.23895096802E+03 -0.90496020895E+03  0.99920376927E+03  0.00000000000E+00 0. -1.
<mgrwt>
<rscale>  0 0.16164509E+04</rscale>
<asrwt>0</asrwt>
<pdfrwt beam="1">  1        2 0.97347210E-01 0.16164509E+04</pdfrwt>
<pdfrwt beam="2">  1       -2 0.15882351E+00 0.16164509E+04</pdfrwt>
<totfact> 0.11431815E+01</totfact>
</mgrwt>
</event>
<event>
 6    1  0.6236292E-004  0.2753552E+04  0.7818608E-02  0.8317836E-01
          2   -1    0    0  501    0  0.00000000000E+00  0.00000000000E+00  0.16961659676E+04  0.16961659676E+04  0.00000000000E+00 0. -1.
         -2   -1    0    0    0  501 -0.00000000000E+00 -0.00000000000E+00 -0.11175272160E+04  0.11175272160E+04  0.00000000000E+00 0.  1.
         23    2    1    2    0    0 -0.67268121358E+03  0.80287839918E+02 -0.93343165543E+03  0.11567975719E+04  0.89105637995E+02 0.  0.
         13    1    3    3    0    0 -0.27280177982E+03  0.68790366171E+02 -0.42836154664E+03  0.51249052693E+03  0.00000000000E+00 0.  1.
        -13    1    3    3    0    0 -0.39987943376E+03  0.11497473746E+02 -0.50507010879E+03  0.64430704500E+03  0.00000000000E+00 0. -1.
         22    1    1    2    0    0  0.67268121358E+03 -0.80287839918E+02  0.15120704070E+04  0.16568956117E+04  0.00000000000E+00 0. -1.
<mgrwt>
<rscale>  0 0.27535516E+04</rscale>
<asrwt>0</asrwt>
<pdfrwt beam="1">  1        2 0.26094861E+00 0.27535516E+04</pdfrwt>
<pdfrwt beam="2">  1       -2 0.17192726E+00 0.27535516E+04</pdfrwt>
<totfact> 0.17781018E+00</totfact>
</mgrwt>
</event>
<event>
 6    1  0.5040916E-004  0.9334400E+03  0.7818608E-02  0.9384719E-01
          2   -1    0    0  501    0  0.00000000000E+00  0.00000000000E+00  0.13588529021E+04  0.13588529021E+04  0.00000000000E+00 0.  1.
         -2   -1    0    0    0  501 -0.00000000000E+00 -0.00000000000E+00 -0.16030254200E+03  0.16030254200E+03  0.00000000000E+00 0. -1.
         23    2    1    2    0    0  0.28197630623E+03 -0.33946600804E+03  0.82873411853E+03  0.94338477757E+03  0.91797556839E+02 0.  0.
         11    1    3    3    0    0  0.12244983188E+03 -0.16627051203E+03  0.48073848323E+03  0.52321060172E+03  0.00000000000E+00 0. -1.
        -11    1    3    3    0    0  0.15952647436E+03 -0.17319549602E+03  0.34799563530E+03  0.42017417585E+03  0.00000000000E+00 0.  1.
         22    1    1    2    0    0 -0.28197630623E+03  0.33946600804E+03  0.36981624153E+03  0.57577066650E+03  0.00000000000E+00 0. -1.
<mgrwt>
<rscale>  0 0.93344003E+03</rscale>
<asrwt>0</asrwt>
<pdfrwt beam="1">  1        2 0.20905429E+00 0.93344003E+03</pdfrwt>
<pdfrwt beam="2">  1       -2 0.24661930E-01 0.93344003E+03</pdfrwt>
<totfact> 0.22474247E+02</totfact>
</mgrwt>
</event>
<event>
 6    1  0.5040916E-004  0.1075317E+04  0.7818608E-02  0.9229589E-01
         -2   -1    0    0    0  501 -0.00000000000E+00  0.00000000000E+00  0.96682563135E+03  0.96682563135E+03  0.00000000000E+00 0. -1.
          2   -1    0    0  501    0  0.00000000000E+00 -0.00000000000E+00 -0.29899568459E+03  0.29899568459E+03  0.00000000000E+00 0.  1.
         23    2    1    2    0    0  0.29250305493E+03  0.73347498896E+02 -0.18241382746E+03  0.36368364999E+03  0.89739066676E+02 0.  0.
         11    1    3    3    0    0  0.98966760631E+02  0.27105786901E+02 -0.11373200984E+03  0.15318000344E+03  0.00000000000E+00 0. -1.
        -11    1    3    3    0    0  0.19353629430E+03  0.46241711995E+02 -0.68681817618E+02  0.21050364655E+03  0.00000000000E+00 0.  1.
         22    1    1    2    0    0 -0.29250305493E+03 -0.73347498896E+02  0.85024377421E+03  0.90213766595E+03  0.00000000000E+00 0. -1.
<mgrwt>
<rscale>  0 0.10753171E+04</rscale>
<asrwt>0</asrwt>
<pdfrwt beam="1">  1        2 0.45999336E-01 0.10753171E+04</pdfrwt>
<pdfrwt beam="2">  1       -2 0.14874240E+00 0.10753171E+04</pdfrwt>
<totfact> 0.33535944E+01</totfact>
</mgrwt>
</event>
<event>
 6    1  0.5040916E-004  0.3620261E+04  0.7818608E-02  0.8085866E-01
          2   -1    0    0  501    0  0.00000000000E+00  0.00000000000E+00  0.28400334424E+04  0.28400334424E+04  0.00000000000E+00 0.  1.
         -2   -1    0    0    0  501 -0.00000000000E+00 -0.00000000000E+00 -0.11537091345E+04  0.11537091345E+04  0.00000000000E+00 0. -1.
         23    2    1    2    0    0 -0.32118838197E+03  0.16235294973E+04  0.38044259634E+02  0.16579692312E+04  0.91676608236E+02 0.  0.
         11    1    3    3    0    0 -0.19358909737E+03  0.10775921709E+04  0.64056383568E+02  0.10967154807E+04  0.00000000000E+00 0.  1.
        -11    1    3    3    0    0 -0.12759928459E+03  0.54593732645E+03 -0.26012123935E+02  0.56125375048E+03  0.00000000000E+00 0. -1.
         22    1    1    2    0    0  0.32118838197E+03 -0.16235294973E+04  0.16482800482E+04  0.23357733457E+04  0.00000000000E+00 0.  1.
<mgrwt>
<rscale>  0 0.36202611E+04</rscale>
<asrwt>0</asrwt>
<pdfrwt beam="1">  1        2 0.43692822E+00 0.36202611E+04</pdfrwt>
<pdfrwt beam="2">  1       -2 0.17749371E+00 0.36202611E+04</pdfrwt>
<totfact> 0.33563628E-01</totfact>
</mgrwt>
</event>
<event>
 6    1  0.5040916E-004  0.3603915E+04  0.7818608E-02  0.8089595E-01
          2   -1    0    0  501    0  0.00000000000E+00  0.00000000000E+00  0.32030167266E+04  0.32030167266E+04  0.00000000000E+00 0.  1.
         -2   -1    0    0    0  501 -0.00000000000E+00 -0.00000000000E+00 -0.10137478822E+04  0.10137478822E+04  0.00000000000E+00 0. -1.
         23    2    1    2    0    0  0.15753331565E+04 -0.62799595896E+03  0.38641150096E+03  0.17416185365E+04  0.88700621382E+02 0.  0.
         13    1    3    3    0    0  0.40018979682E+03 -0.19255063162E+03  0.12587704244E+03  0.46159793006E+03  0.00000000000E+00 0. -1.
        -13    1    3    3    0    0  0.11751433596E+04 -0.43544532735E+03  0.26053445852E+03  0.12800206064E+04  0.00000000000E+00 0.  1.
         22    1    1    2    0    0 -0.15753331565E+04  0.62799595896E+03  0.18028573435E+04  0.24751460723E+04  0.00000000000E+00 0.  1.
<mgrwt>
<rscale>  0 0.36039153E+04</rscale>
<asrwt>0</asrwt>
<pdfrwt beam="1">  1        2 0.49277180E+00 0.36039153E+04</pdfrwt>
<pdfrwt beam="2">  1       -2 0.15596121E+00 0.36039153E+04</pdfrwt>
<totfact> 0.28366796E-01</totfact>
</mgrwt>
</event>
<event>
 6    1  0.5040916E-004  0.9428462E+03  0.7818608E-02  0.9373552E-01
         -2   -1    0    0    0  501 -0.00000000000E+00  0.00000000000E+00  0.19771892832E+03  0.19771892832E+03  0.00000000000E+00 0. -1.
          2   -1    0    0  501    0  0.00000000000E+00 -0.00000000000E+00 -0.11240184632E+04  0.11240184632E+04  0.00000000000E+00 0.  1.
         23    2    1    2    0    0 -0.32647031688E+03 -0.31772100682E+03 -0.61137834342E+03  0.76792798134E+03  0.91653694621E+02 0.  0.
         13    1    3    3    0    0 -0.23842179583E+03 -0.22122165385E+03 -0.36372969230E+03  0.48793776439E+03  0.00000000000E+00 0. -1.
        -13    1    3    3    0    0 -0.88048521049E+02 -0.96499352971E+02 -0.24764865112E+03  0.27999021695E+03  0.00000000000E+00 0.  1.
         22    1    1    2    0    0  0.32647031688E+03  0.31772100682E+03 -0.31492119145E+03  0.55380941018E+03  0.00000000000E+00 0. -1.
<mgrwt>
<rscale>  0 0.94284617E+03</rscale>
<asrwt>0</asrwt>
<pdfrwt beam="1">  1        2 0.17292592E+00 0.94284617E+03</pdfrwt>
<pdfrwt beam="2">  1       -2 0.30418297E-01 0.94284617E+03</pdfrwt>
<totfact> 0.21029434E+02</totfact>
</mgrwt>
</event>
<event>
 6    1  0.5040916E-004  0.1290040E+04  0.7818608E-02  0.9037501E-01
         -2   -1    0    0    0  501 -0.00000000000E+00  0.00000000000E+00  0.32183916075E+03  0.32183916075E+03  0.00000000000E+00 0. -1.
          2   -1    0    0  501    0  0.00000000000E+00 -0.00000000000E+00 -0.12927287568E+04  0.12927287568E+04  0.00000000000E+00 0.  1.
         23    2    1    2    0    0  0.35115571031E+03 -0.11287131105E+02  0.18484487171E+03  0.40661100930E+03  0.87904232365E+02 0.  0.
         11    1    3    3    0    0  0.19701814474E+03 -0.24191058974E+02  0.58635272716E+02  0.20697693566E+03  0.00000000000E+00 0. -1.
        -11    1    3    3    0    0  0.15413756558E+03  0.12903927869E+02  0.12620959900E+03  0.19963407363E+03  0.00000000000E+00 0.  1.
         22    1    1    2    0    0 -0.35115571031E+03  0.11287131105E+02 -0.11557344677E+04  0.12079569082E+04  0.00000000000E+00 0.  1.
<mgrwt>
<rscale>  0 0.12900399E+04</rscale>
<asrwt>0</asrwt>
<pdfrwt beam="1">  1        2 0.19888135E+00 0.12900399E+04</pdfrwt>
<pdfrwt beam="2">  1       -2 0.49513717E-01 0.12900399E+04</pdfrwt>
<totfact> 0.63194484E+01</totfact>
</mgrwt>
</event>
<event>
 6    1  0.5040916E-004  0.1103885E+04  0.7818608E-02  0.9201414E-01
          2   -1    0    0  501    0  0.00000000000E+00  0.00000000000E+00  0.38604493200E+04  0.38604493200E+04  0.00000000000E+00 0.  1.
         -2   -1    0    0    0  501 -0.00000000000E+00 -0.00000000000E+00 -0.78913211205E+02  0.78913211205E+02  0.00000000000E+00 0. -1.
         23    2    1    2    0    0  0.40094356391E+03 -0.23893783333E+03  0.29295066534E+04  0.29678682067E+04  0.91571996138E+02 0.  0.
         13    1    3    3    0    0  0.24821327682E+03 -0.99649349023E+02  0.15359663884E+04  0.15590806810E+04  0.00000000000E+00 0.  1.
        -13    1    3    3    0    0  0.15273028710E+03 -0.13928848431E+03  0.13935402650E+04  0.14087875257E+04  0.00000000000E+00 0. -1.
         22    1    1    2    0    0 -0.40094356391E+03  0.23893783333E+03  0.85202945534E+03  0.97149432443E+03  0.00000000000E+00 0. -1.
<mgrwt>
<rscale>  0 0.11038849E+04</rscale>
<asrwt>0</asrwt>
<pdfrwt beam="1">  1        2 0.59391513E+00 0.11038849E+04</pdfrwt>
<pdfrwt beam="2">  1       -2 0.12140497E-01 0.11038849E+04</pdfrwt>
<totfact> 0.22883769E+01</totfact>
</mgrwt>
</event>
<event>
 6    1  0.5040916E-004  0.1204203E+04  0.7818608E-02  0.9109186E-01
          2   -1    0    0  501    0  0.00000000000E+00  0.00000000000E+00  0.24786387860E+04  0.24786387860E+04  0.00000000000E+00 0.  1.
         -2   -1    0    0    0  501 -0.00000000000E+00 -0.00000000000E+00 -0.14626022109E+03  0.14626022109E+03  0.00000000000E+00 0. -1.
         23    2    1    2    0    0 -0.24677634454E+03 -0.39974167178E+03  0.36263641337E+03  0.59991107827E+03  0.87727789992E+02 0.  0.
         11    1    3    3    0    0 -0.12416706425E+03 -0.16376585229E+03  0.20745096134E+03  0.29201475233E+03  0.00000000000E+00 0.  1.
        -11    1    3    3    0    0 -0.12260928029E+03 -0.23597581949E+03  0.15518545204E+03  0.30789632593E+03  0.00000000000E+00 0. -1.
         22    1    1    2    0    0  0.24677634454E+03  0.39974167178E+03  0.19697421515E+04  0.20249879288E+04  0.00000000000E+00 0. -1.
<mgrwt>
<rscale>  0 0.12042031E+04</rscale>
<asrwt>0</asrwt>
<pdfrwt beam="1">  1        2 0.38132901E+00 0.12042031E+04</pdfrwt>
<pdfrwt beam="2">  1       -2 0.22501574E-01 0.12042031E+04</pdfrwt>
<totfact> 0.61650673E+01</totfact>
</mgrwt>
</event>
<event>
 6    1  0.5040916E-004  0.1755811E+03  0.7818608E-02  0.1172149E+00
          4   -1    0    0  501    0  0.00000000000E+00  0.00000000000E+00  0.53651667399E+02  0.53651667399E+02  0.00000000000E+00 0. -1.
         -4   -1    0    0    0  501 -0.00000000000E+00 -0.00000000000E+00 -0.14365224232E+03  0.14365224232E+03  0.00000000000E+00 0.  1.
         23    2    1    2    0    0  0.58313596343E+02  0.19496254448E+02 -0.33077420396E+02  0.11351354645E+03  0.89502123056E+02 0.  0.
         11    1    3    3    0    0  0.30031189979E+02  0.97382984330E+01 -0.63456088095E+02  0.70875820589E+02  0.00000000000E+00 0.  1.
        -11    1    3    3    0    0  0.28282406364E+02  0.97579560150E+01  0.30378667699E+02  0.42637725860E+02  0.00000000000E+00 0. -1.
         22    1    1    2    0    0 -0.58313596343E+02 -0.19496254448E+02 -0.56923154528E+02  0.83790363273E+02  0.00000000000E+00 0.  1.
<mgrwt>
<rscale>  0 0.17558112E+03</rscale>
<asrwt>0</asrwt>
<pdfrwt beam="1">  1        4 0.82541028E-02 0.17558112E+03</pdfrwt>
<pdfrwt beam="2">  1       -4 0.22100345E-01 0.17558112E+03</pdfrwt>
<totfact> 0.34202148E+03</totfact>
</mgrwt>
</event>
<event>
 6    1  0.5040916E-004  0.1089323E+04  0.7818608E-02  0.9215661E-01
          2   -1    0    0  501    0  0.00000000000E+00  0.00000000000E+00  0.10909470906E+04  0.10909470906E+04  0.00000000000E+00 0.  1.
         -2   -1    0    0    0  501 -0.00000000000E+00 -0.00000000000E+00 -0.27192545209E+03  0.27192545209E+03  0.00000000000E+00 0. -1.
         23    2    1    2    0    0  0.91042044784E+02 -0.14634733844E+03  0.10537092825E+04  0.10716947832E+04  0.92305248753E+02 0.  0.
         11    1    3    3    0    0  0.79587936296E+02 -0.49409206698E+02  0.40569934221E+03  0.41637418938E+03  0.00000000000E+00 0.  1.
        -11    1    3    3    0    0  0.11454108488E+02 -0.96938131743E+02  0.64800994027E+03  0.65532059381E+03  0.00000000000E+00 0. -1.
         22    1    1    2    0    0 -0.91042044784E+02  0.14634733844E+03 -0.23468764397E+03  0.29117775949E+03  0.00000000000E+00 0. -1.
<mgrwt>
<rscale>  0 0.10893232E+04</rscale>
<asrwt>0</asrwt>
<pdfrwt beam="1">  1        2 0.16783801E+00 0.10893232E+04</pdfrwt>
<pdfrwt beam="2">  1       -2 0.41834685E-01 0.10893232E+04</pdfrwt>
<totfact> 0.11863386E+02</totfact>
</mgrwt>
</event>
<event>
 6    1  0.5040916E-004  0.7406634E+03  0.7818608E-02  0.9650113E-01
         -2   -1    0    0    0  501 -0.00000000000E+00  0.00000000000E+00  0.67051588585E+03  0.67051588585E+03  0.00000000000E+00 0. -1.
          2   -1    0    0  501    0  0.00000000000E+00 -0.00000000000E+00 -0.20453736586E+03  0.20453736586E+03  0.00000000000E+00 0.  1.
         23    2    1    2    0    0 -0.19376183540E+03  0.15527496519E+03 -0.80696811022E+02  0.27463016653E+03  0.85180921510E+02 0.  0.
         11    1    3    3    0    0 -0.55027661887E+02  0.75747651996E+02  0.39265143861E+01  0.93707885852E+02  0.00000000000E+00 0. -1.
        -11    1    3    3    0    0 -0.13873417351E+03  0.79527313192E+02 -0.84623325408E+02  0.18092228068E+03  0.00000000000E+00 0.  1.
         22    1    1    2    0    0  0.19376183540E+03 -0.15527496519E+03  0.54667533102E+03  0.60042308518E+03  0.00000000000E+00 0. -1.
<mgrwt>
<rscale>  0 0.74066336E+03</rscale>
<asrwt>0</asrwt>
<pdfrwt beam="1">  1        2 0.31467287E-01 0.74066336E+03</pdfrwt>
<pdfrwt beam="2">  1       -2 0.10315629E+00 0.74066336E+03</pdfrwt>
<totfact> 0.13051930E+02</totfact>
</mgrwt>
</event>
<event>
 6    1  0.5040916E-004  0.1719336E+04  0.7818608E-02  0.8750412E-01
         -2   -1    0    0    0  501 -0.00000000000E+00  0.00000000000E+00  0.97751213198E+03  0.97751213198E+03  0.00000000000E+00 0. -1.
          2   -1    0    0  501    0  0.00000000000E+00 -0.00000000000E+00 -0.75603071714E+03  0.75603071714E+03  0.00000000000E+00 0.  1.
         23    2    1    2    0    0  0.57506314219E+03 -0.34764531912E+03 -0.42590509540E+03  0.80044897439E+03  0.88139235909E+02 0.  0.
         11    1    3    3    0    0  0.53576271488E+03 -0.30188472062E+03 -0.40614919682E+03  0.73697573995E+03  0.00000000000E+00 0.  1.
        -11    1    3    3    0    0  0.39300427309E+02 -0.45760598496E+02 -0.19755898579E+02  0.63473234438E+02  0.00000000000E+00 0. -1.
         22    1    1    2    0    0 -0.57506314219E+03  0.34764531912E+03  0.64738651025E+03  0.93309387473E+03  0.00000000000E+00 0. -1.
<mgrwt>
<rscale>  0 0.17193361E+04</rscale>
<asrwt>0</asrwt>
<pdfrwt beam="1">  1        2 0.11631242E+00 0.17193361E+04</pdfrwt>
<pdfrwt beam="2">  1       -2 0.15038648E+00 0.17193361E+04</pdfrwt>
<totfact> 0.10487598E+01</totfact>
</mgrwt>
</event>
<event>
 6    1  0.5040916E-004  0.2710870E+04  0.7818608E-02  0.8331487E-01
          2   -1    0    0  501    0  0.00000000000E+00  0.00000000000E+00  0.95060868328E+03  0.95060868328E+03  0.00000000000E+00 0.  1.
         -2   -1    0    0    0  501 -0.00000000000E+00 -0.00000000000E+00 -0.19326608152E+04  0.19326608152E+04  0.00000000000E+00 0. -1.
         23    2    1    2    0    0 -0.98735834271E+03  0.50945824406E+03  0.33140469240E+03  0.11629227228E+04  0.90199720822E+02 0.  0.
         13    1    3    3    0    0 -0.48194774268E+03  0.26511487677E+03  0.11951274245E+03  0.56288792860E+03  0.00000000000E+00 0. -1.
        -13    1    3    3    0    0 -0.50541060003E+03  0.24434336729E+03  0.21189194994E+03  0.60003479417E+03  0.00000000000E+00 0.  1.
         22    1    1    2    0    0  0.98735834271E+03 -0.50945824406E+03 -0.13134568243E+04  0.17203467757E+04  0.00000000000E+00 0. -1.
<mgrwt>
<rscale>  0 0.27108701E+04</rscale>
<asrwt>0</asrwt>
<pdfrwt beam="1">  1        2 0.14624749E+00 0.27108701E+04</pdfrwt>
<pdfrwt beam="2">  1       -2 0.29733243E+00 0.27108701E+04</pdfrwt>
<totfact> 0.78463192E-01</totfact>
</mgrwt>
</event>
<event>
 6    1  0.5040916E-004  0.1774461E+04  0.7818608E-02  0.8720000E-01
          2   -1    0    0  501    0  0.00000000000E+00  0.00000000000E+00  0.11955199304E+04  0.11955199304E+04  0.00000000000E+00 0.  1.
         -2   -1    0    0    0  501 -0.00000000000E+00 -0.00000000000E+00 -0.65844015324E+03  0.65844015324E+03  0.00000000000E+00 0. -1.
         23    2    1    2    0    0  0.42432661401E+03 -0.13161800272E+03  0.10689442363E+04  0.11609549056E+04  0.88307068794E+02 0.  0.
         13    1    3    3    0    0  0.57049022737E+02 -0.13125573997E+02  0.23280288298E+03  0.24005010729E+03  0.00000000000E+00 0.  1.
        -13    1    3    3    0    0  0.36727759127E+03 -0.11849242872E+03  0.83614135334E+03  0.92090479827E+03  0.00000000000E+00 0. -1.
         22    1    1    2    0    0 -0.42432661401E+03  0.13161800272E+03 -0.53186445913E+03  0.69300517811E+03  0.00000000000E+00 0. -1.
<mgrwt>
<rscale>  0 0.17744614E+04</rscale>
<asrwt>0</asrwt>
<pdfrwt beam="1">  1        2 0.18392614E+00 0.17744614E+04</pdfrwt>
<pdfrwt beam="2">  1       -2 0.10129848E+00 0.17744614E+04</pdfrwt>
<totfact> 0.14444139E+01</totfact>
</mgrwt>
</event>
<event>
 6    1  0.5040916E-004  0.6753491E+03  0.7818608E-02  0.9760343E-01
          3   -1    0    0  501    0  0.00000000000E+00  0.00000000000E+00  0.19321201137E+03  0.19321201137E+03  0.00000000000E+00 0.  1.
         -3   -1    0    0    0  501 -0.00000000000E+00 -0.00000000000E+00 -0.59015014639E+03  0.59015014639E+03  0.00000000000E+00 0. -1.
         23    2    1    2    0    0  0.14298148212E+03 -0.29827141645E+03 -0.22742335406E+03  0.41168379807E+03  0.91392699486E+02 0.  0.
         13    1    3    3    0    0  0.67580295590E+02 -0.63460429655E+02 -0.35838331274E+02  0.99391692171E+02  0.00000000000E+00 0.  1.
        -13    1    3    3    0    0  0.75401186529E+02 -0.23481098679E+03 -0.19158502279E+03  0.31229210589E+03  0.00000000000E+00 0. -1.
         22    1    1    2    0    0 -0.14298148212E+03  0.29827141645E+03 -0.16951478097E+03  0.37167835969E+03  0.00000000000E+00 0.  1.
<mgrwt>
<rscale>  0 0.67534909E+03</rscale>
<asrwt>0</asrwt>
<pdfrwt beam="1">  1        3 0.29724925E-01 0.67534909E+03</pdfrwt>
<pdfrwt beam="2">  1       -3 0.90792330E-01 0.67534909E+03</pdfrwt>
<totfact> 0.31760564E+01</totfact>
</mgrwt>
</event>
<event>
 6    1  0.5040916E-004  0.3761249E+04  0.7818608E-02  0.8054522E-01
         -2   -1    0    0    0  501 -0.00000000000E+00  0.00000000000E+00  0.14288975639E+04  0.14288975639E+04  0.00000000000E+00 0. -1.
          2   -1    0    0  501    0  0.00000000000E+00 -0.00000000000E+00 -0.24751595407E+04  0.24751595407E+04  0.00000000000E+00 0.  1.
         23    2    1    2    0    0 -0.16658867547E+04 -0.57475726075E+03  0.15493547165E+03  0.17713593065E+04  0.90466591581E+02 0.  0.
         13    1    3    3    0    0 -0.76414803331E+03 -0.30937038059E+03  0.59355727043E+02  0.82653212371E+03  0.00000000000E+00 0. -1.
        -13    1    3    3    0    0 -0.90173872135E+03 -0.26538688017E+03  0.95579744603E+02  0.94482718278E+03  0.00000000000E+00 0.  1.
         22    1    1    2    0    0  0.16658867547E+04  0.57475726075E+03 -0.12011974484E+04  0.21326977981E+04  0.00000000000E+00 0.  1.
<mgrwt>
<rscale>  0 0.37612495E+04</rscale>
<asrwt>0</asrwt>
<pdfrwt beam="1">  1        2 0.38079377E+00 0.37612495E+04</pdfrwt>
<pdfrwt beam="2">  1       -2 0.21983040E+00 0.37612495E+04</pdfrwt>
<totfact> 0.28676892E-01</totfact>
</mgrwt>
</event>
<event>
 6    1  0.5040916E-004  0.1204885E+04  0.7818608E-02  0.9108591E-01
          2   -1    0    0  501    0  0.00000000000E+00  0.00000000000E+00  0.53365353230E+03  0.53365353230E+03  0.00000000000E+00 0.  1.
         -2   -1    0    0    0  501 -0.00000000000E+00 -0.00000000000E+00 -0.68009894313E+03  0.68009894313E+03  0.00000000000E+00 0. -1.
         23    2    1    2    0    0 -0.77835017126E+02  0.19571725281E+03 -0.63967984863E+03  0.67742818587E+03  0.73178585250E+02 0.  0.
         13    1    3    3    0    0  0.24018198473E+00  0.94782297681E+02 -0.24858731355E+03  0.26604397023E+03  0.00000000000E+00 0. -1.
        -13    1    3    3    0    0 -0.78075199111E+02  0.10093495513E+03 -0.39109253508E+03  0.41138421564E+03  0.00000000000E+00 0.  1.
         22    1    1    2    0    0  0.77835017126E+02 -0.19571725281E+03  0.49323443779E+03  0.53632428955E+03  0.00000000000E+00 0.  1.
<mgrwt>
<rscale>  0 0.12048854E+04</rscale>
<asrwt>0</asrwt>
<pdfrwt beam="1">  1        2 0.82100544E-01 0.12048854E+04</pdfrwt>
<pdfrwt beam="2">  1       -2 0.10463061E+00 0.12048854E+04</pdfrwt>
<totfact> 0.41726598E+01</totfact>
</mgrwt>
</event>
<event>
 6    1  0.5040916E-004  0.9651089E+03  0.7818608E-02  0.9347663E-01
         -2   -1    0    0    0  501 -0.00000000000E+00  0.00000000000E+00  0.58153994077E+02  0.58153994077E+02  0.00000000000E+00 0. -1.
          2   -1    0    0  501    0  0.00000000000E+00 -0.00000000000E+00 -0.40041755063E+04  0.40041755063E+04  0.00000000000E+00 0.  1.
         23    2    1    2    0    0  0.11670724418E+03  0.43334717460E+03 -0.26848199825E+04  0.27236586472E+04  0.92993190381E+02 0.  0.
         13    1    3    3    0    0  0.49305833091E+02  0.29959883380E+03 -0.16007523894E+04  0.16292939387E+04  0.00000000000E+00 0.  1.
        -13    1    3    3    0    0  0.67401411089E+02  0.13374834080E+03 -0.10840675931E+04  0.10943647085E+04  0.00000000000E+00 0. -1.
         22    1    1    2    0    0 -0.11670724418E+03 -0.43334717460E+03 -0.12612015298E+04  0.13386708533E+04  0.00000000000E+00 0. -1.
<mgrwt>
<rscale>  0 0.96510890E+03</rscale>
<asrwt>0</asrwt>
<pdfrwt beam="1">  1        2 0.61602709E+00 0.96510890E+03</pdfrwt>
<pdfrwt beam="2">  1       -2 0.89467671E-02 0.96510890E+03</pdfrwt>
<totfact> 0.29737443E+01</totfact>
</mgrwt>
</event>
<event>
 6    1  0.5040916E-004  0.8126604E+04  0.7818608E-02  0.7471235E-01
         -2   -1    0    0    0  501 -0.00000000000E+00  0.00000000000E+00  0.30845951153E+04  0.30845951153E+04  0.00000000000E+00 0.  1.
          2   -1    0    0  501    0  0.00000000000E+00 -0.00000000000E+00 -0.53525411905E+04  0.53525411905E+04  0.00000000000E+00 0. -1.
         23    2    1    2    0    0  0.22327639212E+04  0.33396578339E+04 -0.17632188544E+04  0.43882724228E+04  0.97185145430E+02 0.  0.
         13    1    3    3    0    0  0.66821346534E+03  0.10783991915E+04 -0.54489316410E+03  0.13807109081E+04  0.00000000000E+00 0. -1.
        -13    1    3    3    0    0  0.15645504559E+04  0.22612586425E+04 -0.12183256902E+04  0.30075615147E+04  0.00000000000E+00 0.  1.
         22    1    1    2    0    0 -0.22327639212E+04 -0.33396578339E+04 -0.50472722086E+03  0.40488638830E+04  0.00000000000E+00 0.  1.
<mgrwt>
<rscale>  0 0.81266038E+04</rscale>
<asrwt>0</asrwt>
<pdfrwt beam="1">  1        2 0.82346788E+00 0.81266038E+04</pdfrwt>
<pdfrwt beam="2">  1       -2 0.47455309E+00 0.81266038E+04</pdfrwt>
<totfact> 0.14364094E-05</totfact>
</mgrwt>
</event>
<event>
 6    1  0.5040916E-004  0.3263187E+04  0.7818608E-02  0.8172326E-01
          2   -1    0    0  501    0  0.00000000000E+00  0.00000000000E+00  0.77272020324E+03  0.77272020324E+03  0.00000000000E+00 0.  1.
         -2   -1    0    0    0  501 -0.00000000000E+00 -0.00000000000E+00 -0.34450989641E+04  0.34450989641E+04  0.00000000000E+00 0. -1.
         23    2    1    2    0    0 -0.77436711814E+03 -0.92039125635E+03 -0.27594297003E+04  0.30118579887E+04  0.10035823068E+03 0.  0.
         13    1    3    3    0    0 -0.40985910935E+03 -0.43782545546E+03 -0.14709294868E+04  0.15884927366E+04  0.00000000000E+00 0.  1.
        -13    1    3    3    0    0 -0.36450800880E+03 -0.48256580090E+03 -0.12885002135E+04  0.14233652521E+04  0.00000000000E+00 0. -1.
         22    1    1    2    0    0  0.77436711814E+03  0.92039125635E+03  0.87050939455E+02  0.12059611787E+04  0.00000000000E+00 0.  1.
<mgrwt>
<rscale>  0 0.32631871E+04</rscale>
<asrwt>0</asrwt>
<pdfrwt beam="1">  1        2 0.11888003E+00 0.32631871E+04</pdfrwt>
<pdfrwt beam="2">  1       -2 0.53001522E+00 0.32631871E+04</pdfrwt>
<totfact> 0.32928744E-02</totfact>
</mgrwt>
</event>
<event>
 6    1  0.5040916E-004  0.3077832E+04  0.7818608E-02  0.8221848E-01
         -2   -1    0    0    0  501 -0.00000000000E+00  0.00000000000E+00  0.11140855522E+04  0.11140855522E+04  0.00000000000E+00 0. -1.
          2   -1    0    0  501    0  0.00000000000E+00 -0.00000000000E+00 -0.21257456438E+04  0.21257456438E+04  0.00000000000E+00 0.  1.
         23    2    1    2    0    0  0.10523276189E+04  0.87060251388E+03 -0.12495771410E+04  0.18534882814E+04  0.92917293494E+02 0.  0.
         13    1    3    3    0    0  0.39097054354E+03  0.26700091384E+03 -0.44274500345E+03  0.64820567105E+03  0.00000000000E+00 0. -1.
        -13    1    3    3    0    0  0.66135707535E+03  0.60360160004E+03 -0.80683213753E+03  0.12052826104E+04  0.00000000000E+00 0.  1.
         22    1    1    2    0    0 -0.10523276189E+04 -0.87060251388E+03  0.23791704938E+03  0.13863429147E+04  0.00000000000E+00 0. -1.
<mgrwt>
<rscale>  0 0.30778320E+04</rscale>
<asrwt>0</asrwt>
<pdfrwt beam="1">  1        2 0.32703779E+00 0.30778320E+04</pdfrwt>
<pdfrwt beam="2">  1       -2 0.17139778E+00 0.30778320E+04</pdfrwt>
<totfact> 0.10071804E+00</totfact>
</mgrwt>
</event>
<event>
 6    1  0.5040916E-004  0.1698519E+04  0.7818608E-02  0.8762209E-01
          2   -1    0    0  501    0  0.00000000000E+00  0.00000000000E+00  0.10057053566E+04  0.10057053566E+04  0.00000000000E+00 0.  1.
         -2   -1    0    0    0  501 -0.00000000000E+00 -0.00000000000E+00 -0.71715019711E+03  0.71715019711E+03  0.00000000000E+00 0. -1.
         23    2    1    2    0    0  0.19532536761E+03  0.27221225431E+03 -0.64421095707E+03  0.73174297746E+03  0.90490426167E+02 0.  0.
         13    1    3    3    0    0  0.88950394785E+02  0.53450413488E+02 -0.19593293469E+03  0.22171791612E+03  0.00000000000E+00 0.  1.
        -13    1    3    3    0    0  0.10637497282E+03  0.21876184082E+03 -0.44827802238E+03  0.51002506133E+03  0.00000000000E+00 0. -1.
         22    1    1    2    0    0 -0.19532536761E+03 -0.27221225431E+03  0.93276611654E+03  0.99111257624E+03  0.00000000000E+00 0.  1.
<mgrwt>
<rscale>  0 0.16985191E+04</rscale>
<asrwt>0</asrwt>
<pdfrwt beam="1">  1        2 0.15472390E+00 0.16985191E+04</pdfrwt>
<pdfrwt beam="2">  1       -2 0.11033080E+00 0.16985191E+04</pdfrwt>
<totfact> 0.15505641E+01</totfact>
</mgrwt>
</event>
<event>
 6    1  0.5040916E-004  0.3797430E+04  0.7818608E-02  0.8046707E-01
         -2   -1    0    0    0  501 -0.00000000000E+00  0.00000000000E+00  0.15492145589E+04  0.15492145589E+04  0.00000000000E+00 0. -1.
          2   -1    0    0  501    0  0.00000000000E+00 -0.00000000000E+00 -0.23270619195E+04  0.23270619195E+04  0.00000000000E+00 0.  1.
         23    2    1    2    0    0  0.16771305717E+04 -0.88183078357E+03 -0.49409788705E+03  0.19603155578E+04  0.91169505705E+02 0.  0.
         11    1    3    3    0    0  0.14499409566E+04 -0.73001776126E+03 -0.43756513538E+03  0.16812846152E+04  0.00000000000E+00 0. -1.
        -11    1    3    3    0    0  0.22718961508E+03 -0.15181302231E+03 -0.56532751668E+02  0.27903094265E+03  0.00000000000E+00 0.  1.
         22    1    1    2    0    0 -0.16771305717E+04  0.88183078357E+03 -0.28374947352E+03  0.19159609206E+04  0.00000000000E+00 0. -1.
<mgrwt>
<rscale>  0 0.37974298E+04</rscale>
<asrwt>0</asrwt>
<pdfrwt beam="1">  1        2 0.35800953E+00 0.37974298E+04</pdfrwt>
<pdfrwt beam="2">  1       -2 0.23834070E+00 0.37974298E+04</pdfrwt>
<totfact> 0.26619909E-01</totfact>
</mgrwt>
</event>
<event>
 6    1  0.5040916E-004  0.1591072E+04  0.7818608E-02  0.8826052E-01
          2   -1    0    0  501    0  0.00000000000E+00  0.00000000000E+00  0.33679695381E+03  0.33679695381E+03  0.00000000000E+00 0.  1.
         -2   -1    0    0    0  501 -0.00000000000E+00 -0.00000000000E+00 -0.18791068662E+04  0.18791068662E+04  0.00000000000E+00 0. -1.
         23    2    1    2    0    0  0.23575922532E+03  0.26590385692E+03 -0.17607990330E+04  0.17987410589E+04  0.93642345303E+02 0.  0.
         13    1    3    3    0    0  0.91125381391E+02  0.89987652277E+02 -0.43260714123E+03  0.45116576925E+03  0.00000000000E+00 0. -1.
        -13    1    3    3    0    0  0.14463384393E+03  0.17591620464E+03 -0.13281918918E+04  0.13475752896E+04  0.00000000000E+00 0.  1.
         22    1    1    2    0    0 -0.23575922532E+03 -0.26590385692E+03  0.21848912061E+03  0.41716276113E+03  0.00000000000E+00 0.  1.
<mgrwt>
<rscale>  0 0.15910719E+04</rscale>
<asrwt>0</asrwt>
<pdfrwt beam="1">  1        2 0.51814917E-01 0.15910719E+04</pdfrwt>
<pdfrwt beam="2">  1       -2 0.28909336E+00 0.15910719E+04</pdfrwt>
<totfact> 0.34388208E+00</totfact>
</mgrwt>
</event>
<event>
 6    1  0.5040916E-004  0.5434327E+04  0.7818608E-02  0.7764791E-01
         -2   -1    0    0    0  501 -0.00000000000E+00  0.00000000000E+00  0.21770744585E+04  0.21770744585E+04  0.00000000000E+00 0. -1.
          2   -1    0    0  501    0  0.00000000000E+00 -0.00000000000E+00 -0.33912384447E+04  0.33912384447E+04  0.00000000000E+00 0.  1.
         23    2    1    2    0    0 -0.79585659706E+03  0.16384356508E+04  0.14575456473E+04  0.23347558107E+04  0.93735140101E+02 0.  0.
         13    1    3    3    0    0 -0.43665021457E+03  0.83614302780E+03  0.80302025168E+03  0.12388059160E+04  0.00000000000E+00 0.  1.
        -13    1    3    3    0    0 -0.35920638249E+03  0.80229262300E+03  0.65452539564E+03  0.10959498947E+04  0.00000000000E+00 0. -1.
         22    1    1    2    0    0  0.79585659706E+03 -0.16384356508E+04 -0.26717096335E+04  0.32335570925E+04  0.00000000000E+00 0.  1.
<mgrwt>
<rscale>  0 0.54343274E+04</rscale>
<asrwt>0</asrwt>
<pdfrwt beam="1">  1        2 0.52172899E+00 0.54343274E+04</pdfrwt>
<pdfrwt beam="2">  1       -2 0.33493453E+00 0.54343274E+04</pdfrwt>
<totfact> 0.13130298E-02</totfact>
</mgrwt>
</event>
<event>
 6    1  0.5040916E-004  0.1680821E+04  0.7818608E-02  0.8772379E-01
         -2   -1    0    0    0  501 -0.00000000000E+00  0.00000000000E+00  0.11164429335E+04  0.11164429335E+04  0.00000000000E+00 0. -1.
          2   -1    0    0  501    0  0.00000000000E+00 -0.00000000000E+00 -0.63262511377E+03  0.63262511377E+03  0.00000000000E+00 0.  1.
         23    2    1    2    0    0 -0.65435050256E+03  0.25910160074E+03 -0.23209073981E+03  0.74515904474E+03  0.78023526912E+02 0.  0.
         11    1    3    3    0    0 -0.27354666867E+03  0.12992289284E+03 -0.13456263930E+03  0.33138322517E+03  0.00000000000E+00 0. -1.
        -11    1    3    3    0    0 -0.38080383389E+03  0.12917870790E+03 -0.97528100506E+02  0.41377581958E+03  0.00000000000E+00 0.  1.
         22    1    1    2    0    0  0.65435050256E+03 -0.25910160074E+03  0.71590855949E+03  0.10039090025E+04  0.00000000000E+00 0. -1.
<mgrwt>
<rscale>  0 0.16808210E+04</rscale>
<asrwt>0</asrwt>
<pdfrwt beam="1">  1        2 0.97326941E-01 0.16808210E+04</pdfrwt>
<pdfrwt beam="2">  1       -2 0.17176045E+00 0.16808210E+04</pdfrwt>
<totfact> 0.91674499E+00</totfact>
</mgrwt>
</event>
<event>
 6    1  0.5040916E-004  0.4611660E+04  0.7818608E-02  0.7891375E-01
         -2   -1    0    0    0  501 -0.00000000000E+00  0.00000000000E+00  0.19341721430E+04  0.19341721430E+04  0.00000000000E+00 0. -1.
          2   -1    0    0  501    0  0.00000000000E+00 -0.00000000000E+00 -0.27489037619E+04  0.27489037619E+04  0.00000000000E+00 0.  1.
         23    2    1    2    0    0 -0.73402042877E+03 -0.14972982396E+02 -0.26262450225E+04  0.27284426933E+04  0.90699682915E+02 0.  0.
         11    1    3    3    0    0 -0.50952175692E+03 -0.43649928151E+02 -0.19112445653E+04  0.19784775777E+04  0.00000000000E+00 0.  1.
        -11    1    3    3    0    0 -0.22449867185E+03  0.28676945755E+02 -0.71500045721E+03  0.74996511565E+03  0.00000000000E+00 0. -1.
         22    1    1    2    0    0  0.73402042877E+03  0.14972982396E+02  0.18115134037E+04  0.19546332116E+04  0.00000000000E+00 0. -1.
<mgrwt>
<rscale>  0 0.46116605E+04</rscale>
<asrwt>0</asrwt>
<pdfrwt beam="1">  1        2 0.42290827E+00 0.46116605E+04</pdfrwt>
<pdfrwt beam="2">  1       -2 0.29756495E+00 0.46116605E+04</pdfrwt>
<totfact> 0.61307433E-02</totfact>
</mgrwt>
</event>
<event>
 6    1  0.5040916E-004  0.1336374E+04  0.7818608E-02  0.9001207E-01
          2   -1    0    0  501    0  0.00000000000E+00  0.00000000000E+00  0.27849698158E+03  0.27849698158E+03  0.00000000000E+00 0.  1.
         -2   -1    0    0    0  501 -0.00000000000E+00 -0.00000000000E+00 -0.16031555037E+04  0.16031555037E+04  0.00000000000E+00 0. -1.
         23    2    1    2    0    0  0.18974946506E+03  0.39667243287E+03  0.37089811585E+02  0.45066946551E+03  0.91506472638E+02 0.  0.
         13    1    3    3    0    0  0.37734651351E+02  0.13493875268E+03 -0.23265815756E+02  0.14203404194E+03  0.00000000000E+00 0.  1.
        -13    1    3    3    0    0  0.15201481371E+03  0.26173368019E+03  0.60355627341E+02  0.30863542358E+03  0.00000000000E+00 0. -1.
         22    1    1    2    0    0 -0.18974946506E+03 -0.39667243287E+03 -0.13617483337E+04  0.14309830197E+04  0.00000000000E+00 0. -1.
<mgrwt>
<rscale>  0 0.13363742E+04</rscale>
<asrwt>0</asrwt>
<pdfrwt beam="1">  1        2 0.42845691E-01 0.13363742E+04</pdfrwt>
<pdfrwt beam="2">  1       -2 0.24663930E+00 0.13363742E+04</pdfrwt>
<totfact> 0.78713937E+00</totfact>
</mgrwt>
</event>
<event>
 6    1  0.5040916E-004  0.1006661E+04  0.7818608E-02  0.9301269E-01
         -2   -1    0    0    0  501 -0.00000000000E+00  0.00000000000E+00  0.44883135234E+03  0.44883135234E+03  0.00000000000E+00 0. -1.
          2   -1    0    0  501    0  0.00000000000E+00 -0.00000000000E+00 -0.56444703777E+03  0.56444703777E+03  0.00000000000E+00 0.  1.
         23    2    1    2    0    0  0.39349908083E+03 -0.84441080159E+02 -0.35550397913E+03  0.54475067900E+03  0.91642787267E+02 0.  0.
         13    1    3    3    0    0  0.10385714038E+02 -0.21471769455E+02 -0.28271151783E+02  0.36988619368E+02  0.00000000000E+00 0.  1.
        -13    1    3    3    0    0  0.38311336679E+03 -0.62969310704E+02 -0.32723282735E+03  0.50776205963E+03  0.00000000000E+00 0. -1.
         22    1    1    2    0    0 -0.39349908083E+03  0.84441080159E+02  0.23988829369E+03  0.46852771111E+03  0.00000000000E+00 0.  1.
<mgrwt>
<rscale>  0 0.10066609E+04</rscale>
<asrwt>0</asrwt>
<pdfrwt beam="1">  1        2 0.86838005E-01 0.10066609E+04</pdfrwt>
<pdfrwt beam="2">  1       -2 0.69050978E-01 0.10066609E+04</pdfrwt>
<totfact> 0.10210522E+02</totfact>
</mgrwt>
</event>
<event>
 6    1  0.5040916E-004  0.1472526E+04  0.7818608E-02  0.8902931E-01
          2   -1    0    0  501    0  0.00000000000E+00  0.00000000000E+00  0.15419575844E+04  0.15419575844E+04  0.00000000000E+00 0.  1.
         -2   -1    0    0    0  501 -0.00000000000E+00 -0.00000000000E+00 -0.35155510319E+03  0.35155510319E+03  0.00000000000E+00 0. -1.
         23    2    1    2    0    0 -0.31909816821E+03  0.25475726271E+03  0.13806381051E+04  0.14430523715E+04  0.97538022534E+02 0.  0.
         13    1    3    3    0    0 -0.14842888658E+03  0.18003867872E+03  0.78769211140E+03  0.82152536331E+03  0.00000000000E+00 0. -1.
        -13    1    3    3    0    0 -0.17066928164E+03  0.74718583994E+02  0.59294599365E+03  0.62152700816E+03  0.00000000000E+00 0.  1.
         22    1    1    2    0    0  0.31909816821E+03 -0.25475726271E+03 -0.19023562381E+03  0.45046031615E+03  0.00000000000E+00 0. -1.
<mgrwt>
<rscale>  0 0.14725258E+04</rscale>
<asrwt>0</asrwt>
<pdfrwt beam="1">  1        2 0.23722424E+00 0.14725258E+04</pdfrwt>
<pdfrwt beam="2">  1       -2 0.54085401E-01 0.14725258E+04</pdfrwt>
<totfact> 0.37459046E+01</totfact>
</mgrwt>
</event>
<event>
 6    1  0.5040916E-004  0.3980992E+04  0.7818608E-02  0.8008392E-01
         -2   -1    0    0    0  501 -0.00000000000E+00  0.00000000000E+00  0.19356347802E+04  0.19356347802E+04  0.00000000000E+00 0.  1.
          2   -1    0    0  501    0  0.00000000000E+00 -0.00000000000E+00 -0.20469119626E+04  0.20469119626E+04  0.00000000000E+00 0. -1.
         23    2    1    2    0    0 -0.98620121449E+03  0.52494450756E+03 -0.17024160225E+04  0.20383547822E+04  0.92251467847E+02 0.  0.
         11    1    3    3    0    0 -0.85488220493E+03  0.46411642466E+03 -0.15325651469E+04  0.18152089602E+04  0.00000000000E+00 0. -1.
        -11    1    3    3    0    0 -0.13131900956E+03  0.60828082895E+02 -0.16985087559E+03  0.22314582201E+03  0.00000000000E+00 0.  1.
         22    1    1    2    0    0  0.98620121449E+03 -0.52494450756E+03  0.15911388400E+04  0.19441919606E+04  0.00000000000E+00 0.  1.
<mgrwt>
<rscale>  0 0.39809918E+04</rscale>
<asrwt>0</asrwt>
<pdfrwt beam="1">  1        2 0.31490953E+00 0.39809918E+04</pdfrwt>
<pdfrwt beam="2">  1       -2 0.29778997E+00 0.39809918E+04</pdfrwt>
<totfact> 0.16298230E-01</totfact>
</mgrwt>
</event>
<event>
 6    1  0.5040916E-004  0.1894566E+04  0.7818608E-02  0.8657566E-01
          2   -1    0    0  501    0  0.00000000000E+00  0.00000000000E+00  0.42882099824E+03  0.42882099824E+03  0.00000000000E+00 0.  1.
         -2   -1    0    0    0  501 -0.00000000000E+00 -0.00000000000E+00 -0.20925864996E+04  0.20925864996E+04  0.00000000000E+00 0. -1.
         23    2    1    2    0    0 -0.62458001850E+03 -0.13192703508E+03 -0.17612399982E+04  0.18756473104E+04  0.92636706795E+02 0.  0.
         13    1    3    3    0    0 -0.19480460302E+03 -0.24926686391E+02 -0.43154426705E+03  0.47413144535E+03  0.00000000000E+00 0.  1.
        -13    1    3    3    0    0 -0.42977541548E+03 -0.10700034869E+03 -0.13296957312E+04  0.14015158650E+04  0.00000000000E+00 0. -1.
         22    1    1    2    0    0  0.62458001850E+03  0.13192703508E+03  0.97474496928E+02  0.64576018741E+03  0.00000000000E+00 0.  1.
<mgrwt>
<rscale>  0 0.18945659E+04</rscale>
<asrwt>0</asrwt>
<pdfrwt beam="1">  1        2 0.65972461E-01 0.18945659E+04</pdfrwt>
<pdfrwt beam="2">  1       -2 0.32193639E+00 0.18945659E+04</pdfrwt>
<totfact> 0.16071841E+00</totfact>
</mgrwt>
</event>
<event>
 6    1  0.5040916E-004  0.1498711E+04  0.7818608E-02  0.8885311E-01
         -2   -1    0    0    0  501 -0.00000000000E+00  0.00000000000E+00  0.51854889159E+03  0.51854889159E+03  0.00000000000E+00 0. -1.
          2   -1    0    0  501    0  0.00000000000E+00 -0.00000000000E+00 -0.10828942242E+04  0.10828942242E+04  0.00000000000E+00 0.  1.
         23    2    1    2    0    0 -0.11786449969E+03 -0.66095282964E+03 -0.63275760111E+03  0.92658689277E+03  0.86199795788E+02 0.  0.
         11    1    3    3    0    0 -0.30863960753E+02 -0.64973537009E+02 -0.43950565757E+02  0.84295888484E+02  0.00000000000E+00 0. -1.
        -11    1    3    3    0    0 -0.87000538932E+02 -0.59597929264E+03 -0.58880703535E+03  0.84229100429E+03  0.00000000000E+00 0.  1.
         22    1    1    2    0    0  0.11786449969E+03  0.66095282964E+03  0.68412268467E+02  0.67485622304E+03  0.00000000000E+00 0. -1.
<mgrwt>
<rscale>  0 0.14987109E+04</rscale>
<asrwt>0</asrwt>
<pdfrwt beam="1">  1        2 0.16659911E+00 0.14987109E+04</pdfrwt>
<pdfrwt beam="2">  1       -2 0.79776753E-01 0.14987109E+04</pdfrwt>
<totfact> 0.30013098E+01</totfact>
</mgrwt>
</event>
<event>
 6    1  0.5040916E-004  0.4439303E+04  0.7818608E-02  0.7921350E-01
         -2   -1    0    0    0  501 -0.00000000000E+00  0.00000000000E+00  0.17395247666E+04  0.17395247666E+04  0.00000000000E+00 0. -1.
          2   -1    0    0  501    0  0.00000000000E+00 -0.00000000000E+00 -0.28322981112E+04  0.28322981112E+04  0.00000000000E+00 0.  1.
         23    2    1    2    0    0 -0.18720935276E+04  0.10894295488E+04 -0.51638881429E+02  0.21685850851E+04  0.92215937409E+02 0.  0.
         11    1    3    3    0    0 -0.11406444541E+04  0.70531783031E+03 -0.58729726299E+02  0.13423830277E+04  0.00000000000E+00 0.  1.
        -11    1    3    3    0    0 -0.73144907351E+03  0.38411171852E+03  0.70908448699E+01  0.82620205732E+03  0.00000000000E+00 0. -1.
         22    1    1    2    0    0  0.18720935276E+04 -0.10894295488E+04 -0.10411344631E+04  0.24032377927E+04  0.00000000000E+00 0. -1.
<mgrwt>
<rscale>  0 0.44393030E+04</rscale>
<asrwt>0</asrwt>
<pdfrwt beam="1">  1        2 0.43573817E+00 0.44393030E+04</pdfrwt>
<pdfrwt beam="2">  1       -2 0.26761920E+00 0.44393030E+04</pdfrwt>
<totfact> 0.84325570E-02</totfact>
</mgrwt>
</event>
<event>
 6    1  0.5040916E-004  0.1265607E+04  0.7818608E-02  0.9057293E-01
          2   -1    0    0  501    0  0.00000000000E+00  0.00000000000E+00  0.65187584139E+03  0.65187584139E+03  0.00000000000E+00 0.  1.
         -2   -1    0    0    0  501 -0.00000000000E+00 -0.00000000000E+00 -0.61428875892E+03  0.61428875892E+03  0.00000000000E+00 0. -1.
         23    2    1    2    0    0 -0.14186076331E+02  0.22328261545E+03  0.60768008072E+03  0.65374121917E+03  0.89700223092E+02 0.  0.
         13    1    3    3    0    0 -0.38606112792E+02  0.12866001159E+03  0.26082662177E+03  0.29338431648E+03  0.00000000000E+00 0. -1.
        -13    1    3    3    0    0  0.24420036461E+02  0.94622603858E+02  0.34685345894E+03  0.36035690270E+03  0.00000000000E+00 0.  1.
         22    1    1    2    0    0  0.14186076331E+02 -0.22328261545E+03 -0.57009299824E+03  0.61242338114E+03  0.00000000000E+00 0. -1.
<mgrwt>
<rscale>  0 0.12656066E+04</rscale>
<asrwt>0</asrwt>
<pdfrwt beam="1">  1        2 0.10028859E+00 0.12656066E+04</pdfrwt>
<pdfrwt beam="2">  1       -2 0.94505963E-01 0.12656066E+04</pdfrwt>
<totfact> 0.41541259E+01</totfact>
</mgrwt>
</event>
<event>
 6    1  0.5040916E-004  0.4367795E+04  0.7818608E-02  0.7934200E-01
         -2   -1    0    0    0  501 -0.00000000000E+00  0.00000000000E+00  0.17806907032E+04  0.17806907032E+04  0.00000000000E+00 0. -1.
          2   -1    0    0  501    0  0.00000000000E+00 -0.00000000000E+00 -0.26784033986E+04  0.26784033986E+04  0.00000000000E+00 0.  1.
         23    2    1    2    0    0  0.56806427890E+03  0.20944258543E+04 -0.69044024677E+03  0.22791219570E+04  0.91501236940E+02 0.  0.
         11    1    3    3    0    0  0.38091648658E+03  0.13445320595E+04 -0.48734478152E+03  0.14799894476E+04  0.00000000000E+00 0. -1.
        -11    1    3    3    0    0  0.18714779232E+03  0.74989379480E+03 -0.20309546525E+03  0.79913250944E+03  0.00000000000E+00 0.  1.
         22    1    1    2    0    0 -0.56806427890E+03 -0.20944258543E+04 -0.20727244859E+03  0.21799721448E+04  0.00000000000E+00 0.  1.
<mgrwt>
<rscale>  0 0.43677949E+04</rscale>
<asrwt>0</asrwt>
<pdfrwt beam="1">  1        2 0.41206206E+00 0.43677949E+04</pdfrwt>
<pdfrwt beam="2">  1       -2 0.27395242E+00 0.43677949E+04</pdfrwt>
<totfact> 0.96029417E-02</totfact>
</mgrwt>
</event>
<event>
 6    1  0.5040916E-004  0.3012358E+04  0.7818608E-02  0.8240211E-01
          2   -1    0    0  501    0  0.00000000000E+00  0.00000000000E+00  0.25546997693E+04  0.25546997693E+04  0.00000000000E+00 0.  1.
         -2   -1    0    0    0  501 -0.00000000000E+00 -0.00000000000E+00 -0.88800054906E+03  0.88800054906E+03  0.00000000000E+00 0. -1.
         23    2    1    2    0    0  0.24152067030E+03  0.39059072764E+03  0.24718099320E+04  0.25158256726E+04  0.92957645858E+02 0.  0.
         11    1    3    3    0    0  0.10755970685E+02  0.58800302050E+02  0.21701222335E+03  0.22509436135E+03  0.00000000000E+00 0. -1.
        -11    1    3    3    0    0  0.23076469962E+03  0.33179042559E+03  0.22547977087E+04  0.22907313112E+04  0.00000000000E+00 0.  1.
         22    1    1    2    0    0 -0.24152067030E+03 -0.39059072764E+03 -0.80511071182E+03  0.92687464578E+03  0.00000000000E+00 0. -1.
<mgrwt>
<rscale>  0 0.30123577E+04</rscale>
<asrwt>0</asrwt>
<pdfrwt beam="1">  1        2 0.39303073E+00 0.30123577E+04</pdfrwt>
<pdfrwt beam="2">  1       -2 0.13661547E+00 0.30123577E+04</pdfrwt>
<totfact> 0.10583717E+00</totfact>
</mgrwt>
</event>
<event>
 6    1  0.5040916E-004  0.4018495E+04  0.7818608E-02  0.8000826E-01
          2   -1    0    0  501    0  0.00000000000E+00  0.00000000000E+00  0.25184139469E+04  0.25184139469E+04  0.00000000000E+00 0.  1.
         -2   -1    0    0    0  501 -0.00000000000E+00 -0.00000000000E+00 -0.16030232989E+04  0.16030232989E+04  0.00000000000E+00 0. -1.
         23    2    1    2    0    0  0.92599310946E+03 -0.86680138531E+03 -0.11389564592E+04  0.17070739928E+04  0.89843868224E+02 0.  0.
         11    1    3    3    0    0  0.39145376637E+03 -0.38094953229E+03 -0.54879216635E+03  0.77429415548E+03  0.00000000000E+00 0. -1.
        -11    1    3    3    0    0  0.53453934309E+03 -0.48585185302E+03 -0.59016429284E+03  0.93277983733E+03  0.00000000000E+00 0.  1.
         22    1    1    2    0    0 -0.92599310946E+03  0.86680138531E+03  0.20543471072E+04  0.24143632529E+04  0.00000000000E+00 0.  1.
<mgrwt>
<rscale>  0 0.40184954E+04</rscale>
<asrwt>0</asrwt>
<pdfrwt beam="1">  1        2 0.38744830E+00 0.40184954E+04</pdfrwt>
<pdfrwt beam="2">  1       -2 0.24661897E+00 0.40184954E+04</pdfrwt>
<totfact> 0.18037318E-01</totfact>
</mgrwt>
</event>
<event>
 6    1  0.5040916E-004  0.3216027E+04  0.7818608E-02  0.8184597E-01
          2   -1    0    0  501    0  0.00000000000E+00  0.00000000000E+00  0.39828786358E+04  0.39828786358E+04  0.00000000000E+00 0.  1.
         -2   -1    0    0    0  501 -0.00000000000E+00 -0.00000000000E+00 -0.64920551940E+03  0.64920551940E+03  0.00000000000E+00 0. -1.
         23    2    1    2    0    0  0.63923073172E+03  0.14648613439E+04  0.19055918306E+04  0.24887571050E+04  0.90537382442E+02 0.  0.
         13    1    3    3    0    0  0.35963967036E+03  0.88384351925E+03  0.11949773467E+04  0.15292125157E+04  0.00000000000E+00 0. -1.
        -13    1    3    3    0    0  0.27959106136E+03  0.58101782466E+03  0.71061448398E+03  0.95954458937E+03  0.00000000000E+00 0.  1.
         22    1    1    2    0    0 -0.63923073172E+03 -0.14648613439E+04  0.14280812858E+04  0.21433270502E+04  0.00000000000E+00 0.  1.
<mgrwt>
<rscale>  0 0.32160266E+04</rscale>
<asrwt>0</asrwt>
<pdfrwt beam="1">  1        2 0.61275055E+00 0.32160266E+04</pdfrwt>
<pdfrwt beam="2">  1       -2 0.99877774E-01 0.32160266E+04</pdfrwt>
<totfact> 0.24562976E-01</totfact>
</mgrwt>
</event>
<event>
 6    1  0.5040916E-004  0.2772821E+04  0.7818608E-02  0.8311756E-01
         -2   -1    0    0    0  501 -0.00000000000E+00  0.00000000000E+00  0.16671501720E+04  0.16671501720E+04  0.00000000000E+00 0. -1.
          2   -1    0    0  501    0  0.00000000000E+00 -0.00000000000E+00 -0.11529463406E+04  0.11529463406E+04  0.00000000000E+00 0.  1.
         23    2    1    2    0    0 -0.86866401884E+03 -0.10781296133E+04  0.22425280013E+03  0.14055251142E+04  0.90944419924E+02 0.  0.
         13    1    3    3    0    0 -0.65128114532E+03 -0.83446564176E+03  0.13575213475E+03  0.10672060155E+04  0.00000000000E+00 0. -1.
        -13    1    3    3    0    0 -0.21738287352E+03 -0.24366397154E+03  0.88500665378E+02  0.33831909863E+03  0.00000000000E+00 0.  1.
         22    1    1    2    0    0  0.86866401884E+03  0.10781296133E+04  0.28995103122E+03  0.14145713984E+04  0.00000000000E+00 0. -1.
<mgrwt>
<rscale>  0 0.27728214E+04</rscale>
<asrwt>0</asrwt>
<pdfrwt beam="1">  1        2 0.17737636E+00 0.27728214E+04</pdfrwt>
<pdfrwt beam="2">  1       -2 0.25648464E+00 0.27728214E+04</pdfrwt>
<totfact> 0.10337651E+00</totfact>
</mgrwt>
</event>
<event>
 6    1  0.5040916E-004  0.5093523E+04  0.7818608E-02  0.7814240E-01
          2   -1    0    0  501    0  0.00000000000E+00  0.00000000000E+00  0.18055923121E+04  0.18055923121E+04  0.00000000000E+00 0.  1.
         -2   -1    0    0    0  501 -0.00000000000E+00 -0.00000000000E+00 -0.35921700685E+04  0.35921700685E+04  0.00000000000E+00 0. -1.
         23    2    1    2    0    0 -0.13945198905E+04 -0.68002659524E+03 -0.30325816289E+04  0.34078760659E+04  0.99729883251E+02 0.  0.
         11    1    3    3    0    0 -0.12036086528E+04 -0.56427871639E+03 -0.25311094406E+04  0.28589507269E+04  0.00000000000E+00 0.  1.
        -11    1    3    3    0    0 -0.19091123770E+03 -0.11574787885E+03 -0.50147218828E+03  0.54892533896E+03  0.00000000000E+00 0. -1.
         22    1    1    2    0    0  0.13945198905E+04  0.68002659524E+03  0.12460038725E+04  0.19898863147E+04  0.00000000000E+00 0.  1.
<mgrwt>
<rscale>  0 0.50935232E+04</rscale>
<asrwt>0</asrwt>
<pdfrwt beam="1">  1        2 0.27778343E+00 0.50935232E+04</pdfrwt>
<pdfrwt beam="2">  1       -2 0.55264155E+00 0.50935232E+04</pdfrwt>
<totfact> 0.51801576E-03</totfact>
</mgrwt>
</event>
<event>
 6    1  0.5040916E-004  0.2562727E+04  0.7818608E-02  0.8380973E-01
          2   -1    0    0  501    0  0.00000000000E+00  0.00000000000E+00  0.24246404654E+04  0.24246404654E+04  0.00000000000E+00 0. -1.
         -2   -1    0    0    0  501 -0.00000000000E+00 -0.00000000000E+00 -0.67716940276E+03  0.67716940276E+03  0.00000000000E+00 0.  1.
         23    2    1    2    0    0  0.58341408244E+01 -0.88513002400E+03  0.19937510457E+04  0.21830373029E+04  0.84376755372E+02 0.  0.
         13    1    3    3    0    0  0.15660156328E+02 -0.20185058313E+03  0.53943586387E+03  0.57617701241E+03  0.00000000000E+00 0. -1.
        -13    1    3    3    0    0 -0.98260155033E+01 -0.68327944087E+03  0.14543151818E+04  0.16068602905E+04  0.00000000000E+00 0.  1.
         22    1    1    2    0    0 -0.58341408244E+01  0.88513002400E+03 -0.24627998311E+03  0.91877256526E+03  0.00000000000E+00 0.  1.
<mgrwt>
<rscale>  0 0.25627269E+04</rscale>
<asrwt>0</asrwt>
<pdfrwt beam="1">  1        2 0.37302161E+00 0.25627269E+04</pdfrwt>
<pdfrwt beam="2">  1       -2 0.10417991E+00 0.25627269E+04</pdfrwt>
<totfact> 0.25570096E+00</totfact>
</mgrwt>
</event>
<event>
 6    1  0.5040916E-004  0.2315343E+04  0.7818608E-02  0.8471896E-01
          2   -1    0    0  501    0  0.00000000000E+00  0.00000000000E+00  0.10068641141E+04  0.10068641141E+04  0.00000000000E+00 0.  1.
         -2   -1    0    0    0  501 -0.00000000000E+00 -0.00000000000E+00 -0.13310667915E+04  0.13310667915E+04  0.00000000000E+00 0. -1.
         23    2    1    2    0    0 -0.76611950744E+03 -0.86586554654E+03 -0.18003281195E+03  0.11728355471E+04  0.80431106195E+02 0.  0.
         11    1    3    3    0    0 -0.57228671414E+03 -0.59183016189E+03 -0.12962431157E+03  0.83341315435E+03  0.00000000000E+00 0.  1.
        -11    1    3    3    0    0 -0.19383279330E+03 -0.27403538465E+03 -0.50408500378E+02  0.33942239277E+03  0.00000000000E+00 0. -1.
         22    1    1    2    0    0  0.76611950744E+03  0.86586554654E+03 -0.14416986544E+03  0.11650953585E+04  0.00000000000E+00 0.  1.
<mgrwt>
<rscale>  0 0.23153431E+04</rscale>
<asrwt>0</asrwt>
<pdfrwt beam="1">  1        2 0.15490217E+00 0.23153431E+04</pdfrwt>
<pdfrwt beam="2">  1       -2 0.20477951E+00 0.23153431E+04</pdfrwt>
<totfact> 0.27937136E+00</totfact>
</mgrwt>
</event>
<event>
 6    1  0.5040916E-004  0.2132219E+04  0.7818608E-02  0.8547182E-01
         -2   -1    0    0    0  501 -0.00000000000E+00  0.00000000000E+00  0.21294857811E+04  0.21294857811E+04  0.00000000000E+00 0. -1.
          2   -1    0    0  501    0  0.00000000000E+00 -0.00000000000E+00 -0.53373903079E+03  0.53373903079E+03  0.00000000000E+00 0.  1.
         23    2    1    2    0    0 -0.46643466015E+03  0.66030928764E+03  0.16638221448E+04  0.18519271434E+04  0.88092948268E+02 0.  0.
         13    1    3    3    0    0 -0.97031981966E+02  0.93701636147E+02  0.23156334060E+03  0.26798653483E+03  0.00000000000E+00 0. -1.
        -13    1    3    3    0    0 -0.36940267818E+03  0.56660765149E+03  0.14322588042E+04  0.15839406086E+04  0.00000000000E+00 0.  1.
         22    1    1    2    0    0  0.46643466015E+03 -0.66030928764E+03 -0.68075394464E+02  0.81129766847E+03  0.00000000000E+00 0. -1.
<mgrwt>
<rscale>  0 0.21322192E+04</rscale>
<asrwt>0</asrwt>
<pdfrwt beam="1">  1        2 0.82113699E-01 0.21322192E+04</pdfrwt>
<pdfrwt beam="2">  1       -2 0.32761319E+00 0.21322192E+04</pdfrwt>
<totfact> 0.11276327E+00</totfact>
</mgrwt>
</event>
<event>
 6    1  0.5040916E-004  0.1681636E+04  0.7818608E-02  0.8771908E-01
         -2   -1    0    0    0  501 -0.00000000000E+00  0.00000000000E+00  0.18409290655E+03  0.18409290655E+03  0.00000000000E+00 0. -1.
          2   -1    0    0  501    0  0.00000000000E+00 -0.00000000000E+00 -0.38403153519E+04  0.38403153519E+04  0.00000000000E+00 0.  1.
         23    2    1    2    0    0 -0.15059612509E+02 -0.75103347437E+03 -0.27261024662E+04  0.28288325615E+04  0.79880742966E+02 0.  0.
         11    1    3    3    0    0 -0.27030109375E+02 -0.23579214581E+03 -0.97430728914E+03  0.10027977147E+04  0.00000000000E+00 0. -1.
        -11    1    3    3    0    0  0.11970496866E+02 -0.51524132856E+03 -0.17517951771E+04  0.18260348469E+04  0.00000000000E+00 0.  1.
         22    1    1    2    0    0  0.15059612509E+02  0.75103347437E+03 -0.93011997908E+03  0.11955756969E+04  0.00000000000E+00 0. -1.
<mgrwt>
<rscale>  0 0.16816359E+04</rscale>
<asrwt>0</asrwt>
<pdfrwt beam="1">  1        2 0.59081767E+00 0.16816359E+04</pdfrwt>
<pdfrwt beam="2">  1       -2 0.28321989E-01 0.16816359E+04</pdfrwt>
<totfact> 0.50506801E+00</totfact>
</mgrwt>
</event>
<event>
 6    1  0.5040916E-004  0.2374242E+04  0.7818608E-02  0.8449210E-01
          2   -1    0    0  501    0  0.00000000000E+00  0.00000000000E+00  0.27650477978E+04  0.27650477978E+04  0.00000000000E+00 0.  1.
         -2   -1    0    0    0  501 -0.00000000000E+00 -0.00000000000E+00 -0.50966798866E+03  0.50966798866E+03  0.00000000000E+00 0. -1.
         23    2    1    2    0    0  0.11482903184E+04  0.26714855485E+03  0.96020193990E+03  0.15233092892E+04  0.92436029092E+02 0.  0.
         13    1    3    3    0    0  0.10771099951E+04  0.23818747283E+03  0.87077160566E+03  0.14053975961E+04  0.00000000000E+00 0. -1.
        -13    1    3    3    0    0  0.71180323260E+02  0.28961082025E+02  0.89430334241E+02  0.11791169312E+03  0.00000000000E+00 0.  1.
         22    1    1    2    0    0 -0.11482903184E+04 -0.26714855485E+03  0.12951778692E+04  0.17514064972E+04  0.00000000000E+00 0.  1.
<mgrwt>
<rscale>  0 0.23742421E+04</rscale>
<asrwt>0</asrwt>
<pdfrwt beam="1">  1        2 0.42539196E+00 0.23742421E+04</pdfrwt>
<pdfrwt beam="2">  1       -2 0.78410462E-01 0.23742421E+04</pdfrwt>
<totfact> 0.31637561E+00</totfact>
</mgrwt>
</event>
<event>
 6    1  0.5040916E-004  0.2630605E+04  0.7818608E-02  0.8357879E-01
          2   -1    0    0  501    0  0.00000000000E+00  0.00000000000E+00  0.19485673581E+04  0.19485673581E+04  0.00000000000E+00 0.  1.
         -2   -1    0    0    0  501 -0.00000000000E+00 -0.00000000000E+00 -0.88784210475E+03  0.88784210475E+03  0.00000000000E+00 0. -1.
         23    2    1    2    0    0  0.67483200876E+03 -0.11171313000E+04  0.69265582707E+03  0.14803653324E+04  0.91262484614E+02 0.  0.
         13    1    3    3    0    0  0.39704241503E+03 -0.72775240193E+03  0.46690166871E+03  0.95145331262E+03  0.00000000000E+00 0.  1.
        -13    1    3    3    0    0  0.27778959373E+03 -0.38937889803E+03  0.22575415836E+03  0.52891201974E+03  0.00000000000E+00 0. -1.
         22    1    1    2    0    0 -0.67483200876E+03  0.11171313000E+04  0.36806942632E+03  0.13560441305E+04  0.00000000000E+00 0.  1.
<mgrwt>
<rscale>  0 0.26306046E+04</rscale>
<asrwt>0</asrwt>
<pdfrwt beam="1">  1        2 0.29977959E+00 0.26306046E+04</pdfrwt>
<pdfrwt beam="2">  1       -2 0.13659109E+00 0.26306046E+04</pdfrwt>
<totfact> 0.24107322E+00</totfact>
</mgrwt>
</event>
<event>
 6    1  0.5040916E-004  0.5781708E+04  0.7818608E-02  0.7718072E-01
          2   -1    0    0  501    0  0.00000000000E+00  0.00000000000E+00  0.31346358487E+04  0.31346358487E+04  0.00000000000E+00 0.  1.
         -2   -1    0    0    0  501 -0.00000000000E+00 -0.00000000000E+00 -0.26660308984E+04  0.26660308984E+04  0.00000000000E+00 0. -1.
         23    2    1    2    0    0  0.66171393173E+03  0.17379001041E+04 -0.19852754801E+04  0.27217560200E+04  0.92059771199E+02 0.  0.
         13    1    3    3    0    0  0.45038057698E+03  0.10769912493E+04 -0.12796496275E+04  0.17321247023E+04  0.00000000000E+00 0.  1.
        -13    1    3    3    0    0  0.21133335475E+03  0.66090885477E+03 -0.70562585258E+03  0.98963131770E+03  0.00000000000E+00 0. -1.
         22    1    1    2    0    0 -0.66171393173E+03 -0.17379001041E+04  0.24538804303E+04  0.30789107271E+04  0.00000000000E+00 0.  1.
<mgrwt>
<rscale>  0 0.57817077E+04</rscale>
<asrwt>0</asrwt>
<pdfrwt beam="1">  1        2 0.48225167E+00 0.57817077E+04</pdfrwt>
<pdfrwt beam="2">  1       -2 0.41015860E+00 0.57817077E+04</pdfrwt>
<totfact> 0.62363422E-03</totfact>
</mgrwt>
</event>
<event>
 6    1  0.5040916E-004  0.1295071E+04  0.7818608E-02  0.9033483E-01
          2   -1    0    0  501    0  0.00000000000E+00  0.00000000000E+00  0.15840693346E+04  0.15840693346E+04  0.00000000000E+00 0.  1.
         -2   -1    0    0    0  501 -0.00000000000E+00 -0.00000000000E+00 -0.26469932772E+03  0.26469932772E+03  0.00000000000E+00 0. -1.
         23    2    1    2    0    0 -0.40044510937E+03 -0.32334087976E+03  0.10969511792E+03  0.53415124759E+03  0.91536475063E+02 0.  0.
         13    1    3    3    0    0 -0.11667436924E+03 -0.14088515415E+03  0.13920775926E+02  0.18345387186E+03  0.00000000000E+00 0.  1.
        -13    1    3    3    0    0 -0.28377074013E+03 -0.18245572560E+03  0.95774341998E+02  0.35069737573E+03  0.00000000000E+00 0. -1.
         22    1    1    2    0    0  0.40044510937E+03  0.32334087976E+03  0.12096748889E+04  0.13146174147E+04  0.00000000000E+00 0.  1.
<mgrwt>
<rscale>  0 0.12950708E+04</rscale>
<asrwt>0</asrwt>
<pdfrwt beam="1">  1        2 0.24370297E+00 0.12950708E+04</pdfrwt>
<pdfrwt beam="2">  1       -2 0.40722974E-01 0.12950708E+04</pdfrwt>
<totfact> 0.63709585E+01</totfact>
</mgrwt>
</event>
<event>
 6    1  0.5040916E-004  0.1048229E+04  0.7818608E-02  0.9257174E-01
          2   -1    0    0  501    0  0.00000000000E+00  0.00000000000E+00  0.83223432673E+03  0.83223432673E+03  0.00000000000E+00 0.  1.
         -2   -1    0    0    0  501 -0.00000000000E+00 -0.00000000000E+00 -0.33007044467E+03  0.33007044467E+03  0.00000000000E+00 0. -1.
         23    2    1    2    0    0  0.64878916359E+02  0.42777001222E+03 -0.66173477052E+02  0.44801924663E+03  0.95633985281E+02 0.  0.
         13    1    3    3    0    0  0.87891474697E+02  0.35243403926E+03 -0.66395479546E+02  0.36924656133E+03  0.00000000000E+00 0.  1.
        -13    1    3    3    0    0 -0.23012558338E+02  0.75335972964E+02  0.22200249431E+00  0.78772685296E+02  0.00000000000E+00 0. -1.
         22    1    1    2    0    0 -0.64878916359E+02 -0.42777001222E+03  0.56833735911E+03  0.71428552478E+03  0.00000000000E+00 0.  1.
<mgrwt>
<rscale>  0 0.10482289E+04</rscale>
<asrwt>0</asrwt>
<pdfrwt beam="1">  1        2 0.12803605E+00 0.10482289E+04</pdfrwt>
<pdfrwt beam="2">  1       -2 0.50780069E-01 0.10482289E+04</pdfrwt>
<totfact> 0.11925486E+02</totfact>
</mgrwt>
</event>
<event>
 6    1  0.5040916E-004  0.1584260E+04  0.7818608E-02  0.8830277E-01
          2   -1    0    0  501    0  0.00000000000E+00  0.00000000000E+00  0.23080160771E+04  0.23080160771E+04  0.00000000000E+00 0. -1.
         -2   -1    0    0    0  501 -0.00000000000E+00 -0.00000000000E+00 -0.27186533843E+03  0.27186533843E+03  0.00000000000E+00 0.  1.
         23    2    1    2    0    0  0.37793295318E+02 -0.36340572823E+03 -0.11810203507E+03  0.39486492368E+03  0.92076928629E+02 0.  0.
         13    1    3    3    0    0  0.60709636486E+02 -0.21757802286E+03 -0.96649506311E+02  0.24569693337E+03  0.00000000000E+00 0.  1.
        -13    1    3    3    0    0 -0.22916341168E+02 -0.14582770536E+03 -0.21452528761E+02  0.14916799031E+03  0.00000000000E+00 0. -1.
         22    1    1    2    0    0 -0.37793295318E+02  0.36340572823E+03  0.21542527737E+04  0.21850164918E+04  0.00000000000E+00 0. -1.
<mgrwt>
<rscale>  0 0.15842595E+04</rscale>
<asrwt>0</asrwt>
<pdfrwt beam="1">  1        2 0.35507938E+00 0.15842595E+04</pdfrwt>
<pdfrwt beam="2">  1       -2 0.41825438E-01 0.15842595E+04</pdfrwt>
<totfact> 0.23361081E+01</totfact>
</mgrwt>
</event>
<event>
 6    1  0.5040916E-004  0.1330275E+04  0.7818608E-02  0.9005895E-01
         -2   -1    0    0    0  501 -0.00000000000E+00  0.00000000000E+00  0.16834412491E+03  0.16834412491E+03  0.00000000000E+00 0.  1.
          2   -1    0    0  501    0  0.00000000000E+00 -0.00000000000E+00 -0.26279975819E+04  0.26279975819E+04  0.00000000000E+00 0. -1.
         23    2    1    2    0    0  0.62779295148E+03 -0.73256525013E+02 -0.82084660265E+03  0.10398741113E+04  0.89769225305E+02 0.  0.
         11    1    3    3    0    0  0.21295876893E+03 -0.27824527385E+02 -0.21232761245E+03  0.30200770950E+03  0.00000000000E+00 0.  1.
        -11    1    3    3    0    0  0.41483418255E+03 -0.45431997628E+02 -0.60851899020E+03  0.73786640176E+03  0.00000000000E+00 0. -1.
         22    1    1    2    0    0 -0.62779295148E+03  0.73256525013E+02 -0.16388068544E+04  0.17564675956E+04  0.00000000000E+00 0. -1.
<mgrwt>
<rscale>  0 0.13302751E+04</rscale>
<asrwt>0</asrwt>
<pdfrwt beam="1">  1        2 0.40430734E+00 0.13302751E+04</pdfrwt>
<pdfrwt beam="2">  1       -2 0.25899095E-01 0.13302751E+04</pdfrwt>
<totfact> 0.38774524E+01</totfact>
</mgrwt>
</event>
<event>
 6    1  0.5040916E-004  0.1354994E+04  0.7818608E-02  0.8987057E-01
          2   -1    0    0  501    0  0.00000000000E+00  0.00000000000E+00  0.56123504577E+03  0.56123504577E+03  0.00000000000E+00 0.  1.
         -2   -1    0    0    0  501 -0.00000000000E+00 -0.00000000000E+00 -0.81784266073E+03  0.81784266073E+03  0.00000000000E+00 0. -1.
         23    2    1    2    0    0  0.35281694715E+03 -0.41792686919E+03  0.27361316182E+03  0.61731872998E+03  0.84116501846E+02 0.  0.
         13    1    3    3    0    0  0.28898645357E+03 -0.30986383606E+03  0.24177762446E+03  0.48783725456E+03  0.00000000000E+00 0. -1.
        -13    1    3    3    0    0  0.63830493575E+02 -0.10806303313E+03  0.31835537356E+02  0.12948147542E+03  0.00000000000E+00 0.  1.
         22    1    1    2    0    0 -0.35281694715E+03  0.41792686919E+03 -0.53022077677E+03  0.76175897652E+03  0.00000000000E+00 0. -1.
<mgrwt>
<rscale>  0 0.13549937E+04</rscale>
<asrwt>0</asrwt>
<pdfrwt beam="1">  1        2 0.86343854E-01 0.13549937E+04</pdfrwt>
<pdfrwt beam="2">  1       -2 0.12582195E+00 0.13549937E+04</pdfrwt>
<totfact> 0.24741101E+01</totfact>
</mgrwt>
</event>
<event>
 6    1  0.5040916E-004  0.2908292E+04  0.7818608E-02  0.8270415E-01
          2   -1    0    0  501    0  0.00000000000E+00  0.00000000000E+00  0.11167745400E+04  0.11167745400E+04  0.00000000000E+00 0.  1.
         -2   -1    0    0    0  501 -0.00000000000E+00 -0.00000000000E+00 -0.18934349472E+04  0.18934349472E+04  0.00000000000E+00 0. -1.
         23    2    1    2    0    0  0.53545791073E+03 -0.10237923144E+04 -0.12999014001E+04  0.17418849965E+04  0.97743613182E+02 0.  0.
         13    1    3    3    0    0  0.41476813181E+03 -0.86965777192E+03 -0.10673731028E+04  0.14379230104E+04  0.00000000000E+00 0. -1.
        -13    1    3    3    0    0  0.12068977892E+03 -0.15413454246E+03 -0.23252829730E+03  0.30396198605E+03  0.00000000000E+00 0.  1.
         22    1    1    2    0    0 -0.53545791073E+03  0.10237923144E+04  0.52324099284E+03  0.12683244907E+04  0.00000000000E+00 0.  1.
<mgrwt>
<rscale>  0 0.29082916E+04</rscale>
<asrwt>0</asrwt>
<pdfrwt beam="1">  1        2 0.17181147E+00 0.29082916E+04</pdfrwt>
<pdfrwt beam="2">  1       -2 0.29129768E+00 0.29082916E+04</pdfrwt>
<totfact> 0.65918177E-01</totfact>
</mgrwt>
</event>
<event>
 6    1  0.5040916E-004  0.3664717E+04  0.7818608E-02  0.8075826E-01
         -2   -1    0    0    0  501 -0.00000000000E+00  0.00000000000E+00  0.95277462340E+03  0.95277462340E+03  0.00000000000E+00 0. -1.
          2   -1    0    0  501    0  0.00000000000E+00 -0.00000000000E+00 -0.35239582670E+04  0.35239582670E+04  0.00000000000E+00 0.  1.
         23    2    1    2    0    0 -0.17317571480E+04 -0.46667373221E+03 -0.83342516917E+03  0.19794199930E+04  0.82090220922E+02 0.  0.
         13    1    3    3    0    0 -0.21847397928E+03 -0.65910532029E+02 -0.13589194261E+03  0.26559687106E+03  0.00000000000E+00 0.  1.
        -13    1    3    3    0    0 -0.15132831687E+04 -0.40076320018E+03 -0.69753322657E+03  0.17138231220E+04  0.00000000000E+00 0. -1.
         22    1    1    2    0    0  0.17317571480E+04  0.46667373221E+03 -0.17377584744E+04  0.24973128974E+04  0.00000000000E+00 0. -1.
<mgrwt>
<rscale>  0 0.36647172E+04</rscale>
<asrwt>0</asrwt>
<pdfrwt beam="1">  1        2 0.54214742E+00 0.36647172E+04</pdfrwt>
<pdfrwt beam="2">  1       -2 0.14658071E+00 0.36647172E+04</pdfrwt>
<totfact> 0.20155939E-01</totfact>
</mgrwt>
</event>
<event>
 6    1  0.5040916E-004  0.3197244E+04  0.7818608E-02  0.8189545E-01
         -2   -1    0    0    0  501 -0.00000000000E+00  0.00000000000E+00  0.16499746356E+04  0.16499746356E+04  0.00000000000E+00 0. -1.
          2   -1    0    0  501    0  0.00000000000E+00 -0.00000000000E+00 -0.15488680664E+04  0.15488680664E+04  0.00000000000E+00 0.  1.
         23    2    1    2    0    0  0.32658452992E+03  0.15181262782E+04  0.42463408897E+03  0.16126412937E+04  0.94514448317E+02 0.  0.
         13    1    3    3    0    0  0.19250270609E+03  0.97508853733E+03  0.22786816864E+03  0.10196954691E+04  0.00000000000E+00 0.  1.
        -13    1    3    3    0    0  0.13408182383E+03  0.54303774083E+03  0.19676592033E+03  0.59294582455E+03  0.00000000000E+00 0. -1.
         22    1    1    2    0    0 -0.32658452992E+03 -0.15181262782E+04 -0.32352751985E+03  0.15862014083E+04  0.00000000000E+00 0.  1.
<mgrwt>
<rscale>  0 0.31972445E+04</rscale>
<asrwt>0</asrwt>
<pdfrwt beam="1">  1        2 0.23828739E+00 0.31972445E+04</pdfrwt>
<pdfrwt beam="2">  1       -2 0.25384225E+00 0.31972445E+04</pdfrwt>
<totfact> 0.61069260E-01</totfact>
</mgrwt>
</event>
<event>
 6    1  0.5040916E-004  0.2822294E+04  0.7818608E-02  0.8296380E-01
          2   -1    0    0  501    0  0.00000000000E+00  0.00000000000E+00  0.17105976787E+04  0.17105976787E+04  0.00000000000E+00 0.  1.
         -2   -1    0    0    0  501 -0.00000000000E+00 -0.00000000000E+00 -0.11641170091E+04  0.11641170091E+04  0.00000000000E+00 0. -1.
         23    2    1    2    0    0  0.47682207328E+03 -0.12978197250E+04  0.55348963025E+03  0.14920562145E+04  0.90474573705E+02 0.  0.
         11    1    3    3    0    0  0.13697822665E+03 -0.30604685431E+03  0.10092530047E+03  0.35016228793E+03  0.00000000000E+00 0.  1.
        -11    1    3    3    0    0  0.33984384662E+03 -0.99177287065E+03  0.45256432978E+03  0.11418939266E+04  0.00000000000E+00 0. -1.
         22    1    1    2    0    0 -0.47682207328E+03  0.12978197250E+04 -0.70089605997E+01  0.13826584732E+04  0.00000000000E+00 0. -1.
<mgrwt>
<rscale>  0 0.28222940E+04</rscale>
<asrwt>0</asrwt>
<pdfrwt beam="1">  1        2 0.26316887E+00 0.28222940E+04</pdfrwt>
<pdfrwt beam="2">  1       -2 0.17909492E+00 0.28222940E+04</pdfrwt>
<totfact> 0.15460899E+00</totfact>
</mgrwt>
</event>
<event>
 6    1  0.5040916E-004  0.4576527E+03  0.7818608E-02  0.1025464E+00
          2   -1    0    0  501    0  0.00000000000E+00  0.00000000000E+00  0.17406270771E+03  0.17406270771E+03  0.00000000000E+00 0.  1.
         -2   -1    0    0    0  501 -0.00000000000E+00 -0.00000000000E+00 -0.30081969742E+03  0.30081969742E+03  0.00000000000E+00 0. -1.
         23    2    1    2    0    0  0.15440414026E+03  0.38313904267E+02 -0.22535863921E+03  0.28771702619E+03  0.81767824378E+02 0.  0.
         11    1    3    3    0    0  0.86833935638E+02 -0.16215879552E+02 -0.84475725503E+02  0.12222616466E+03  0.00000000000E+00 0.  1.
        -11    1    3    3    0    0  0.67570204627E+02  0.54529783819E+02 -0.14088291371E+03  0.16549086153E+03  0.00000000000E+00 0. -1.
         22    1    1    2    0    0 -0.15440414026E+03 -0.38313904267E+02  0.98601649497E+02  0.18716537894E+03  0.00000000000E+00 0.  1.
<mgrwt>
<rscale>  0 0.45765267E+03</rscale>
<asrwt>0</asrwt>
<pdfrwt beam="1">  1        2 0.26778878E-01 0.45765267E+03</pdfrwt>
<pdfrwt beam="2">  1       -2 0.46279953E-01 0.45765267E+03</pdfrwt>
<totfact> 0.89852179E+02</totfact>
</mgrwt>
</event>
<event>
 6    1  0.5040916E-004  0.2274855E+04  0.7818608E-02  0.8487902E-01
          2   -1    0    0  501    0  0.00000000000E+00  0.00000000000E+00  0.76517310079E+03  0.76517310079E+03  0.00000000000E+00 0.  1.
         -2   -1    0    0    0  501 -0.00000000000E+00 -0.00000000000E+00 -0.16907822744E+04  0.16907822744E+04  0.00000000000E+00 0. -1.
         23    2    1    2    0    0  0.15645629918E+03  0.11142814220E+04 -0.62884760357E+03  0.12922676634E+04  0.91677392657E+02 0.  0.
         11    1    3    3    0    0  0.87987993981E+02  0.32895745966E+03 -0.19822186724E+03  0.39401371296E+03  0.00000000000E+00 0.  1.
        -11    1    3    3    0    0  0.68468305198E+02  0.78532396238E+03 -0.43062573634E+03  0.89825395045E+03  0.00000000000E+00 0. -1.
         22    1    1    2    0    0 -0.15645629918E+03 -0.11142814220E+04 -0.29676157001E+03  0.11636877118E+04  0.00000000000E+00 0. -1.
<mgrwt>
<rscale>  0 0.22748548E+04</rscale>
<asrwt>0</asrwt>
<pdfrwt beam="1">  1        2 0.11771894E+00 0.22748548E+04</pdfrwt>
<pdfrwt beam="2">  1       -2 0.26012035E+00 0.22748548E+04</pdfrwt>
<totfact> 0.18483993E+00</totfact>
</mgrwt>
</event>
<event>
 6    1  0.5040916E-004  0.2373236E+04  0.7818608E-02  0.8449592E-01
         -2   -1    0    0    0  501 -0.00000000000E+00  0.00000000000E+00  0.60639154277E+03  0.60639154277E+03  0.00000000000E+00 0. -1.
          2   -1    0    0  501    0  0.00000000000E+00 -0.00000000000E+00 -0.23220348578E+04  0.23220348578E+04  0.00000000000E+00 0.  1.
         23    2    1    2    0    0  0.99318737569E+03  0.64558357926E+03 -0.88948351639E+03  0.14842175050E+04  0.92311186882E+02 0.  0.
         13    1    3    3    0    0  0.53683074693E+03  0.39294907283E+03 -0.46452485805E+03  0.81140592088E+03  0.00000000000E+00 0.  1.
        -13    1    3    3    0    0  0.45635662876E+03  0.25263450643E+03 -0.42495865834E+03  0.67281158414E+03  0.00000000000E+00 0. -1.
         22    1    1    2    0    0 -0.99318737569E+03 -0.64558357926E+03 -0.82615979859E+03  0.14442088955E+04  0.00000000000E+00 0. -1.
<mgrwt>
<rscale>  0 0.23732360E+04</rscale>
<asrwt>0</asrwt>
<pdfrwt beam="1">  1        2 0.35723613E+00 0.23732360E+04</pdfrwt>
<pdfrwt beam="2">  1       -2 0.93291008E-01 0.23732360E+04</pdfrwt>
<totfact> 0.38592543E+00</totfact>
</mgrwt>
</event>
<event>
 6    1  0.5040916E-004  0.2746175E+04  0.7818608E-02  0.8320176E-01
          2   -1    0    0  501    0  0.00000000000E+00  0.00000000000E+00  0.19417743205E+04  0.19417743205E+04  0.00000000000E+00 0.  1.
         -2   -1    0    0    0  501 -0.00000000000E+00 -0.00000000000E+00 -0.97095189873E+03  0.97095189873E+03  0.00000000000E+00 0. -1.
         23    2    1    2    0    0 -0.35424184252E+03 -0.12372637493E+04 -0.17132501442E+02  0.12902701186E+04  0.90523964244E+02 0.  0.
         11    1    3    3    0    0 -0.24180696927E+03 -0.80847379528E+03  0.30646049991E+02  0.84441676228E+03  0.00000000000E+00 0. -1.
        -11    1    3    3    0    0 -0.11243487325E+03 -0.42878995399E+03 -0.47778551432E+02  0.44585335632E+03  0.00000000000E+00 0.  1.
         22    1    1    2    0    0  0.35424184252E+03  0.12372637493E+04  0.98795492324E+03  0.16224561007E+04  0.00000000000E+00 0.  1.
<mgrwt>
<rscale>  0 0.27461751E+04</rscale>
<asrwt>0</asrwt>
<pdfrwt beam="1">  1        2 0.29873451E+00 0.27461751E+04</pdfrwt>
<pdfrwt beam="2">  1       -2 0.14937722E+00 0.27461751E+04</pdfrwt>
<totfact> 0.19060965E+00</totfact>
</mgrwt>
</event>
<event>
 6    1  0.5040916E-004  0.4082397E+04  0.7818608E-02  0.7988128E-01
         -2   -1    0    0    0  501 -0.00000000000E+00  0.00000000000E+00  0.15077159357E+04  0.15077159357E+04  0.00000000000E+00 0. -1.
          2   -1    0    0  501    0  0.00000000000E+00 -0.00000000000E+00 -0.27634453207E+04  0.27634453207E+04  0.00000000000E+00 0.  1.
         23    2    1    2    0    0 -0.40641671538E+03  0.18586825013E+04 -0.13987479703E+04  0.23631965024E+04  0.91250411100E+02 0.  0.
         11    1    3    3    0    0 -0.97497949406E+02  0.48833242626E+03 -0.31830948529E+03  0.59101212940E+03  0.00000000000E+00 0.  1.
        -11    1    3    3    0    0 -0.30891876598E+03  0.13703500750E+04 -0.10804384850E+04  0.17721843730E+04  0.00000000000E+00 0. -1.
         22    1    1    2    0    0  0.40641671538E+03 -0.18586825013E+04  0.14301858529E+03  0.19079647541E+04  0.00000000000E+00 0.  1.
<mgrwt>
<rscale>  0 0.40823966E+04</rscale>
<asrwt>0</asrwt>
<pdfrwt beam="1">  1        2 0.42514543E+00 0.40823966E+04</pdfrwt>
<pdfrwt beam="2">  1       -2 0.23195630E+00 0.40823966E+04</pdfrwt>
<totfact> 0.15844941E-01</totfact>
</mgrwt>
</event>
<event>
 6    1  0.5040916E-004  0.3796879E+04  0.7818608E-02  0.8046825E-01
         -2   -1    0    0    0  501 -0.00000000000E+00  0.00000000000E+00  0.11687681309E+04  0.11687681309E+04  0.00000000000E+00 0. -1.
          2   -1    0    0  501    0  0.00000000000E+00 -0.00000000000E+00 -0.30836510454E+04  0.30836510454E+04  0.00000000000E+00 0.  1.
         23    2    1    2    0    0 -0.80183420042E+03 -0.43097120508E+02  0.96733942747E+03  0.12604296917E+04  0.90232993188E+02 0.  0.
         13    1    3    3    0    0 -0.58478043333E+03 -0.51798907188E+02  0.75791876291E+03  0.95869292954E+03  0.00000000000E+00 0.  1.
        -13    1    3    3    0    0 -0.21705376709E+03  0.87017866801E+01  0.20942066457E+03  0.30173676218E+03  0.00000000000E+00 0. -1.
         22    1    1    2    0    0  0.80183420042E+03  0.43097120508E+02 -0.28822223420E+04  0.29919894845E+04  0.00000000000E+00 0.  1.
<mgrwt>
<rscale>  0 0.37968793E+04</rscale>
<asrwt>0</asrwt>
<pdfrwt beam="1">  1        2 0.47440785E+00 0.37968793E+04</pdfrwt>
<pdfrwt beam="2">  1       -2 0.17981048E+00 0.37968793E+04</pdfrwt>
<totfact> 0.22467049E-01</totfact>
</mgrwt>
</event>
<event>
 6    1  0.5040916E-004  0.1709943E+04  0.7818608E-02  0.8755714E-01
         -2   -1    0    0    0  501 -0.00000000000E+00  0.00000000000E+00  0.36206970073E+03  0.36206970073E+03  0.00000000000E+00 0. -1.
          2   -1    0    0  501    0  0.00000000000E+00 -0.00000000000E+00 -0.20188836840E+04  0.20188836840E+04  0.00000000000E+00 0.  1.
         23    2    1    2    0    0 -0.29403487316E+02  0.72372801395E+03 -0.14567690022E+04  0.16295115722E+04  0.92115333804E+02 0.  0.
         11    1    3    3    0    0  0.16191611008E+02  0.55884340582E+03 -0.11187445088E+04  0.12506627829E+04  0.00000000000E+00 0. -1.
        -11    1    3    3    0    0 -0.45595098325E+02  0.16488460813E+03 -0.33802449345E+03  0.37884878930E+03  0.00000000000E+00 0.  1.
         22    1    1    2    0    0  0.29403487316E+02 -0.72372801395E+03 -0.20004498105E+03  0.75144181257E+03  0.00000000000E+00 0. -1.
<mgrwt>
<rscale>  0 0.17099434E+04</rscale>
<asrwt>0</asrwt>
<pdfrwt beam="1">  1        2 0.31059749E+00 0.17099434E+04</pdfrwt>
<pdfrwt beam="2">  1       -2 0.55703031E-01 0.17099434E+04</pdfrwt>
<totfact> 0.18776174E+01</totfact>
</mgrwt>
</event>
<event>
 6    1  0.5040916E-004  0.2738784E+04  0.7818608E-02  0.8322530E-01
         -2   -1    0    0    0  501 -0.00000000000E+00  0.00000000000E+00  0.99095853552E+03  0.99095853552E+03  0.00000000000E+00 0. -1.
          2   -1    0    0  501    0  0.00000000000E+00 -0.00000000000E+00 -0.18923434175E+04  0.18923434175E+04  0.00000000000E+00 0.  1.
         23    2    1    2    0    0 -0.76739191616E+03 -0.11276759396E+04 -0.34474386056E+03  0.14100767141E+04  0.94470273371E+02 0.  0.
         11    1    3    3    0    0 -0.63590473485E+03 -0.87911870233E+03 -0.29641564953E+03  0.11247607576E+04  0.00000000000E+00 0. -1.
        -11    1    3    3    0    0 -0.13148718131E+03 -0.24855723730E+03 -0.48328211029E+02  0.28531595652E+03  0.00000000000E+00 0.  1.
         22    1    1    2    0    0  0.76739191616E+03  0.11276759396E+04 -0.55664102146E+03  0.14732252389E+04  0.00000000000E+00 0. -1.
<mgrwt>
<rscale>  0 0.27387836E+04</rscale>
<asrwt>0</asrwt>
<pdfrwt beam="1">  1        2 0.29112976E+00 0.27387836E+04</pdfrwt>
<pdfrwt beam="2">  1       -2 0.15245516E+00 0.27387836E+04</pdfrwt>
<totfact> 0.19245094E+00</totfact>
</mgrwt>
</event>
<event>
 6    1  0.5040916E-004  0.5367760E+04  0.7818608E-02  0.7774152E-01
          2   -1    0    0  501    0  0.00000000000E+00  0.00000000000E+00  0.23842326513E+04  0.23842326513E+04  0.00000000000E+00 0.  1.
         -2   -1    0    0    0  501 -0.00000000000E+00 -0.00000000000E+00 -0.30211868923E+04  0.30211868923E+04  0.00000000000E+00 0. -1.
         23    2    1    2    0    0  0.19800679791E+04 -0.10833764225E+03  0.15014813177E+04  0.24890325862E+04  0.91819501455E+02 0.  0.
         13    1    3    3    0    0  0.11161599582E+04 -0.10280748898E+03  0.82493464338E+03  0.13917254032E+04  0.00000000000E+00 0. -1.
        -13    1    3    3    0    0  0.86390802090E+03 -0.55301532735E+01  0.67654667436E+03  0.10973071830E+04  0.00000000000E+00 0.  1.
         22    1    1    2    0    0 -0.19800679791E+04  0.10833764225E+03 -0.21384355587E+04  0.29163869574E+04  0.00000000000E+00 0. -1.
<mgrwt>
<rscale>  0 0.53677602E+04</rscale>
<asrwt>0</asrwt>
<pdfrwt beam="1">  1        2 0.36680502E+00 0.53677602E+04</pdfrwt>
<pdfrwt beam="2">  1       -2 0.46479798E+00 0.53677602E+04</pdfrwt>
<totfact> 0.79988641E-03</totfact>
</mgrwt>
</event>
<event>
 6    1  0.5040916E-004  0.1488948E+04  0.7818608E-02  0.8891836E-01
         -2   -1    0    0    0  501 -0.00000000000E+00  0.00000000000E+00  0.20744119893E+03  0.20744119893E+03  0.00000000000E+00 0. -1.
          2   -1    0    0  501    0  0.00000000000E+00 -0.00000000000E+00 -0.26718014335E+04  0.26718014335E+04  0.00000000000E+00 0.  1.
         23    2    1    2    0    0  0.63678145703E+03 -0.10883205561E+03 -0.19413430913E+04  0.20480495306E+04  0.91426699269E+02 0.  0.
         11    1    3    3    0    0  0.37041581440E+03 -0.17377825089E+02 -0.11019667031E+04  0.11626867502E+04  0.00000000000E+00 0. -1.
        -11    1    3    3    0    0  0.26636564263E+03 -0.91454230521E+02 -0.83937638825E+03  0.88536278045E+03  0.00000000000E+00 0.  1.
         22    1    1    2    0    0 -0.63678145703E+03  0.10883205561E+03 -0.52301714326E+03  0.83119310181E+03  0.00000000000E+00 0. -1.
<mgrwt>
<rscale>  0 0.14889482E+04</rscale>
<asrwt>0</asrwt>
<pdfrwt beam="1">  1        2 0.41104634E+00 0.14889482E+04</pdfrwt>
<pdfrwt beam="2">  1       -2 0.31914034E-01 0.14889482E+04</pdfrwt>
<totfact> 0.24471945E+01</totfact>
</mgrwt>
</event>
<event>
 6    1  0.5040916E-004  0.4741517E+04  0.7818608E-02  0.7869667E-01
         -2   -1    0    0    0  501 -0.00000000000E+00  0.00000000000E+00  0.25110035267E+04  0.25110035267E+04  0.00000000000E+00 0. -1.
          2   -1    0    0  501    0  0.00000000000E+00 -0.00000000000E+00 -0.22383460157E+04  0.22383460157E+04  0.00000000000E+00 0.  1.
         23    2    1    2    0    0 -0.31839500372E+03 -0.22085241456E+04 -0.66332042845E+03  0.23296369596E+04  0.90885053195E+02 0.  0.
         11    1    3    3    0    0 -0.97688722473E+02 -0.56330958014E+03 -0.20788989050E+03  0.60834116756E+03  0.00000000000E+00 0.  1.
        -11    1    3    3    0    0 -0.22070628124E+03 -0.16452145655E+04 -0.45543053795E+03  0.17212957921E+04  0.00000000000E+00 0. -1.
         22    1    1    2    0    0  0.31839500372E+03  0.22085241456E+04  0.93597793939E+03  0.24197125827E+04  0.00000000000E+00 0. -1.
<mgrwt>
<rscale>  0 0.47415165E+04</rscale>
<asrwt>0</asrwt>
<pdfrwt beam="1">  1        2 0.34436092E+00 0.47415165E+04</pdfrwt>
<pdfrwt beam="2">  1       -2 0.38630824E+00 0.47415165E+04</pdfrwt>
<totfact> 0.33283874E-02</totfact>
</mgrwt>
</event>
<event>
 6    1  0.5040916E-004  0.2809317E+04  0.7818608E-02  0.8300382E-01
          2   -1    0    0  501    0  0.00000000000E+00  0.00000000000E+00  0.25224037984E+04  0.25224037984E+04  0.00000000000E+00 0.  1.
         -2   -1    0    0    0  501 -0.00000000000E+00 -0.00000000000E+00 -0.78221633394E+03  0.78221633394E+03  0.00000000000E+00 0. -1.
         23    2    1    2    0    0 -0.88744112560E+02 -0.16954534667E+03  0.25061574367E+04  0.25151069022E+04  0.91194792435E+02 0.  0.
         11    1    3    3    0    0 -0.67906402929E+02 -0.12550174197E+03  0.22390100093E+04  0.22435524929E+04  0.00000000000E+00 0.  1.
        -11    1    3    3    0    0 -0.20837709631E+02 -0.44043604699E+02  0.26714742736E+03  0.27155440928E+03  0.00000000000E+00 0. -1.
         22    1    1    2    0    0  0.88744112560E+02  0.16954534667E+03 -0.76596997224E+03  0.78951323007E+03  0.00000000000E+00 0. -1.
<mgrwt>
<rscale>  0 0.28093170E+04</rscale>
<asrwt>0</asrwt>
<pdfrwt beam="1">  1        2 0.38806212E+00 0.28093170E+04</pdfrwt>
<pdfrwt beam="2">  1       -2 0.12034098E+00 0.28093170E+04</pdfrwt>
<totfact> 0.15484440E+00</totfact>
</mgrwt>
</event>
<event>
 6    1  0.5040916E-004  0.4441782E+04  0.7818608E-02  0.7920909E-01
          1   -1    0    0  501    0  0.00000000000E+00  0.00000000000E+00  0.33458567690E+04  0.33458567690E+04  0.00000000000E+00 0.  1.
         -1   -1    0    0    0  501 -0.00000000000E+00 -0.00000000000E+00 -0.14741688823E+04  0.14741688823E+04  0.00000000000E+00 0. -1.
         23    2    1    2    0    0 -0.12529101853E+03 -0.95049532706E+03  0.31090181199E+04  0.32547380381E+04  0.90481051092E+02 0.  0.
         13    1    3    3    0    0 -0.51884138081E+02 -0.62716193932E+03  0.21365298505E+04  0.22272817208E+04  0.00000000000E+00 0. -1.
        -13    1    3    3    0    0 -0.73406880449E+02 -0.32333338774E+03  0.97248826940E+03  0.10274563172E+04  0.00000000000E+00 0.  1.
         22    1    1    2    0    0  0.12529101853E+03  0.95049532706E+03 -0.12373302332E+04  0.15652876132E+04  0.00000000000E+00 0. -1.
<mgrwt>
<rscale>  0 0.44417825E+04</rscale>
<asrwt>0</asrwt>
<pdfrwt beam="1">  1        1 0.51474719E+00 0.44417825E+04</pdfrwt>
<pdfrwt beam="2">  1       -1 0.22679521E+00 0.44417825E+04</pdfrwt>
<totfact> 0.24630981E-02</totfact>
</mgrwt>
</event>
<event>
 6    1  0.5040916E-004  0.5403596E+03  0.7818608E-02  0.1003750E+00
         -2   -1    0    0    0  501 -0.00000000000E+00  0.00000000000E+00  0.17726359227E+02  0.17726359227E+02  0.00000000000E+00 0. -1.
          2   -1    0    0  501    0  0.00000000000E+00 -0.00000000000E+00 -0.41179992731E+04  0.41179992731E+04  0.00000000000E+00 0.  1.
         23    2    1    2    0    0 -0.77121767918E+02 -0.13036336998E+03 -0.37504617771E+04  0.37545298733E+04  0.87112871547E+02 0.  0.
         13    1    3    3    0    0  0.96308405178E+01 -0.64180174448E+02 -0.12382915870E+04  0.12399910896E+04  0.00000000000E+00 0.  1.
        -13    1    3    3    0    0 -0.86752608436E+02 -0.66183195534E+02 -0.25121701902E+04  0.25145387837E+04  0.00000000000E+00 0. -1.
         22    1    1    2    0    0  0.77121767918E+02  0.13036336998E+03 -0.34981113676E+03  0.38119575905E+03  0.00000000000E+00 0. -1.
<mgrwt>
<rscale>  0 0.54035964E+03</rscale>
<asrwt>0</asrwt>
<pdfrwt beam="1">  1        2 0.63353869E+00 0.54035964E+03</pdfrwt>
<pdfrwt beam="2">  1       -2 0.27271307E-02 0.54035964E+03</pdfrwt>
<totfact> 0.16437504E+02</totfact>
</mgrwt>
</event>
<event>
 6    1  0.5040916E-004  0.1976788E+04  0.7818608E-02  0.8617550E-01
          2   -1    0    0  501    0  0.00000000000E+00  0.00000000000E+00  0.21963842442E+04  0.21963842442E+04  0.00000000000E+00 0.  1.
         -2   -1    0    0    0  501 -0.00000000000E+00 -0.00000000000E+00 -0.44478699392E+03  0.44478699392E+03  0.00000000000E+00 0. -1.
         23    2    1    2    0    0 -0.79294089437E+03 -0.60207302758E+02  0.98210759480E+02  0.80648677772E+03  0.91626350368E+02 0.  0.
         13    1    3    3    0    0 -0.34077018788E+03  0.18871802013E+02  0.33943893430E+02  0.34297617083E+03  0.00000000000E+00 0. -1.
        -13    1    3    3    0    0 -0.45217070649E+03 -0.79079104771E+02  0.64266866050E+02  0.46351060688E+03  0.00000000000E+00 0.  1.
         22    1    1    2    0    0  0.79294089437E+03  0.60207302758E+02  0.16533864908E+04  0.18346844604E+04  0.00000000000E+00 0.  1.
<mgrwt>
<rscale>  0 0.19767885E+04</rscale>
<asrwt>0</asrwt>
<pdfrwt beam="1">  1        2 0.33790526E+00 0.19767885E+04</pdfrwt>
<pdfrwt beam="2">  1       -2 0.68428769E-01 0.19767885E+04</pdfrwt>
<totfact> 0.94330266E+00</totfact>
</mgrwt>
</event>
<event>
 6    1  0.5040916E-004  0.9333853E+03  0.7818608E-02  0.9384784E-01
          2   -1    0    0  501    0  0.00000000000E+00  0.00000000000E+00  0.90685271545E+03  0.90685271545E+03  0.00000000000E+00 0.  1.
         -2   -1    0    0    0  501 -0.00000000000E+00 -0.00000000000E+00 -0.24017353695E+03  0.24017353695E+03  0.00000000000E+00 0. -1.
         23    2    1    2    0    0  0.23145997273E+03  0.23874083392E+03  0.73098536856E+03  0.80834322826E+03  0.92240234562E+02 0.  0.
         13    1    3    3    0    0  0.10673381958E+03  0.11427297253E+03  0.23759848020E+03  0.28443533235E+03  0.00000000000E+00 0.  1.
        -13    1    3    3    0    0  0.12472615315E+03  0.12446786139E+03  0.49338688836E+03  0.52390789592E+03  0.00000000000E+00 0. -1.
         22    1    1    2    0    0 -0.23145997273E+03 -0.23874083392E+03 -0.64306190059E+02  0.33868302413E+03  0.00000000000E+00 0. -1.
<mgrwt>
<rscale>  0 0.93338529E+03</rscale>
<asrwt>0</asrwt>
<pdfrwt beam="1">  1        2 0.13951580E+00 0.93338529E+03</pdfrwt>
<pdfrwt beam="2">  1       -2 0.36949775E-01 0.93338529E+03</pdfrwt>
<totfact> 0.20031006E+02</totfact>
</mgrwt>
</event>
<event>
 6    1  0.5040916E-004  0.3798484E+04  0.7818608E-02  0.8046480E-01
          2   -1    0    0  501    0  0.00000000000E+00  0.00000000000E+00  0.27232639133E+04  0.27232639133E+04  0.00000000000E+00 0.  1.
         -2   -1    0    0    0  501 -0.00000000000E+00 -0.00000000000E+00 -0.13245573701E+04  0.13245573701E+04  0.00000000000E+00 0. -1.
         23    2    1    2    0    0 -0.39370355371E+03 -0.13289230684E+04  0.20818782132E+04  0.25025826156E+04  0.87543381443E+02 0.  0.
         13    1    3    3    0    0 -0.31290662429E+03 -0.92145757673E+03  0.14375164388E+04  0.17359286083E+04  0.00000000000E+00 0. -1.
        -13    1    3    3    0    0 -0.80796929421E+02 -0.40746549162E+03  0.64436177437E+03  0.76665400732E+03  0.00000000000E+00 0.  1.
         22    1    1    2    0    0  0.39370355371E+03  0.13289230684E+04 -0.68317166990E+03  0.15452386678E+04  0.00000000000E+00 0. -1.
<mgrwt>
<rscale>  0 0.37984835E+04</rscale>
<asrwt>0</asrwt>
<pdfrwt beam="1">  1        2 0.41896368E+00 0.37984835E+04</pdfrwt>
<pdfrwt beam="2">  1       -2 0.20377806E+00 0.37984835E+04</pdfrwt>
<totfact> 0.25906225E-01</totfact>
</mgrwt>
</event>
<event>
 6    1  0.5040916E-004  0.2347144E+04  0.7818608E-02  0.8459561E-01
         -2   -1    0    0    0  501 -0.00000000000E+00  0.00000000000E+00  0.25653709565E+04  0.25653709565E+04  0.00000000000E+00 0. -1.
          2   -1    0    0  501    0  0.00000000000E+00 -0.00000000000E+00 -0.53687018171E+03  0.53687018171E+03  0.00000000000E+00 0.  1.
         23    2    1    2    0    0 -0.23408537632E+03  0.96084647661E+02  0.25280276213E+04  0.25422810564E+04  0.90780463847E+02 0.  0.
         11    1    3    3    0    0 -0.55054132441E+02 -0.87950018121E+00  0.30340326955E+03  0.30835900343E+03  0.00000000000E+00 0.  1.
        -11    1    3    3    0    0 -0.17903124388E+03  0.96964147842E+02  0.22246243518E+04  0.22339220530E+04  0.00000000000E+00 0. -1.
         22    1    1    2    0    0  0.23408537632E+03 -0.96084647661E+02 -0.49952684648E+03  0.55996008186E+03  0.00000000000E+00 0.  1.
<mgrwt>
<rscale>  0 0.23471439E+04</rscale>
<asrwt>0</asrwt>
<pdfrwt beam="1">  1        2 0.82595414E-01 0.23471439E+04</pdfrwt>
<pdfrwt beam="2">  1       -2 0.39467245E+00 0.23471439E+04</pdfrwt>
<totfact> 0.41181778E-01</totfact>
</mgrwt>
</event>
<event>
 6    1  0.5040916E-004  0.2232773E+04  0.7818608E-02  0.8504910E-01
          1   -1    0    0  501    0  0.00000000000E+00  0.00000000000E+00  0.34790459480E+04  0.34790459480E+04  0.00000000000E+00 0.  1.
         -1   -1    0    0    0  501 -0.00000000000E+00 -0.00000000000E+00 -0.35823578651E+03  0.35823578651E+03  0.00000000000E+00 0. -1.
         23    2    1    2    0    0 -0.88896766232E+03  0.53387047958E+03  0.86088735116E+03  0.13508118871E+04  0.91019389310E+02 0.  0.
         11    1    3    3    0    0 -0.13466609208E+03  0.57225891911E+02  0.15428057413E+03  0.21263173473E+03  0.00000000000E+00 0. -1.
        -11    1    3    3    0    0 -0.75430157024E+03  0.47664458767E+03  0.70660677704E+03  0.11381801523E+04  0.00000000000E+00 0.  1.
         22    1    1    2    0    0  0.88896766232E+03 -0.53387047958E+03  0.22599228103E+04  0.24864698474E+04  0.00000000000E+00 0.  1.
<mgrwt>
<rscale>  0 0.22327729E+04</rscale>
<asrwt>0</asrwt>
<pdfrwt beam="1">  1        1 0.53523782E+00 0.22327729E+04</pdfrwt>
<pdfrwt beam="2">  1       -1 0.55113200E-01 0.22327729E+04</pdfrwt>
<totfact> 0.78717355E-01</totfact>
</mgrwt>
</event>
<event>
 6    1  0.5040916E-004  0.5440608E+03  0.7818608E-02  0.1002878E+00
          1   -1    0    0  501    0  0.00000000000E+00  0.00000000000E+00  0.56021027638E+03  0.56021027638E+03  0.00000000000E+00 0.  1.
         -1   -1    0    0    0  501 -0.00000000000E+00 -0.00000000000E+00 -0.13209420269E+03  0.13209420269E+03  0.00000000000E+00 0. -1.
         23    2    1    2    0    0 -0.18595578369E+03  0.79914667605E+02  0.38881629379E+01  0.22226700414E+03  0.91769252641E+02 0.  0.
         13    1    3    3    0    0 -0.97806172653E+02  0.21252251618E+02  0.43609848021E+02  0.10917657465E+03  0.00000000000E+00 0.  1.
        -13    1    3    3    0    0 -0.88149611037E+02  0.58662415987E+02 -0.39721685084E+02  0.11309042949E+03  0.00000000000E+00 0. -1.
         22    1    1    2    0    0  0.18595578369E+03 -0.79914667605E+02  0.42422791075E+03  0.47003747493E+03  0.00000000000E+00 0.  1.
<mgrwt>
<rscale>  0 0.54406077E+03</rscale>
<asrwt>0</asrwt>
<pdfrwt beam="1">  1        1 0.86186195E-01 0.54406077E+03</pdfrwt>
<pdfrwt beam="2">  1       -1 0.20322185E-01 0.54406077E+03</pdfrwt>
<totfact> 0.75795084E+02</totfact>
</mgrwt>
</event>
<event>
 6    1  0.5040916E-004  0.2857551E+04  0.7818608E-02  0.8285621E-01
          2   -1    0    0  501    0  0.00000000000E+00  0.00000000000E+00  0.39681878774E+04  0.39681878774E+04  0.00000000000E+00 0.  1.
         -2   -1    0    0    0  501 -0.00000000000E+00 -0.00000000000E+00 -0.51444109287E+03  0.51444109287E+03  0.00000000000E+00 0. -1.
         23    2    1    2    0    0 -0.28206554851E+03  0.56847332978E+03  0.37341825463E+04  0.37888227173E+04  0.91298376491E+02 0.  0.
         11    1    3    3    0    0 -0.18956103713E+03  0.39475689085E+03  0.23144716463E+04  0.23555350542E+04  0.00000000000E+00 0. -1.
        -11    1    3    3    0    0 -0.92504511380E+02  0.17371643893E+03  0.14197108999E+04  0.14332876631E+04  0.00000000000E+00 0.  1.
         22    1    1    2    0    0  0.28206554851E+03 -0.56847332978E+03 -0.28043576170E+03  0.69380625305E+03  0.00000000000E+00 0. -1.
<mgrwt>
<rscale>  0 0.28575506E+04</rscale>
<asrwt>0</asrwt>
<pdfrwt beam="1">  1        2 0.61049042E+00 0.28575506E+04</pdfrwt>
<pdfrwt beam="2">  1       -2 0.79144786E-01 0.28575506E+04</pdfrwt>
<totfact> 0.44523203E-01</totfact>
</mgrwt>
</event>
<event>
 6    1  0.5040916E-004  0.1443190E+04  0.7818608E-02  0.8923136E-01
          2   -1    0    0  501    0  0.00000000000E+00  0.00000000000E+00  0.19084594093E+04  0.19084594093E+04  0.00000000000E+00 0.  1.
         -2   -1    0    0    0  501 -0.00000000000E+00 -0.00000000000E+00 -0.27283745110E+03  0.27283745110E+03  0.00000000000E+00 0. -1.
         23    2    1    2    0    0  0.18035059527E+01  0.70018165617E+03  0.10666134412E+04  0.12790616933E+04  0.89872009917E+02 0.  0.
         13    1    3    3    0    0 -0.38803433902E+02  0.32092956726E+03  0.45166866462E+03  0.55543323291E+03  0.00000000000E+00 0.  1.
        -13    1    3    3    0    0  0.40606939855E+02  0.37925208891E+03  0.61494477656E+03  0.72362846042E+03  0.00000000000E+00 0. -1.
         22    1    1    2    0    0 -0.18035059527E+01 -0.70018165617E+03  0.56900851703E+03  0.90223516708E+03  0.00000000000E+00 0. -1.
<mgrwt>
<rscale>  0 0.14431898E+04</rscale>
<asrwt>0</asrwt>
<pdfrwt beam="1">  1        2 0.29360913E+00 0.14431898E+04</pdfrwt>
<pdfrwt beam="2">  1       -2 0.41974994E-01 0.14431898E+04</pdfrwt>
<totfact> 0.39212265E+01</totfact>
</mgrwt>
</event>
<event>
 6    1  0.5040916E-004  0.2780311E+04  0.7818608E-02  0.8309407E-01
          2   -1    0    0  501    0  0.00000000000E+00  0.00000000000E+00  0.36996037443E+04  0.36996037443E+04  0.00000000000E+00 0.  1.
         -2   -1    0    0    0  501 -0.00000000000E+00 -0.00000000000E+00 -0.52236187843E+03  0.52236187843E+03  0.00000000000E+00 0. -1.
         23    2    1    2    0    0 -0.10244438628E+04 -0.54846472817E+03  0.27450559675E+04  0.29821739318E+04  0.87922173574E+02 0.  0.
         13    1    3    3    0    0 -0.33048482094E+03 -0.13653298203E+03  0.89310478274E+03  0.96202787122E+03  0.00000000000E+00 0.  1.
        -13    1    3    3    0    0 -0.69395904188E+03 -0.41193174614E+03  0.18519511848E+04  0.20201460606E+04  0.00000000000E+00 0. -1.
         22    1    1    2    0    0  0.10244438628E+04  0.54846472817E+03  0.43218589831E+03  0.12397916909E+04  0.00000000000E+00 0. -1.
<mgrwt>
<rscale>  0 0.27803107E+04</rscale>
<asrwt>0</asrwt>
<pdfrwt beam="1">  1        2 0.56916979E+00 0.27803107E+04</pdfrwt>
<pdfrwt beam="2">  1       -2 0.80363368E-01 0.27803107E+04</pdfrwt>
<totfact> 0.69668499E-01</totfact>
</mgrwt>
</event>
<event>
 6    1  0.5040916E-004  0.2839267E+04  0.7818608E-02  0.8291180E-01
          2   -1    0    0  501    0  0.00000000000E+00  0.00000000000E+00  0.12981562159E+04  0.12981562159E+04  0.00000000000E+00 0.  1.
         -2   -1    0    0    0  501 -0.00000000000E+00 -0.00000000000E+00 -0.15524784751E+04  0.15524784751E+04  0.00000000000E+00 0. -1.
         23    2    1    2    0    0  0.59331863255E+03 -0.70653007264E+03 -0.12081093223E+04  0.15236375151E+04  0.10359246826E+03 0.  0.
         11    1    3    3    0    0  0.32761501138E+03 -0.43302770668E+03 -0.63838731123E+03  0.83808290137E+03  0.00000000000E+00 0.  1.
        -11    1    3    3    0    0  0.26570362116E+03 -0.27350236596E+03 -0.56972201107E+03  0.68555461371E+03  0.00000000000E+00 0. -1.
         22    1    1    2    0    0 -0.59331863255E+03  0.70653007264E+03  0.95378706303E+03  0.13269971759E+04  0.00000000000E+00 0.  1.
<mgrwt>
<rscale>  0 0.28392672E+04</rscale>
<asrwt>0</asrwt>
<pdfrwt beam="1">  1        2 0.19971634E+00 0.28392672E+04</pdfrwt>
<pdfrwt beam="2">  1       -2 0.23884284E+00 0.28392672E+04</pdfrwt>
<totfact> 0.10825335E+00</totfact>
</mgrwt>
</event>
<event>
 6    1  0.5040916E-004  0.6296341E+03  0.7818608E-02  0.9845763E-01
          2   -1    0    0  501    0  0.00000000000E+00  0.00000000000E+00  0.49827186495E+03  0.49827186495E+03  0.00000000000E+00 0.  1.
         -2   -1    0    0    0  501 -0.00000000000E+00 -0.00000000000E+00 -0.19890699543E+03  0.19890699543E+03  0.00000000000E+00 0. -1.
         23    2    1    2    0    0 -0.29236668118E+03  0.78216231241E+02  0.21426600849E+03  0.38279395100E+03  0.95001218084E+02 0.  0.
         11    1    3    3    0    0 -0.16637273115E+03  0.13930314778E+02  0.70866429136E+02  0.18137251754E+03  0.00000000000E+00 0. -1.
        -11    1    3    3    0    0 -0.12599395003E+03  0.64285916463E+02  0.14339957936E+03  0.20142143347E+03  0.00000000000E+00 0.  1.
         22    1    1    2    0    0  0.29236668118E+03 -0.78216231241E+02  0.85098861022E+02  0.31438490937E+03  0.00000000000E+00 0. -1.
<mgrwt>
<rscale>  0 0.62963405E+03</rscale>
<asrwt>0</asrwt>
<pdfrwt beam="1">  1        2 0.76657210E-01 0.62963405E+03</pdfrwt>
<pdfrwt beam="2">  1       -2 0.30601076E-01 0.62963405E+03</pdfrwt>
<totfact> 0.61455784E+02</totfact>
</mgrwt>
</event>
<event>
 6    1  0.5040916E-004  0.1605700E+04  0.7818608E-02  0.8817054E-01
          2   -1    0    0  501    0  0.00000000000E+00  0.00000000000E+00  0.10501358692E+04  0.10501358692E+04  0.00000000000E+00 0. -1.
         -2   -1    0    0    0  501 -0.00000000000E+00 -0.00000000000E+00 -0.61379524006E+03  0.61379524006E+03  0.00000000000E+00 0.  1.
         23    2    1    2    0    0  0.62662656045E+03  0.46092991916E+03  0.23831457168E+02  0.78343065292E+03  0.89879991967E+02 0.  0.
         11    1    3    3    0    0  0.18933058511E+03  0.19091390838E+03 -0.12175559330E+01  0.26887854752E+03  0.00000000000E+00 0.  1.
        -11    1    3    3    0    0  0.43729597534E+03  0.27001601077E+03  0.25049013101E+02  0.51455210540E+03  0.00000000000E+00 0. -1.
         22    1    1    2    0    0 -0.62662656045E+03 -0.46092991916E+03  0.41250917195E+03  0.88050045632E+03  0.00000000000E+00 0. -1.
<mgrwt>
<rscale>  0 0.16057003E+04</rscale>
<asrwt>0</asrwt>
<pdfrwt beam="1">  1        2 0.16155936E+00 0.16057003E+04</pdfrwt>
<pdfrwt beam="2">  1       -2 0.94430037E-01 0.16057003E+04</pdfrwt>
<totfact> 0.21208087E+01</totfact>
</mgrwt>
</event>
<event>
 6    1  0.5040916E-004  0.2052498E+04  0.7818608E-02  0.8582462E-01
         -2   -1    0    0    0  501 -0.00000000000E+00  0.00000000000E+00  0.98112096183E+03  0.98112096183E+03  0.00000000000E+00 0. -1.
          2   -1    0    0  501    0  0.00000000000E+00 -0.00000000000E+00 -0.10734530570E+04  0.10734530570E+04  0.00000000000E+00 0.  1.
         23    2    1    2    0    0 -0.36924285872E+03 -0.34087174349E+03 -0.93965795139E+03  0.10694370026E+04  0.90579262436E+02 0.  0.
         13    1    3    3    0    0 -0.19859181974E+03 -0.20652391499E+03 -0.44582135174E+03  0.52995048448E+03  0.00000000000E+00 0. -1.
        -13    1    3    3    0    0 -0.17065103898E+03 -0.13434782850E+03 -0.49383659965E+03  0.53948651816E+03  0.00000000000E+00 0.  1.
         22    1    1    2    0    0  0.36924285872E+03  0.34087174349E+03  0.84732585617E+03  0.98513701623E+03  0.00000000000E+00 0. -1.
<mgrwt>
<rscale>  0 0.20524983E+04</rscale>
<asrwt>0</asrwt>
<pdfrwt beam="1">  1        2 0.16514662E+00 0.20524983E+04</pdfrwt>
<pdfrwt beam="2">  1       -2 0.15094169E+00 0.20524983E+04</pdfrwt>
<totfact> 0.61687721E+00</totfact>
</mgrwt>
</event>
<event>
 6    1  0.5040916E-004  0.1857268E+04  0.7818608E-02  0.8676424E-01
          2   -1    0    0  501    0  0.00000000000E+00  0.00000000000E+00  0.81673054389E+03  0.81673054389E+03  0.00000000000E+00 0.  1.
         -2   -1    0    0    0  501 -0.00000000000E+00 -0.00000000000E+00 -0.10558699718E+04  0.10558699718E+04  0.00000000000E+00 0. -1.
         23    2    1    2    0    0 -0.92497649707E+03  0.10031073401E+02 -0.16771927375E+03  0.94481660716E+03  0.94162220702E+02 0.  0.
         11    1    3    3    0    0 -0.62927194769E+03  0.41218110841E+02 -0.86081223047E+02  0.63646845465E+03  0.00000000000E+00 0. -1.
        -11    1    3    3    0    0 -0.29570454938E+03 -0.31187037441E+02 -0.81638050704E+02  0.30834815250E+03  0.00000000000E+00 0.  1.
         22    1    1    2    0    0  0.92497649707E+03 -0.10031073401E+02 -0.71420154186E+02  0.92778390856E+03  0.00000000000E+00 0. -1.
<mgrwt>
<rscale>  0 0.18572682E+04</rscale>
<asrwt>0</asrwt>
<pdfrwt beam="1">  1        2 0.12565085E+00 0.18572682E+04</pdfrwt>
<pdfrwt beam="2">  1       -2 0.16244154E+00 0.18572682E+04</pdfrwt>
<totfact> 0.76062801E+00</totfact>
</mgrwt>
</event>
<event>
 6    1  0.5040916E-004  0.1934544E+04  0.7818608E-02  0.8637850E-01
         -2   -1    0    0    0  501 -0.00000000000E+00  0.00000000000E+00  0.49127621749E+03  0.49127621749E+03  0.00000000000E+00 0. -1.
          2   -1    0    0  501    0  0.00000000000E+00 -0.00000000000E+00 -0.19044587495E+04  0.19044587495E+04  0.00000000000E+00 0.  1.
         23    2    1    2    0    0  0.50419681468E+03  0.23734332810E+03 -0.16832308790E+04  0.17764834890E+04  0.10991410862E+03 0.  0.
         13    1    3    3    0    0  0.43788394999E+03  0.18203653806E+03 -0.15134678260E+04  0.15860215999E+04  0.00000000000E+00 0.  1.
        -13    1    3    3    0    0  0.66312864697E+02  0.55306790040E+02 -0.16976305301E+03  0.19046188914E+03  0.00000000000E+00 0. -1.
         22    1    1    2    0    0 -0.50419681468E+03 -0.23734332810E+03  0.27004834698E+03  0.61925147802E+03  0.00000000000E+00 0. -1.
<mgrwt>
<rscale>  0 0.19345442E+04</rscale>
<asrwt>0</asrwt>
<pdfrwt beam="1">  1        2 0.29299365E+00 0.19345442E+04</pdfrwt>
<pdfrwt beam="2">  1       -2 0.75580958E-01 0.19345442E+04</pdfrwt>
<totfact> 0.11067949E+01</totfact>
</mgrwt>
</event>
<event>
 6    1  0.5040916E-004  0.3703738E+04  0.7818608E-02  0.8067134E-01
         -2   -1    0    0    0  501 -0.00000000000E+00  0.00000000000E+00  0.16888052981E+04  0.16888052981E+04  0.00000000000E+00 0. -1.
          2   -1    0    0  501    0  0.00000000000E+00 -0.00000000000E+00 -0.20306777413E+04  0.20306777413E+04  0.00000000000E+00 0.  1.
         23    2    1    2    0    0  0.37779521468E+03 -0.74205723978E+03 -0.18310137906E+04  0.20133411567E+04  0.86907656383E+02 0.  0.
         11    1    3    3    0    0  0.16622043580E+03 -0.36714874492E+03 -0.98015632291E+03  0.10597800958E+04  0.00000000000E+00 0. -1.
        -11    1    3    3    0    0  0.21157477888E+03 -0.37490849486E+03 -0.85085746769E+03  0.95356106092E+03  0.00000000000E+00 0.  1.
         22    1    1    2    0    0 -0.37779521468E+03  0.74205723978E+03  0.14891413474E+04  0.17061418827E+04  0.00000000000E+00 0. -1.
<mgrwt>
<rscale>  0 0.37037383E+04</rscale>
<asrwt>0</asrwt>
<pdfrwt beam="1">  1        2 0.31241196E+00 0.37037383E+04</pdfrwt>
<pdfrwt beam="2">  1       -2 0.25981620E+00 0.37037383E+04</pdfrwt>
<totfact> 0.29039941E-01</totfact>
</mgrwt>
</event>
<event>
 6    1  0.5040916E-004  0.2915763E+04  0.7818608E-02  0.8268203E-01
          2   -1    0    0  501    0  0.00000000000E+00  0.00000000000E+00  0.75020619875E+03  0.75020619875E+03  0.00000000000E+00 0.  1.
         -2   -1    0    0    0  501 -0.00000000000E+00 -0.00000000000E+00 -0.28331115109E+04  0.28331115109E+04  0.00000000000E+00 0. -1.
         23    2    1    2    0    0 -0.95872714199E+03  0.41743624577E+03  0.20306061378E+03  0.10695454514E+04  0.96348884690E+02 0.  0.
         11    1    3    3    0    0 -0.69050705939E+03  0.27974860506E+03  0.10431363648E+03  0.75229024708E+03  0.00000000000E+00 0.  1.
        -11    1    3    3    0    0 -0.26822008260E+03  0.13768764071E+03  0.98746977296E+02  0.31725520427E+03  0.00000000000E+00 0. -1.
         22    1    1    2    0    0  0.95872714199E+03 -0.41743624577E+03 -0.22859659259E+04  0.25137722583E+04  0.00000000000E+00 0. -1.
<mgrwt>
<rscale>  0 0.29157626E+04</rscale>
<asrwt>0</asrwt>
<pdfrwt beam="1">  1        2 0.11541634E+00 0.29157626E+04</pdfrwt>
<pdfrwt beam="2">  1       -2 0.43586330E+00 0.29157626E+04</pdfrwt>
<totfact> 0.13895986E-01</totfact>
</mgrwt>
</event>
<event>
 6    1  0.5040916E-004  0.9977846E+03  0.7818608E-02  0.9310978E-01
         -4   -1    0    0    0  501 -0.00000000000E+00  0.00000000000E+00  0.94847495450E+03  0.94847495450E+03  0.00000000000E+00 0. -1.
          4   -1    0    0  501    0  0.00000000000E+00 -0.00000000000E+00 -0.26241445016E+03  0.26241445016E+03  0.00000000000E+00 0.  1.
         23    2    1    2    0    0  0.18508856099E+03 -0.45789032102E+03  0.37505623033E+03  0.62724141147E+03  0.94038773195E+02 0.  0.
         11    1    3    3    0    0  0.15614695974E+03 -0.27602753174E+03  0.26012125578E+03  0.41016598960E+03  0.00000000000E+00 0. -1.
        -11    1    3    3    0    0  0.28941601253E+02 -0.18186278928E+03  0.11493497456E+03  0.21707542188E+03  0.00000000000E+00 0.  1.
         22    1    1    2    0    0 -0.18508856099E+03  0.45789032102E+03  0.31100427401E+03  0.58364799318E+03  0.00000000000E+00 0.  1.
<mgrwt>
<rscale>  0 0.99778461E+03</rscale>
<asrwt>0</asrwt>
<pdfrwt beam="1">  1        4 0.40371454E-01 0.99778461E+03</pdfrwt>
<pdfrwt beam="2">  1       -4 0.14591922E+00 0.99778461E+03</pdfrwt>
<totfact> 0.38094603E+00</totfact>
</mgrwt>
</event>
<event>
 6    1  0.5040916E-004  0.1389975E+04  0.7818608E-02  0.8961107E-01
          1   -1    0    0  501    0  0.00000000000E+00  0.00000000000E+00  0.17404743656E+04  0.17404743656E+04  0.00000000000E+00 0.  1.
         -1   -1    0    0    0  501 -0.00000000000E+00 -0.00000000000E+00 -0.27751501952E+03  0.27751501952E+03  0.00000000000E+00 0. -1.
         23    2    1    2    0    0  0.78166367357E+02  0.33196967583E+03  0.16087355424E+04  0.16470924371E+04  0.92572156216E+02 0.  0.
         13    1    3    3    0    0 -0.45103767255E+01  0.12866427936E+03  0.46519928010E+03  0.48268541566E+03  0.00000000000E+00 0. -1.
        -13    1    3    3    0    0  0.82676744082E+02  0.20330539647E+03  0.11435362623E+04  0.11644070214E+04  0.00000000000E+00 0.  1.
         22    1    1    2    0    0 -0.78166367357E+02 -0.33196967583E+03 -0.14577619634E+03  0.37089694806E+03  0.00000000000E+00 0. -1.
<mgrwt>
<rscale>  0 0.13899752E+04</rscale>
<asrwt>0</asrwt>
<pdfrwt beam="1">  1        1 0.26776528E+00 0.13899752E+04</pdfrwt>
<pdfrwt beam="2">  1       -1 0.42694619E-01 0.13899752E+04</pdfrwt>
<totfact> 0.23577627E+01</totfact>
</mgrwt>
</event>
<event>
 6    1  0.5040916E-004  0.3061501E+04  0.7818608E-02  0.8226384E-01
         -2   -1    0    0    0  501 -0.00000000000E+00  0.00000000000E+00  0.13812670455E+04  0.13812670455E+04  0.00000000000E+00 0. -1.
          2   -1    0    0  501    0  0.00000000000E+00 -0.00000000000E+00 -0.16964111248E+04  0.16964111248E+04  0.00000000000E+00 0.  1.
         23    2    1    2    0    0  0.72977020974E+03  0.25872930431E+03  0.11683413376E+04  0.14042880801E+04  0.86591679427E+02 0.  0.
         11    1    3    3    0    0  0.67752539681E+03  0.22861002320E+03  0.10354748771E+04  0.12583765045E+04  0.00000000000E+00 0.  1.
        -11    1    3    3    0    0  0.52244812930E+02  0.30119281108E+02  0.13286646052E+03  0.14591157563E+03  0.00000000000E+00 0. -1.
         22    1    1    2    0    0 -0.72977020974E+03 -0.25872930431E+03 -0.14834854169E+04  0.16733900902E+04  0.00000000000E+00 0.  1.
<mgrwt>
<rscale>  0 0.30615008E+04</rscale>
<asrwt>0</asrwt>
<pdfrwt beam="1">  1        2 0.26098633E+00 0.30615008E+04</pdfrwt>
<pdfrwt beam="2">  1       -2 0.21250262E+00 0.30615008E+04</pdfrwt>
<totfact> 0.92598200E-01</totfact>
</mgrwt>
</event>
<event>
 6    1  0.5040916E-004  0.2141815E+04  0.7818608E-02  0.8543044E-01
         -2   -1    0    0    0  501 -0.00000000000E+00  0.00000000000E+00  0.70391073313E+03  0.70391073313E+03  0.00000000000E+00 0.  1.
          2   -1    0    0  501    0  0.00000000000E+00 -0.00000000000E+00 -0.16292444994E+04  0.16292444994E+04  0.00000000000E+00 0. -1.
         23    2    1    2    0    0  0.75344011965E+02  0.83343572534E+03 -0.11879610943E+04  0.14560777320E+04  0.92838416738E+02 0.  0.
         11    1    3    3    0    0  0.44471078345E+02  0.34647124853E+03 -0.57260143931E+03  0.67074019647E+03  0.00000000000E+00 0. -1.
        -11    1    3    3    0    0  0.30872933619E+02  0.48696447681E+03 -0.61535965501E+03  0.78533753554E+03  0.00000000000E+00 0.  1.
         22    1    1    2    0    0 -0.75344011965E+02 -0.83343572534E+03  0.26262732807E+03  0.87707750049E+03  0.00000000000E+00 0.  1.
<mgrwt>
<rscale>  0 0.21418148E+04</rscale>
<asrwt>0</asrwt>
<pdfrwt beam="1">  1        2 0.25065300E+00 0.21418148E+04</pdfrwt>
<pdfrwt beam="2">  1       -2 0.10829396E+00 0.21418148E+04</pdfrwt>
<totfact> 0.67309808E+00</totfact>
</mgrwt>
</event>
<event>
 6    1  0.5040916E-004  0.3953219E+04  0.7818608E-02  0.8014051E-01
          2   -1    0    0  501    0  0.00000000000E+00  0.00000000000E+00  0.11473515163E+04  0.11473515163E+04  0.00000000000E+00 0.  1.
         -2   -1    0    0    0  501 -0.00000000000E+00 -0.00000000000E+00 -0.34052207572E+04  0.34052207572E+04  0.00000000000E+00 0. -1.
         23    2    1    2    0    0 -0.13265084217E+04  0.11791445891E+04 -0.13034445270E+03  0.17819463010E+04  0.91303823255E+02 0.  0.
         13    1    3    3    0    0 -0.22971635181E+03  0.24442489908E+03 -0.43980072322E+02  0.33830072472E+03  0.00000000000E+00 0.  1.
        -13    1    3    3    0    0 -0.10967920699E+04  0.93471969005E+03 -0.86364380378E+02  0.14436455762E+04  0.00000000000E+00 0. -1.
         22    1    1    2    0    0  0.13265084217E+04 -0.11791445891E+04 -0.21275247883E+04  0.27706259725E+04  0.00000000000E+00 0. -1.
<mgrwt>
<rscale>  0 0.39532190E+04</rscale>
<asrwt>0</asrwt>
<pdfrwt beam="1">  1        2 0.17651562E+00 0.39532190E+04</pdfrwt>
<pdfrwt beam="2">  1       -2 0.52388012E+00 0.39532190E+04</pdfrwt>
<totfact> 0.19159776E-02</totfact>
</mgrwt>
</event>
<event>
 6    1  0.5040916E-004  0.6444262E+03  0.7818608E-02  0.9817295E-01
         -2   -1    0    0    0  501 -0.00000000000E+00  0.00000000000E+00  0.76526951712E+02  0.76526951712E+02  0.00000000000E+00 0. -1.
          2   -1    0    0  501    0  0.00000000000E+00 -0.00000000000E+00 -0.13566628327E+04  0.13566628327E+04  0.00000000000E+00 0.  1.
         23    2    1    2    0    0 -0.29143940830E+03 -0.56970520489E+02 -0.41327886917E+03  0.51687998535E+03  0.90459530406E+02 0.  0.
         13    1    3    3    0    0 -0.24697576874E+03 -0.57976349038E+02 -0.39353837366E+03  0.46822082283E+03  0.00000000000E+00 0. -1.
        -13    1    3    3    0    0 -0.44463639562E+02  0.10058285489E+01 -0.19740495509E+02  0.48659162519E+02  0.00000000000E+00 0.  1.
         22    1    1    2    0    0  0.29143940830E+03  0.56970520489E+02 -0.86685701186E+03  0.91630979910E+03  0.00000000000E+00 0.  1.
<mgrwt>
<rscale>  0 0.64442617E+03</rscale>
<asrwt>0</asrwt>
<pdfrwt beam="1">  1        2 0.20871735E+00 0.64442617E+03</pdfrwt>
<pdfrwt beam="2">  1       -2 0.11773378E-01 0.64442617E+03</pdfrwt>
<totfact> 0.81626386E+02</totfact>
</mgrwt>
</event>
<event>
 6    1  0.5040916E-004  0.8668895E+03  0.7818608E-02  0.9467945E-01
         -2   -1    0    0    0  501 -0.00000000000E+00  0.00000000000E+00  0.43987926152E+03  0.43987926152E+03  0.00000000000E+00 0. -1.
          2   -1    0    0  501    0  0.00000000000E+00 -0.00000000000E+00 -0.42710438124E+03  0.42710438124E+03  0.00000000000E+00 0.  1.
         23    2    1    2    0    0 -0.15902199318E+03  0.92778241850E+02 -0.38043991485E+03  0.43280203148E+03  0.93205542567E+02 0.  0.
         11    1    3    3    0    0 -0.14853815753E+03  0.56747017564E+02 -0.24354704910E+03  0.29085902663E+03  0.00000000000E+00 0.  1.
        -11    1    3    3    0    0 -0.10483835651E+02  0.36031224285E+02 -0.13689286575E+03  0.14194300485E+03  0.00000000000E+00 0. -1.
         22    1    1    2    0    0  0.15902199318E+03 -0.92778241850E+02  0.39321479512E+03  0.43418161128E+03  0.00000000000E+00 0. -1.
<mgrwt>
<rscale>  0 0.86688952E+03</rscale>
<asrwt>0</asrwt>
<pdfrwt beam="1">  1        2 0.65708366E-01 0.86688952E+03</pdfrwt>
<pdfrwt beam="2">  1       -2 0.67673732E-01 0.86688952E+03</pdfrwt>
<totfact> 0.14851479E+02</totfact>
</mgrwt>
</event>
<event>
 6    1  0.5040916E-004  0.1946720E+04  0.7818608E-02  0.8631944E-01
         -2   -1    0    0    0  501 -0.00000000000E+00  0.00000000000E+00  0.26033516769E+03  0.26033516769E+03  0.00000000000E+00 0. -1.
          2   -1    0    0  501    0  0.00000000000E+00 -0.00000000000E+00 -0.36392703111E+04  0.36392703111E+04  0.00000000000E+00 0.  1.
         23    2    1    2    0    0 -0.49209641138E+03 -0.63942139969E+03 -0.61028263700E+03  0.10157789747E+04  0.91342344692E+02 0.  0.
         13    1    3    3    0    0 -0.30056950528E+03 -0.33154107493E+03 -0.30232105237E+03  0.54005511809E+03  0.00000000000E+00 0. -1.
        -13    1    3    3    0    0 -0.19152690610E+03 -0.30788032476E+03 -0.30796158462E+03  0.47572385660E+03  0.00000000000E+00 0.  1.
         22    1    1    2    0    0  0.49209641138E+03  0.63942139969E+03 -0.27686525064E+04  0.28838265041E+04  0.00000000000E+00 0.  1.
<mgrwt>
<rscale>  0 0.19467204E+04</rscale>
<asrwt>0</asrwt>
<pdfrwt beam="1">  1        2 0.55988775E+00 0.19467204E+04</pdfrwt>
<pdfrwt beam="2">  1       -2 0.40051564E-01 0.19467204E+04</pdfrwt>
<totfact> 0.35867328E+00</totfact>
</mgrwt>
</event>
<event>
 6    1  0.5040916E-004  0.8097221E+03  0.7818608E-02  0.9546050E-01
         -2   -1    0    0    0  501 -0.00000000000E+00  0.00000000000E+00  0.41162278944E+03  0.41162278944E+03  0.00000000000E+00 0. -1.
          2   -1    0    0  501    0  0.00000000000E+00 -0.00000000000E+00 -0.39821039969E+03  0.39821039969E+03  0.00000000000E+00 0.  1.
         23    2    1    2    0    0  0.15192811705E+03 -0.36831075888E+03  0.32662181063E+02  0.41095285329E+03  0.95291456585E+02 0.  0.
         11    1    3    3    0    0  0.36405303728E+02 -0.21278380044E+03  0.20075009504E+02  0.21680705219E+03  0.00000000000E+00 0. -1.
        -11    1    3    3    0    0  0.11552281333E+03 -0.15552695844E+03  0.12587171559E+02  0.19414580111E+03  0.00000000000E+00 0.  1.
         22    1    1    2    0    0 -0.15192811705E+03  0.36831075888E+03 -0.19249791313E+02  0.39888033585E+03  0.00000000000E+00 0.  1.
<mgrwt>
<rscale>  0 0.80972211E+03</rscale>
<asrwt>0</asrwt>
<pdfrwt beam="1">  1        2 0.61263139E-01 0.80972211E+03</pdfrwt>
<pdfrwt beam="2">  1       -2 0.63326583E-01 0.80972211E+03</pdfrwt>
<totfact> 0.18589864E+02</totfact>
</mgrwt>
</event>
<event>
 6    1  0.5040916E-004  0.2664617E+04  0.7818608E-02  0.8346577E-01
          1   -1    0    0  501    0  0.00000000000E+00  0.00000000000E+00  0.41275831028E+04  0.41275831028E+04  0.00000000000E+00 0.  1.
         -1   -1    0    0    0  501 -0.00000000000E+00 -0.00000000000E+00 -0.43004500735E+03  0.43004500735E+03  0.00000000000E+00 0. -1.
         23    2    1    2    0    0 -0.10362455497E+04  0.47951258026E+03  0.30198928628E+04  0.32298705211E+04  0.92593341501E+02 0.  0.
         13    1    3    3    0    0 -0.27207261445E+03  0.12362478934E+03  0.90978514035E+03  0.95760931370E+03  0.00000000000E+00 0. -1.
        -13    1    3    3    0    0 -0.76417293523E+03  0.35588779092E+03  0.21101077224E+04  0.22722612074E+04  0.00000000000E+00 0.  1.
         22    1    1    2    0    0  0.10362455497E+04 -0.47951258026E+03  0.67764523272E+03  0.13277575890E+04  0.00000000000E+00 0. -1.
<mgrwt>
<rscale>  0 0.26646174E+04</rscale>
<asrwt>0</asrwt>
<pdfrwt beam="1">  1        1 0.63501276E+00 0.26646174E+04</pdfrwt>
<pdfrwt beam="2">  1       -1 0.66160773E-01 0.26646174E+04</pdfrwt>
<totfact> 0.14977982E-01</totfact>
</mgrwt>
</event>
<event>
 6    1  0.5040916E-004  0.4975851E+03  0.7818608E-02  0.1014411E+00
         -2   -1    0    0    0  501 -0.00000000000E+00  0.00000000000E+00  0.22554084647E+03  0.22554084647E+03  0.00000000000E+00 0. -1.
          2   -1    0    0  501    0  0.00000000000E+00 -0.00000000000E+00 -0.27444131495E+03  0.27444131495E+03  0.00000000000E+00 0.  1.
         23    2    1    2    0    0 -0.18744239141E+03  0.13680295858E+03  0.38094924367E+02  0.25215581507E+03  0.91003473761E+02 0.  0.
         11    1    3    3    0    0 -0.10547282767E+03  0.58549267581E+02 -0.23904157415E+02  0.12297944077E+03  0.00000000000E+00 0.  1.
        -11    1    3    3    0    0 -0.81969563743E+02  0.78253690997E+02  0.61999081782E+02  0.12917637430E+03  0.00000000000E+00 0. -1.
         22    1    1    2    0    0  0.18744239141E+03 -0.13680295858E+03 -0.86995392845E+02  0.24782634636E+03  0.00000000000E+00 0.  1.
<mgrwt>
<rscale>  0 0.49758507E+03</rscale>
<asrwt>0</asrwt>
<pdfrwt beam="1">  1        2 0.42221741E-01 0.49758507E+03</pdfrwt>
<pdfrwt beam="2">  1       -2 0.34698592E-01 0.49758507E+03</pdfrwt>
<totfact> 0.94632330E+02</totfact>
</mgrwt>
</event>
<event>
 6    1  0.5040916E-004  0.2188791E+04  0.7818608E-02  0.8523108E-01
          2   -1    0    0  501    0  0.00000000000E+00  0.00000000000E+00  0.35123184467E+04  0.35123184467E+04  0.00000000000E+00 0. -1.
         -2   -1    0    0    0  501 -0.00000000000E+00 -0.00000000000E+00 -0.34100030442E+03  0.34100030442E+03  0.00000000000E+00 0.  1.
         23    2    1    2    0    0 -0.51138706615E+03 -0.12854967425E+03  0.32728599741E+04  0.33163341202E+04  0.91748772071E+02 0.  0.
         13    1    3    3    0    0 -0.62985869548E+02 -0.35854721765E+02  0.62347299146E+03  0.62767137255E+03  0.00000000000E+00 0. -1.
        -13    1    3    3    0    0 -0.44840119661E+03 -0.92694952489E+02  0.26493869826E+04  0.26886627477E+04  0.00000000000E+00 0.  1.
         22    1    1    2    0    0  0.51138706615E+03  0.12854967425E+03 -0.10154183178E+03  0.53698463086E+03  0.00000000000E+00 0.  1.
<mgrwt>
<rscale>  0 0.21887911E+04</rscale>
<asrwt>0</asrwt>
<pdfrwt beam="1">  1        2 0.54035666E+00 0.21887911E+04</pdfrwt>
<pdfrwt beam="2">  1       -2 0.52461588E-01 0.21887911E+04</pdfrwt>
<totfact> 0.25092527E+00</totfact>
</mgrwt>
</event>
<event>
 6    1  0.5040916E-004  0.2143500E+04  0.7818608E-02  0.8542320E-01
         -1   -1    0    0    0  501 -0.00000000000E+00  0.00000000000E+00  0.81173161442E+03  0.81173161442E+03  0.00000000000E+00 0. -1.
          1   -1    0    0  501    0  0.00000000000E+00 -0.00000000000E+00 -0.14150586095E+04  0.14150586095E+04  0.00000000000E+00 0.  1.
         23    2    1    2    0    0 -0.19028070112E+03  0.10222978969E+04 -0.56401366036E+03  0.11861917069E+04  0.87404927242E+02 0.  0.
         13    1    3    3    0    0 -0.50190348189E+02  0.41559430100E+03 -0.18887992108E+03  0.45925300071E+03  0.00000000000E+00 0. -1.
        -13    1    3    3    0    0 -0.14009035293E+03  0.60670359592E+03 -0.37513373928E+03  0.72693870624E+03  0.00000000000E+00 0.  1.
         22    1    1    2    0    0  0.19028070112E+03 -0.10222978969E+04 -0.39313334719E+02  0.10405985170E+04  0.00000000000E+00 0. -1.
<mgrwt>
<rscale>  0 0.21434998E+04</rscale>
<asrwt>0</asrwt>
<pdfrwt beam="1">  1        1 0.21770132E+00 0.21434998E+04</pdfrwt>
<pdfrwt beam="2">  1       -1 0.12488179E+00 0.21434998E+04</pdfrwt>
<totfact> 0.38537176E+00</totfact>
</mgrwt>
</event>
<event>
 6    1  0.5040916E-004  0.4250762E+04  0.7818608E-02  0.7955786E-01
          2   -1    0    0  501    0  0.00000000000E+00  0.00000000000E+00  0.18667941226E+04  0.18667941226E+04  0.00000000000E+00 0.  1.
         -2   -1    0    0    0  501 -0.00000000000E+00 -0.00000000000E+00 -0.24197876358E+04  0.24197876358E+04  0.00000000000E+00 0. -1.
         23    2    1    2    0    0 -0.18209124439E+04 -0.10937098933E+04 -0.26909580120E+03  0.21435648732E+04  0.10263701235E+03 0.  0.
         11    1    3    3    0    0 -0.47603620514E+03 -0.33807458787E+03 -0.83901069556E+02  0.58986802341E+03  0.00000000000E+00 0.  1.
        -11    1    3    3    0    0 -0.13448762388E+04 -0.75563530539E+03 -0.18519473165E+03  0.15536968498E+04  0.00000000000E+00 0. -1.
         22    1    1    2    0    0  0.18209124439E+04  0.10937098933E+04 -0.28389771200E+03  0.21430168851E+04  0.00000000000E+00 0.  1.
<mgrwt>
<rscale>  0 0.42507624E+04</rscale>
<asrwt>0</asrwt>
<pdfrwt beam="1">  1        2 0.28719910E+00 0.42507624E+04</pdfrwt>
<pdfrwt beam="2">  1       -2 0.37227502E+00 0.42507624E+04</pdfrwt>
<totfact> 0.68748291E-02</totfact>
</mgrwt>
</event>
<event>
 6    1  0.5040916E-004  0.1583430E+04  0.7818608E-02  0.8830793E-01
         -2   -1    0    0    0  501 -0.00000000000E+00  0.00000000000E+00  0.13185201213E+04  0.13185201213E+04  0.00000000000E+00 0. -1.
          2   -1    0    0  501    0  0.00000000000E+00 -0.00000000000E+00 -0.47539103567E+03  0.47539103567E+03  0.00000000000E+00 0.  1.
         23    2    1    2    0    0 -0.78328370405E+03  0.65088974300E+02  0.50332626485E+03  0.93761921342E+03  0.89568548556E+02 0.  0.
         11    1    3    3    0    0 -0.22981552260E+03  0.21579477397E+02  0.19746377186E+03  0.30376436504E+03  0.00000000000E+00 0. -1.
        -11    1    3    3    0    0 -0.55346818145E+03  0.43509496903E+02  0.30586249299E+03  0.63385484838E+03  0.00000000000E+00 0.  1.
         22    1    1    2    0    0  0.78328370405E+03 -0.65088974300E+02  0.33980282080E+03  0.85629194357E+03  0.00000000000E+00 0. -1.
<mgrwt>
<rscale>  0 0.15834300E+04</rscale>
<asrwt>0</asrwt>
<pdfrwt beam="1">  1        2 0.73137083E-01 0.15834300E+04</pdfrwt>
<pdfrwt beam="2">  1       -2 0.20284925E+00 0.15834300E+04</pdfrwt>
<totfact> 0.79793184E+00</totfact>
</mgrwt>
</event>
<event>
 6    1  0.5040916E-004  0.3715848E+04  0.7818608E-02  0.8064459E-01
          2   -1    0    0  501    0  0.00000000000E+00  0.00000000000E+00  0.34837985351E+04  0.34837985351E+04  0.00000000000E+00 0.  1.
         -2   -1    0    0    0  501 -0.00000000000E+00 -0.00000000000E+00 -0.99083865389E+03  0.99083865389E+03  0.00000000000E+00 0. -1.
         23    2    1    2    0    0  0.48492488997E+03  0.13541691431E+04  0.26611692266E+04  0.30264588157E+04  0.93301089376E+02 0.  0.
         13    1    3    3    0    0  0.47921227423E+03  0.12773090304E+04  0.25260208925E+04  0.28708786656E+04  0.00000000000E+00 0. -1.
        -13    1    3    3    0    0  0.57126157443E+01  0.76860112696E+02  0.13514833411E+03  0.15558015013E+03  0.00000000000E+00 0.  1.
         22    1    1    2    0    0 -0.48492488997E+03 -0.13541691431E+04 -0.16820934540E+03  0.14481783733E+04  0.00000000000E+00 0. -1.
<mgrwt>
<rscale>  0 0.37158484E+04</rscale>
<asrwt>0</asrwt>
<pdfrwt beam="1">  1        2 0.53596900E+00 0.37158484E+04</pdfrwt>
<pdfrwt beam="2">  1       -2 0.15243672E+00 0.37158484E+04</pdfrwt>
<totfact> 0.19305536E-01</totfact>
</mgrwt>
</event>
<event>
 6    1  0.5040916E-004  0.1611365E+04  0.7818608E-02  0.8813596E-01
          2   -1    0    0  501    0  0.00000000000E+00  0.00000000000E+00  0.48724243770E+03  0.48724243770E+03  0.00000000000E+00 0.  1.
         -2   -1    0    0    0  501 -0.00000000000E+00 -0.00000000000E+00 -0.13322415835E+04  0.13322415835E+04  0.00000000000E+00 0. -1.
         23    2    1    2    0    0 -0.10415562100E+03 -0.30580862108E+02 -0.13223578269E+04  0.13299384227E+04  0.91227208009E+02 0.  0.
         13    1    3    3    0    0 -0.67024864216E+02 -0.19952583210E+02 -0.35569217782E+03  0.36250153567E+03  0.00000000000E+00 0.  1.
        -13    1    3    3    0    0 -0.37130756784E+02 -0.10628278898E+02 -0.96666564905E+03  0.96743688707E+03  0.00000000000E+00 0. -1.
         22    1    1    2    0    0  0.10415562100E+03  0.30580862108E+02  0.47735868110E+03  0.48954559842E+03  0.00000000000E+00 0.  1.
<mgrwt>
<rscale>  0 0.16113654E+04</rscale>
<asrwt>0</asrwt>
<pdfrwt beam="1">  1        2 0.74960376E-01 0.16113654E+04</pdfrwt>
<pdfrwt beam="2">  1       -2 0.20496024E+00 0.16113654E+04</pdfrwt>
<totfact> 0.74976190E+00</totfact>
</mgrwt>
</event>
<event>
 6    1  0.5040916E-004  0.1839356E+04  0.7818608E-02  0.8685646E-01
          2   -1    0    0  501    0  0.00000000000E+00  0.00000000000E+00  0.80078934047E+03  0.80078934047E+03  0.00000000000E+00 0.  1.
         -2   -1    0    0    0  501 -0.00000000000E+00 -0.00000000000E+00 -0.10562171731E+04  0.10562171731E+04  0.00000000000E+00 0. -1.
         23    2    1    2    0    0 -0.38408317713E+03 -0.43140970911E+03  0.59150808460E+03  0.83185546520E+03  0.92018893550E+02 0.  0.
         11    1    3    3    0    0 -0.21082884401E+03 -0.24503256833E+03  0.26559227489E+03  0.41836469436E+03  0.00000000000E+00 0.  1.
        -11    1    3    3    0    0 -0.17325433312E+03 -0.18637714079E+03  0.32591580971E+03  0.41349077084E+03  0.00000000000E+00 0. -1.
         22    1    1    2    0    0  0.38408317713E+03  0.43140970911E+03 -0.84693591720E+03  0.10251510483E+04  0.00000000000E+00 0. -1.
<mgrwt>
<rscale>  0 0.18393558E+04</rscale>
<asrwt>0</asrwt>
<pdfrwt beam="1">  1        2 0.12319836E+00 0.18393558E+04</pdfrwt>
<pdfrwt beam="2">  1       -2 0.16249495E+00 0.18393558E+04</pdfrwt>
<totfact> 0.78136141E+00</totfact>
</mgrwt>
</event>
<event>
 6    1  0.5040916E-004  0.1578957E+04  0.7818608E-02  0.8833581E-01
          3   -1    0    0  501    0  0.00000000000E+00  0.00000000000E+00  0.13569905091E+04  0.13569905091E+04  0.00000000000E+00 0.  1.
         -3   -1    0    0    0  501 -0.00000000000E+00 -0.00000000000E+00 -0.45930793653E+03  0.45930793653E+03  0.00000000000E+00 0. -1.
         23    2    1    2    0    0 -0.27315955107E+03  0.57441988588E+03 -0.82407368711E+02  0.64790183547E+03  0.91714057561E+02 0.  0.
         13    1    3    3    0    0 -0.28793492023E+02  0.13813785291E+03 -0.36444166095E+02  0.14573712235E+03  0.00000000000E+00 0. -1.
        -13    1    3    3    0    0 -0.24436605905E+03  0.43628203298E+03 -0.45963202617E+02  0.50216471312E+03  0.00000000000E+00 0.  1.
         22    1    1    2    0    0  0.27315955107E+03 -0.57441988588E+03  0.98008994128E+03  0.11683966102E+04  0.00000000000E+00 0.  1.
<mgrwt>
<rscale>  0 0.15789573E+04</rscale>
<asrwt>0</asrwt>
<pdfrwt beam="1">  1        3 0.20876777E+00 0.15789573E+04</pdfrwt>
<pdfrwt beam="2">  1       -3 0.70662760E-01 0.15789573E+04</pdfrwt>
<totfact> 0.62466954E-01</totfact>
</mgrwt>
</event>
<event>
 6    1  0.5040916E-004  0.1742332E+04  0.7818608E-02  0.8737582E-01
          2   -1    0    0  501    0  0.00000000000E+00  0.00000000000E+00  0.21374263225E+04  0.21374263225E+04  0.00000000000E+00 0.  1.
         -2   -1    0    0    0  501 -0.00000000000E+00 -0.00000000000E+00 -0.35506727124E+03  0.35506727124E+03  0.00000000000E+00 0. -1.
         23    2    1    2    0    0  0.17962913721E+03  0.83231448885E+03  0.64706397908E+03  0.10733709999E+04  0.91757698421E+02 0.  0.
         11    1    3    3    0    0  0.12703365988E+03  0.37521138139E+03  0.30956404926E+03  0.50274350524E+03  0.00000000000E+00 0. -1.
        -11    1    3    3    0    0  0.52595477322E+02  0.45710310747E+03  0.33749992981E+03  0.57062749471E+03  0.00000000000E+00 0.  1.
         22    1    1    2    0    0 -0.17962913721E+03 -0.83231448885E+03  0.11352950722E+04  0.14191225938E+04  0.00000000000E+00 0.  1.
<mgrwt>
<rscale>  0 0.17423319E+04</rscale>
<asrwt>0</asrwt>
<pdfrwt beam="1">  1        2 0.32883481E+00 0.17423319E+04</pdfrwt>
<pdfrwt beam="2">  1       -2 0.54625735E-01 0.17423319E+04</pdfrwt>
<totfact> 0.16750016E+01</totfact>
</mgrwt>
</event>
<event>
 6    1  0.5040916E-004  0.3127513E+04  0.7818608E-02  0.8208228E-01
         -2   -1    0    0    0  501 -0.00000000000E+00  0.00000000000E+00  0.50525828306E+03  0.50525828306E+03  0.00000000000E+00 0. -1.
          2   -1    0    0  501    0  0.00000000000E+00 -0.00000000000E+00 -0.48397703264E+04  0.48397703264E+04  0.00000000000E+00 0.  1.
         23    2    1    2    0    0  0.10442640281E+04 -0.11391093719E+04 -0.25640734252E+04  0.29950263920E+04  0.87481639299E+02 0.  0.
         13    1    3    3    0    0  0.83860523415E+03 -0.92287448794E+03 -0.21325337034E+04  0.24703554512E+04  0.00000000000E+00 0.  1.
        -13    1    3    3    0    0  0.20565879396E+03 -0.21623488396E+03 -0.43153972180E+03  0.52467094074E+03  0.00000000000E+00 0. -1.
         22    1    1    2    0    0 -0.10442640281E+04  0.11391093719E+04 -0.17704386181E+04  0.23500022175E+04  0.00000000000E+00 0.  1.
<mgrwt>
<rscale>  0 0.31275128E+04</rscale>
<asrwt>0</asrwt>
<pdfrwt beam="1">  1        2 0.74458004E+00 0.31275128E+04</pdfrwt>
<pdfrwt beam="2">  1       -2 0.77732044E-01 0.31275128E+04</pdfrwt>
<totfact> 0.66790292E-02</totfact>
</mgrwt>
</event>
<event>
 6    1  0.5040916E-004  0.1705031E+04  0.7818608E-02  0.8758500E-01
         -2   -1    0    0    0  501 -0.00000000000E+00  0.00000000000E+00  0.30989151904E+03  0.30989151904E+03  0.00000000000E+00 0. -1.
          2   -1    0    0  501    0  0.00000000000E+00 -0.00000000000E+00 -0.23452795828E+04  0.23452795828E+04  0.00000000000E+00 0.  1.
         23    2    1    2    0    0  0.36026176625E+03  0.56670424269E+03 -0.20889891209E+03  0.70914827050E+03  0.91160710712E+02 0.  0.
         13    1    3    3    0    0  0.17849842769E+03  0.20760015643E+03 -0.10709992399E+03  0.29398963819E+03  0.00000000000E+00 0. -1.
        -13    1    3    3    0    0  0.18176333855E+03  0.35910408626E+03 -0.10179898809E+03  0.41515863231E+03  0.00000000000E+00 0.  1.
         22    1    1    2    0    0 -0.36026176625E+03 -0.56670424269E+03 -0.18264891517E+04  0.19460228314E+04  0.00000000000E+00 0.  1.
<mgrwt>
<rscale>  0 0.17050305E+04</rscale>
<asrwt>0</asrwt>
<pdfrwt beam="1">  1        2 0.36081225E+00 0.17050305E+04</pdfrwt>
<pdfrwt beam="2">  1       -2 0.47675617E-01 0.17050305E+04</pdfrwt>
<totfact> 0.16958578E+01</totfact>
</mgrwt>
</event>
<event>
 6    1  0.5040916E-004  0.1661940E+04  0.7818608E-02  0.8783374E-01
          2   -1    0    0  501    0  0.00000000000E+00  0.00000000000E+00  0.10194171528E+04  0.10194171528E+04  0.00000000000E+00 0.  1.
         -2   -1    0    0    0  501 -0.00000000000E+00 -0.00000000000E+00 -0.67735860631E+03  0.67735860631E+03  0.00000000000E+00 0. -1.
         23    2    1    2    0    0 -0.82534625617E+03 -0.65302682178E+02  0.13733746805E+03  0.84391492477E+03  0.88712666746E+02 0.  0.
         11    1    3    3    0    0 -0.79333261940E+03 -0.64575805662E+02  0.11352932528E+03  0.80401218112E+03  0.00000000000E+00 0. -1.
        -11    1    3    3    0    0 -0.32013636764E+02 -0.72687651589E+00  0.23808142773E+02  0.39902743648E+02  0.00000000000E+00 0.  1.
         22    1    1    2    0    0  0.82534625617E+03  0.65302682178E+02  0.20472107848E+03  0.85286083439E+03  0.00000000000E+00 0. -1.
<mgrwt>
<rscale>  0 0.16619398E+04</rscale>
<asrwt>0</asrwt>
<pdfrwt beam="1">  1        2 0.15683341E+00 0.16619398E+04</pdfrwt>
<pdfrwt beam="2">  1       -2 0.10420902E+00 0.16619398E+04</pdfrwt>
<totfact> 0.17489268E+01</totfact>
</mgrwt>
</event>
<event>
 6    1  0.5040916E-004  0.3658483E+04  0.7818608E-02  0.8077225E-01
         -3   -1    0    0    0  501 -0.00000000000E+00  0.00000000000E+00  0.87166690343E+03  0.87166690343E+03  0.00000000000E+00 0. -1.
          3   -1    0    0  501    0  0.00000000000E+00 -0.00000000000E+00 -0.38387659941E+04  0.38387659941E+04  0.00000000000E+00 0.  1.
         23    2    1    2    0    0  0.57343723624E+03 -0.95627972413E+01 -0.37194262986E+04  0.37644318727E+04  0.88846062218E+02 0.  0.
         11    1    3    3    0    0  0.25399631419E+03  0.18116587631E+02 -0.18969285462E+04  0.19139436376E+04  0.00000000000E+00 0.  1.
        -11    1    3    3    0    0  0.31944092205E+03 -0.27679384873E+02 -0.18224977524E+04  0.18504882351E+04  0.00000000000E+00 0. -1.
         22    1    1    2    0    0 -0.57343723624E+03  0.95627972413E+01  0.75232720796E+03  0.94600102475E+03  0.00000000000E+00 0. -1.
<mgrwt>
<rscale>  0 0.36584834E+04</rscale>
<asrwt>0</asrwt>
<pdfrwt beam="1">  1        3 0.59057938E+00 0.36584834E+04</pdfrwt>
<pdfrwt beam="2">  1       -3 0.13410260E+00 0.36584834E+04</pdfrwt>
<totfact> 0.11291519E-03</totfact>
</mgrwt>
</event>
<event>
 6    1  0.5040916E-004  0.2718172E+04  0.7818608E-02  0.8329133E-01
         -2   -1    0    0    0  501 -0.00000000000E+00  0.00000000000E+00  0.10070725371E+04  0.10070725371E+04  0.00000000000E+00 0. -1.
          2   -1    0    0  501    0  0.00000000000E+00 -0.00000000000E+00 -0.18341428851E+04  0.18341428851E+04  0.00000000000E+00 0.  1.
         23    2    1    2    0    0  0.82269881929E+03 -0.43097501813E+03  0.62107050420E+03  0.11208419914E+04  0.89360981405E+02 0.  0.
         13    1    3    3    0    0  0.71616334288E+03 -0.34279504027E+03  0.51243116731E+03  0.94497834607E+03  0.00000000000E+00 0.  1.
        -13    1    3    3    0    0  0.10653547641E+03 -0.88179977864E+02  0.10863933689E+03  0.17586364533E+03  0.00000000000E+00 0. -1.
         22    1    1    2    0    0 -0.82269881929E+03  0.43097501813E+03 -0.14481408522E+04  0.17203734308E+04  0.00000000000E+00 0.  1.
<mgrwt>
<rscale>  0 0.27181721E+04</rscale>
<asrwt>0</asrwt>
<pdfrwt beam="1">  1        2 0.28217583E+00 0.27181721E+04</pdfrwt>
<pdfrwt beam="2">  1       -2 0.15493424E+00 0.27181721E+04</pdfrwt>
<totfact> 0.19889886E+00</totfact>
</mgrwt>
</event>
<event>
 6    1  0.5040916E-004  0.2997240E+04  0.7818608E-02  0.8244519E-01
         -2   -1    0    0    0  501 -0.00000000000E+00  0.00000000000E+00  0.95984838802E+03  0.95984838802E+03  0.00000000000E+00 0. -1.
          2   -1    0    0  501    0  0.00000000000E+00 -0.00000000000E+00 -0.23398088191E+04  0.23398088191E+04  0.00000000000E+00 0.  1.
         23    2    1    2    0    0  0.49721367388E+03  0.51546755104E+03 -0.21381101500E+04  0.22567194190E+04  0.91319708154E+02 0.  0.
         11    1    3    3    0    0  0.22912947358E+03  0.28308088709E+03 -0.11858781657E+04  0.12405410627E+04  0.00000000000E+00 0.  1.
        -11    1    3    3    0    0  0.26808420030E+03  0.23238666395E+03 -0.95223198429E+03  0.10161783564E+04  0.00000000000E+00 0. -1.
         22    1    1    2    0    0 -0.49721367388E+03 -0.51546755104E+03  0.75814971887E+03  0.10429377881E+04  0.00000000000E+00 0. -1.
<mgrwt>
<rscale>  0 0.29972399E+04</rscale>
<asrwt>0</asrwt>
<pdfrwt beam="1">  1        2 0.35997058E+00 0.29972399E+04</pdfrwt>
<pdfrwt beam="2">  1       -2 0.14766898E+00 0.29972399E+04</pdfrwt>
<totfact> 0.11505681E+00</totfact>
</mgrwt>
</event>
<event>
 6    1  0.5040916E-004  0.4365218E+04  0.7818608E-02  0.7934668E-01
          2   -1    0    0  501    0  0.00000000000E+00  0.00000000000E+00  0.10834144806E+04  0.10834144806E+04  0.00000000000E+00 0.  1.
         -2   -1    0    0    0  501 -0.00000000000E+00 -0.00000000000E+00 -0.43970073031E+04  0.43970073031E+04  0.00000000000E+00 0. -1.
         23    2    1    2    0    0  0.12525113641E+04  0.16077769300E+04 -0.68039633476E+03  0.21506387401E+04  0.92609094423E+02 0.  0.
         13    1    3    3    0    0  0.11747064998E+04  0.14865662451E+04 -0.61102669679E+03  0.19907707517E+04  0.00000000000E+00 0.  1.
        -13    1    3    3    0    0  0.77804864236E+02  0.12121068493E+03 -0.69369637978E+02  0.15986798839E+03  0.00000000000E+00 0. -1.
         22    1    1    2    0    0 -0.12525113641E+04 -0.16077769300E+04 -0.26331964878E+04  0.33297830436E+04  0.00000000000E+00 0. -1.
<mgrwt>
<rscale>  0 0.43652177E+04</rscale>
<asrwt>0</asrwt>
<pdfrwt beam="1">  1        2 0.16667915E+00 0.43652177E+04</pdfrwt>
<pdfrwt beam="2">  1       -2 0.67646266E+00 0.43652177E+04</pdfrwt>
<totfact> 0.46994833E-03</totfact>
</mgrwt>
</event>
<event>
 6    1  0.5040916E-004  0.2889658E+04  0.7818608E-02  0.8275961E-01
          2   -1    0    0  501    0  0.00000000000E+00  0.00000000000E+00  0.15435083109E+04  0.15435083109E+04  0.00000000000E+00 0.  1.
         -2   -1    0    0    0  501 -0.00000000000E+00 -0.00000000000E+00 -0.13524585215E+04  0.13524585215E+04  0.00000000000E+00 0. -1.
         23    2    1    2    0    0  0.26466904209E+02 -0.10383480607E+04 -0.90876208388E+03  0.13832033517E+04  0.92389365452E+02 0.  0.
         13    1    3    3    0    0 -0.28610388518E+02 -0.17078060051E+03 -0.13854347363E+03  0.22176307611E+03  0.00000000000E+00 0. -1.
        -13    1    3    3    0    0  0.55077292727E+02 -0.86756746020E+03 -0.77021861026E+03  0.11614402756E+04  0.00000000000E+00 0.  1.
         22    1    1    2    0    0 -0.26466904209E+02  0.10383480607E+04  0.10998118733E+04  0.15127634808E+04  0.00000000000E+00 0.  1.
<mgrwt>
<rscale>  0 0.28896581E+04</rscale>
<asrwt>0</asrwt>
<pdfrwt beam="1">  1        2 0.23746282E+00 0.28896581E+04</pdfrwt>
<pdfrwt beam="2">  1       -2 0.20807054E+00 0.28896581E+04</pdfrwt>
<totfact> 0.12212065E+00</totfact>
</mgrwt>
</event>
<event>
 6    1  0.5040916E-004  0.1978853E+04  0.7818608E-02  0.8616572E-01
         -2   -1    0    0    0  501 -0.00000000000E+00  0.00000000000E+00  0.62785189949E+03  0.62785189949E+03  0.00000000000E+00 0. -1.
          2   -1    0    0  501    0  0.00000000000E+00 -0.00000000000E+00 -0.15592289769E+04  0.15592289769E+04  0.00000000000E+00 0.  1.
         23    2    1    2    0    0 -0.37773285000E+03  0.19323811212E+03 -0.14527665487E+04  0.15148680717E+04  0.65357138243E+02 0.  0.
         13    1    3    3    0    0 -0.49664744608E+02  0.13281011377E+02 -0.25039236260E+03  0.25561554602E+03  0.00000000000E+00 0.  1.
        -13    1    3    3    0    0 -0.32806810540E+03  0.17995710075E+03 -0.12023741861E+04  0.12592525257E+04  0.00000000000E+00 0. -1.
         22    1    1    2    0    0  0.37773285000E+03 -0.19323811212E+03  0.52138947135E+03  0.67221280468E+03  0.00000000000E+00 0. -1.
<mgrwt>
<rscale>  0 0.19788531E+04</rscale>
<asrwt>0</asrwt>
<pdfrwt beam="1">  1        2 0.23988138E+00 0.19788531E+04</pdfrwt>
<pdfrwt beam="2">  1       -2 0.96592601E-01 0.19788531E+04</pdfrwt>
<totfact> 0.98068889E+00</totfact>
</mgrwt>
</event>
<event>
 6    1  0.5040916E-004  0.1204055E+04  0.7818608E-02  0.9109314E-01
         -2   -1    0    0    0  501 -0.00000000000E+00  0.00000000000E+00  0.21473408527E+03  0.21473408527E+03  0.00000000000E+00 0. -1.
          2   -1    0    0  501    0  0.00000000000E+00 -0.00000000000E+00 -0.16878422616E+04  0.16878422616E+04  0.00000000000E+00 0.  1.
         23    2    1    2    0    0 -0.42770473182E+03 -0.29435291906E+03 -0.26399024015E+03  0.58669597154E+03  0.70330203650E+02 0.  0.
         11    1    3    3    0    0 -0.21923715397E+03 -0.16814173375E+03 -0.17607521853E+03  0.32762639529E+03  0.00000000000E+00 0.  1.
        -11    1    3    3    0    0 -0.20846757786E+03 -0.12621118532E+03 -0.87915021620E+02  0.25906957626E+03  0.00000000000E+00 0. -1.
         22    1    1    2    0    0  0.42770473182E+03  0.29435291906E+03 -0.12091179362E+04  0.13158803753E+04  0.00000000000E+00 0.  1.
<mgrwt>
<rscale>  0 0.12040553E+04</rscale>
<asrwt>0</asrwt>
<pdfrwt beam="1">  1        2 0.25966805E+00 0.12040553E+04</pdfrwt>
<pdfrwt beam="2">  1       -2 0.33036012E-01 0.12040553E+04</pdfrwt>
<totfact> 0.84023460E+01</totfact>
</mgrwt>
</event>
<event>
 6    1  0.5040916E-004  0.1709589E+04  0.7818608E-02  0.8755914E-01
         -1   -1    0    0    0  501 -0.00000000000E+00  0.00000000000E+00  0.13210589790E+04  0.13210589790E+04  0.00000000000E+00 0. -1.
          1   -1    0    0  501    0  0.00000000000E+00 -0.00000000000E+00 -0.55309720533E+03  0.55309720533E+03  0.00000000000E+00 0.  1.
         23    2    1    2    0    0  0.80503734177E+02  0.34916659302E+03 -0.46293794484E+03  0.59216075613E+03  0.89132819054E+02 0.  0.
         13    1    3    3    0    0  0.71693161713E+02  0.22628594875E+03 -0.36204782461E+03  0.43292478254E+03  0.00000000000E+00 0. -1.
        -13    1    3    3    0    0  0.88105724635E+01  0.12288064428E+03 -0.10089012023E+03  0.15923597359E+03  0.00000000000E+00 0.  1.
         22    1    1    2    0    0 -0.80503734177E+02 -0.34916659302E+03  0.12308997185E+04  0.12819954282E+04  0.00000000000E+00 0. -1.
<mgrwt>
<rscale>  0 0.17095895E+04</rscale>
<asrwt>0</asrwt>
<pdfrwt beam="1">  1        1 0.85091878E-01 0.17095895E+04</pdfrwt>
<pdfrwt beam="2">  1       -1 0.20323984E+00 0.17095895E+04</pdfrwt>
<totfact> 0.52305983E+00</totfact>
</mgrwt>
</event>
<event>
 6    1  0.5040916E-004  0.3167450E+04  0.7818608E-02  0.8197467E-01
         -2   -1    0    0    0  501 -0.00000000000E+00  0.00000000000E+00  0.28984455180E+04  0.28984455180E+04  0.00000000000E+00 0. -1.
          2   -1    0    0  501    0  0.00000000000E+00 -0.00000000000E+00 -0.86535504447E+03  0.86535504447E+03  0.00000000000E+00 0.  1.
         23    2    1    2    0    0 -0.12414873774E+04 -0.39390887017E+03 -0.49710349865E+02  0.13072757048E+04  0.10021748004E+03 0.  0.
         11    1    3    3    0    0 -0.56215632231E+02  0.26882088570E+01  0.23463853049E+01  0.56328760842E+02  0.00000000000E+00 0.  1.
        -11    1    3    3    0    0 -0.11852717452E+04 -0.39659707903E+03 -0.52056735170E+02  0.12509469440E+04  0.00000000000E+00 0. -1.
         22    1    1    2    0    0  0.12414873774E+04  0.39390887017E+03  0.20828008234E+04  0.24565248577E+04  0.00000000000E+00 0. -1.
<mgrwt>
<rscale>  0 0.31674497E+04</rscale>
<asrwt>0</asrwt>
<pdfrwt beam="1">  1        2 0.13313155E+00 0.31674497E+04</pdfrwt>
<pdfrwt beam="2">  1       -2 0.44591469E+00 0.31674497E+04</pdfrwt>
<totfact> 0.96441139E-02</totfact>
</mgrwt>
</event>
<event>
 6    1  0.5040916E-004  0.1487043E+04  0.7818608E-02  0.8893115E-01
          2   -1    0    0  501    0  0.00000000000E+00  0.00000000000E+00  0.53782489322E+03  0.53782489322E+03  0.00000000000E+00 0.  1.
         -2   -1    0    0    0  501 -0.00000000000E+00 -0.00000000000E+00 -0.10278895091E+04  0.10278895091E+04  0.00000000000E+00 0. -1.
         23    2    1    2    0    0 -0.12873108554E+03  0.26077784607E+03  0.46997182640E+03  0.56259589094E+03  0.10518479696E+03 0.  0.
         11    1    3    3    0    0 -0.10091789070E+03  0.18010240972E+03  0.23604294777E+03  0.31358822019E+03  0.00000000000E+00 0.  1.
        -11    1    3    3    0    0 -0.27813194842E+02  0.80675436356E+02  0.23392887863E+03  0.24900767075E+03  0.00000000000E+00 0. -1.
         22    1    1    2    0    0  0.12873108554E+03 -0.26077784607E+03 -0.96003644231E+03  0.10031185114E+04  0.00000000000E+00 0. -1.
<mgrwt>
<rscale>  0 0.14870435E+04</rscale>
<asrwt>0</asrwt>
<pdfrwt beam="1">  1        2 0.82742291E-01 0.14870435E+04</pdfrwt>
<pdfrwt beam="2">  1       -2 0.15813685E+00 0.14870435E+04</pdfrwt>
<totfact> 0.14204225E+01</totfact>
</mgrwt>
</event>
<event>
 6    1  0.5040916E-004  0.4230407E+04  0.7818608E-02  0.7959613E-01
         -2   -1    0    0    0  501 -0.00000000000E+00  0.00000000000E+00  0.15338947979E+04  0.15338947979E+04  0.00000000000E+00 0.  1.
          2   -1    0    0  501    0  0.00000000000E+00 -0.00000000000E+00 -0.29168146715E+04  0.29168146715E+04  0.00000000000E+00 0. -1.
         23    2    1    2    0    0  0.19366023428E+04 -0.75762332389E+03 -0.29046181139E+03  0.21016913016E+04  0.91195001014E+02 0.  0.
         13    1    3    3    0    0  0.72838801884E+03 -0.25900701444E+03 -0.14521101105E+03  0.78658755219E+03  0.00000000000E+00 0.  1.
        -13    1    3    3    0    0  0.12082143240E+04 -0.49861630945E+03 -0.14525080033E+03  0.13151037494E+04  0.00000000000E+00 0. -1.
         22    1    1    2    0    0 -0.19366023428E+04  0.75762332389E+03 -0.10924580622E+04  0.23490181678E+04  0.00000000000E+00 0. -1.
<mgrwt>
<rscale>  0 0.42304075E+04</rscale>
<asrwt>0</asrwt>
<pdfrwt beam="1">  1        2 0.44874071E+00 0.42304075E+04</pdfrwt>
<pdfrwt beam="2">  1       -2 0.23598382E+00 0.42304075E+04</pdfrwt>
<totfact> 0.11912225E-01</totfact>
</mgrwt>
</event>
<event>
 6    1  0.5040916E-004  0.2763162E+04  0.7818608E-02  0.8314797E-01
         -2   -1    0    0    0  501 -0.00000000000E+00  0.00000000000E+00  0.20044556874E+04  0.20044556874E+04  0.00000000000E+00 0. -1.
          2   -1    0    0  501    0  0.00000000000E+00 -0.00000000000E+00 -0.95226122390E+03  0.95226122390E+03  0.00000000000E+00 0.  1.
         23    2    1    2    0    0 -0.52438616734E+03 -0.28615993360E+03 -0.80452381403E+03  0.10062628303E+04  0.91858348369E+02 0.  0.
         13    1    3    3    0    0 -0.19970297998E+03 -0.95803140635E+02 -0.22894239183E+03  0.31855006003E+03  0.00000000000E+00 0. -1.
        -13    1    3    3    0    0 -0.32468318736E+03 -0.19035679296E+03 -0.57558142220E+03  0.68771277025E+03  0.00000000000E+00 0.  1.
         22    1    1    2    0    0  0.52438616734E+03  0.28615993360E+03  0.18567182775E+04  0.19504540810E+04  0.00000000000E+00 0. -1.
<mgrwt>
<rscale>  0 0.27631615E+04</rscale>
<asrwt>0</asrwt>
<pdfrwt beam="1">  1        2 0.14650173E+00 0.27631615E+04</pdfrwt>
<pdfrwt beam="2">  1       -2 0.30837780E+00 0.27631615E+04</pdfrwt>
<totfact> 0.66679960E-01</totfact>
</mgrwt>
</event>
<event>
 6    1  0.5040916E-004  0.1348649E+04  0.7818608E-02  0.8991852E-01
         -2   -1    0    0    0  501 -0.00000000000E+00  0.00000000000E+00  0.27824781866E+03  0.27824781866E+03  0.00000000000E+00 0. -1.
          2   -1    0    0  501    0  0.00000000000E+00 -0.00000000000E+00 -0.16342025383E+04  0.16342025383E+04  0.00000000000E+00 0.  1.
         23    2    1    2    0    0  0.22727720894E+03 -0.61090257914E+03 -0.90863469821E+03  0.11219112419E+04  0.90614176281E+02 0.  0.
         13    1    3    3    0    0  0.12860293060E+03 -0.34156504681E+03 -0.58439780837E+03  0.68900376878E+03  0.00000000000E+00 0.  1.
        -13    1    3    3    0    0  0.98674278342E+02 -0.26933753233E+03 -0.32423688984E+03  0.43290747310E+03  0.00000000000E+00 0. -1.
         22    1    1    2    0    0 -0.22727720894E+03  0.61090257914E+03 -0.44732002142E+03  0.79053911508E+03  0.00000000000E+00 0. -1.
<mgrwt>
<rscale>  0 0.13486486E+04</rscale>
<asrwt>0</asrwt>
<pdfrwt beam="1">  1        2 0.25141578E+00 0.13486486E+04</pdfrwt>
<pdfrwt beam="2">  1       -2 0.42807356E-01 0.13486486E+04</pdfrwt>
<totfact> 0.53920320E+01</totfact>
</mgrwt>
</event>
